ITEM: TIMESTEP
67
ITEM: NUMBER OF ATOMS
688
ITEM: BOX BOUNDS pp pp pp
0.0000000000000000e+00 2.2013900999999997e+01
0.0000000000000000e+00 2.2013900999999997e+01
0.0000000000000000e+00 2.2013900999999997e+01
ITEM: ATOMS id type x y z c_pot
1 1 -7.04562e-05 1.37744e-15 1.99347e-15 -8.94949
2 1 1.57222 1.5723 1.57229 -8.9495
3 1 3.14465 -7.3989e-16 7.34852e-16 -8.94962
4 1 4.71704 1.57225 1.57224 -8.94966
5 1 6.28956 6.93633e-15 -6.13762e-16 -8.94962
6 1 7.862 1.57223 1.57224 -8.94962
7 1 9.4345 -8.88584e-16 3.29795e-15 -8.94962
8 1 11.007 1.57223 1.57224 -8.94961
9 1 12.5794 2.45735e-16 -3.62538e-16 -8.94962
10 1 14.152 1.57222 1.57224 -8.94963
11 1 15.7244 -1.39976e-15 2.51392e-15 -8.94964
12 1 17.2969 1.57223 1.57227 -8.94958
13 1 18.8692 4.70285e-15 2.48622e-15 -8.94954
14 1 20.4416 1.57232 1.57234 -8.94953
15 1 22.0138 3.1447 1.88799e-15 -8.94959
16 1 1.57219 4.71708 1.57229 -8.94963
17 1 3.14455 3.14459 3.25238e-15 -8.94957
18 1 4.71677 4.71682 1.57209 -8.94959
19 1 6.28946 3.14452 3.87498e-15 -8.94964
20 1 7.86185 4.71673 1.5721 -8.94962
21 1 9.43446 3.14451 -1.01304e-15 -8.9496
22 1 11.007 4.71673 1.57208 -8.94961
23 1 12.5795 3.1445 -9.66023e-17 -8.94962
24 1 14.1521 4.71669 1.5721 -8.94973
25 1 15.7245 3.14449 5.45617e-16 -8.94968
26 1 17.2972 4.71676 1.57217 -8.94934
27 1 18.8693 3.14459 -1.63291e-15 -8.94946
28 1 20.4416 4.71708 1.57232 -8.94962
29 1 -5.45983e-05 6.28957 2.43003e-16 -8.94962
30 1 1.57218 7.86201 1.5723 -8.94961
31 1 3.14448 6.28948 2.98171e-15 -8.94964
32 1 4.71672 7.8619 1.57214 -8.94967
33 1 6.28911 6.28915 4.75205e-15 -8.94966
34 1 7.86141 7.8614 1.5717 -8.94968
35 1 9.43433 6.28909 7.04691e-15 -8.94957
36 1 11.0069 7.86146 1.57167 -8.9495
37 1 12.5796 6.28908 8.07782e-15 -8.94959
38 1 14.1528 7.8612 1.57153 -8.94969
39 1 15.7249 6.289 5.52797e-16 -8.94951
40 1 17.2972 7.86186 1.57222 -8.94962
41 1 18.8694 6.28947 9.02837e-16 -8.94965
42 1 20.4416 7.86201 1.57232 -8.9496
43 1 22.0138 9.43448 -4.45772e-16 -8.94961
44 1 3.14446 9.43446 5.28452e-15 -8.94957
45 1 6.28915 9.43439 -2.79519e-15 -8.94963
46 1 9.43403 9.43401 -8.18662e-15 -8.94972
47 1 12.58 9.43399 -2.70868e-15 -8.95027
48 1 15.7249 9.43433 -7.90605e-15 -8.94941
49 1 18.8694 9.43445 4.21745e-15 -8.94959
50 1 22.0138 3.81337e-15 3.14471 -8.94955
51 1 1.57213 1.57228 4.71702 -8.94955
52 1 3.14451 -7.09844e-16 3.14453 -8.94952
53 1 4.71671 1.57205 4.71669 -8.94955
54 1 6.28948 -3.2087e-16 3.1445 -8.94961
55 1 7.8619 1.57207 4.71672 -8.94956
56 1 9.4345 -1.14874e-15 3.14451 -8.94961
57 1 11.0071 1.57205 4.71671 -8.94957
58 1 12.5795 1.11883e-15 3.1445 -8.94961
59 1 14.1522 1.57202 4.71673 -8.94963
60 1 15.7245 -1.074e-15 3.14453 -8.9496
61 1 17.297 1.5722 4.71697 -8.94957
62 1 18.8693 8.54492e-16 3.14468 -8.94957
63 1 20.4416 1.5723 4.71711 -8.94959
64 1 -9.15009e-05 3.14467 3.14467 -8.94959
65 1 1.57201 4.71698 4.71693 -8.94966
66 1 3.14437 3.14448 3.14443 -8.94937
67 1 4.71619 4.7163 4.7162 -8.94885
68 1 6.28936 3.14441 3.14437 -8.94972
69 1 7.86172 4.71627 4.71634 -8.9499
70 1 9.43445 3.14434 3.14438 -8.94959
71 1 11.0071 4.71622 4.71624 -8.94949
72 1 12.5796 3.14434 3.14434 -8.94961
73 1 14.1527 4.71601 4.71628 -8.9497
74 1 15.7247 3.14431 3.14441 -8.94959
75 1 17.2973 4.71668 4.71678 -8.9494
76 1 18.8693 3.14458 3.14464 -8.94954
77 1 20.4416 4.71702 4.71705 -8.94965
78 1 22.0138 6.28954 3.14466 -8.94965
79 1 1.57206 7.86199 4.71696 -8.94963
80 1 3.14434 6.28943 3.14448 -8.94964
81 1 4.71637 7.86171 4.71649 -8.94957
82 1 6.28885 6.2889 3.14379 -8.94977
83 1 7.86092 7.86059 4.71491 -8.95079
84 1 9.43432 6.28878 3.14396 -8.94947
85 1 11.007 7.86104 4.71508 -8.95
86 1 12.5797 6.2888 3.14391 -8.94992
87 1 14.1544 7.85965 4.71442 -8.94711
88 1 15.7253 6.28865 3.14386 -8.94891
89 1 17.2976 7.86175 4.71678 -8.95009
90 1 18.8695 6.28941 3.14459 -8.94971
91 1 20.4417 7.86198 4.71705 -8.94971
92 1 -7.79399e-05 9.43448 3.14465 -8.94961
93 1 3.14437 9.43445 3.1445 -8.94956
94 1 6.28903 9.43439 3.1441 -8.9499
95 1 9.43363 9.43343 3.14262 -8.94813
96 1 12.5809 9.4332 3.14176 -8.94984
97 1 15.7251 9.43428 3.1442 -8.94955
98 1 18.8695 9.43445 3.14459 -8.94957
99 1 -0.000109029 7.7724e-16 6.28955 -8.9496
100 1 1.57209 1.57227 7.86194 -8.94961
101 1 3.14436 1.77902e-15 6.28933 -8.94949
102 1 4.71647 1.57193 7.86161 -8.94944
103 1 6.28913 2.54108e-15 6.28905 -8.94974
104 1 7.86157 1.57141 7.86141 -8.94998
105 1 9.43449 1.45882e-15 6.28908 -8.94958
106 1 11.0073 1.57146 7.86141 -8.94972
107 1 12.5798 5.01736e-16 6.28909 -8.94969
108 1 14.1525 1.57185 7.86163 -8.94961
109 1 15.7247 -6.9724e-16 6.28932 -8.94959
110 1 17.2971 1.57217 7.8619 -8.94959
111 1 18.8693 -1.3645e-15 6.28952 -8.9496
112 1 20.4416 1.57229 7.86201 -8.94962
113 1 22.0138 3.14463 6.2895 -8.94962
114 1 1.57193 4.71691 7.86187 -8.94965
115 1 3.14417 3.14439 6.28923 -8.94947
116 1 4.71587 4.71601 7.86122 -8.94912
117 1 6.28871 3.14357 6.28862 -8.94956
118 1 7.86046 4.71351 7.86021 -8.94965
119 1 9.43447 3.14361 6.28886 -8.9494
120 1 11.0081 4.71405 7.86038 -8.94797
121 1 12.5801 3.14359 6.28872 -8.94958
122 1 14.1532 4.71543 7.86121 -8.94971
123 1 15.725 3.14413 6.28916 -8.94954
124 1 17.2975 4.71659 7.86173 -8.94949
125 1 18.8694 3.14453 6.28946 -8.94959
126 1 20.4417 4.71698 7.86195 -8.94965
127 1 -0.00014117 6.28949 6.28946 -8.94975
128 1 1.5719 7.86193 7.86186 -8.94984
129 1 3.14386 6.28919 6.28909 -8.94992
130 1 4.71554 7.86125 7.86129 -8.95111
131 1 6.28715 6.287 6.28692 -8.94692
132 1 7.85576 7.85407 7.85462 -8.9827
133 1 9.43462 6.28734 6.28843 -8.94975
134 1 11.01 7.85821 7.85818 -9.00107
135 1 12.5809 6.28697 6.28766 -8.95067
136 1 14.1553 7.85882 7.85979 -8.94682
137 1 15.7258 6.2884 6.28855 -8.94881
138 1 17.2979 7.86155 7.86174 -8.95019
139 1 18.8697 6.28931 6.28938 -8.94971
140 1 20.4417 7.86194 7.86194 -8.94981
141 1 22.0138 9.43448 6.28945 -8.94965
142 1 3.14416 9.43445 6.28919 -8.94969
143 1 6.28834 9.43413 6.28814 -8.94951
144 1 9.43226 9.43122 6.28668 -9.00232
145 1 12.5861 9.42751 6.28183 -8.97959
146 1 15.7256 9.43434 6.2891 -8.95169
147 1 18.8696 9.43447 6.28943 -8.94973
148 1 -0.000100807 5.95457e-16 9.43448 -8.9496
149 1 3.14433 3.04352e-15 9.43439 -8.94955
150 1 6.28889 -1.00059e-15 9.43416 -8.9497
151 1 9.43447 4.20645e-16 9.43418 -8.95057
152 1 12.58 1.69038e-15 9.43416 -8.94972
153 1 15.7248 3.20959e-15 9.43438 -8.94966
154 1 18.8693 1.54162e-15 9.43447 -8.9496
155 1 -0.000109879 3.14463 9.43446 -8.94962
156 1 3.14415 3.14437 9.43437 -8.94962
157 1 6.28839 3.14297 9.43387 -8.94914
158 1 9.43442 3.14121 9.43408 -8.95261
159 1 12.5803 3.14291 9.43391 -8.94951
160 1 15.7251 3.14401 9.4343 -8.94958
161 1 18.8694 3.14453 9.43445 -8.94962
162 1 -0.000123803 6.28945 9.43444 -8.94977
163 1 3.14374 6.28905 9.43425 -8.94976
164 1 6.28711 6.2862 9.4328 -8.9469
165 1 9.43407 6.27563 9.43388 -8.96575
166 1 12.5811 6.28527 9.43317 -8.95074
167 1 15.726 6.28817 9.43399 -8.94867
168 1 18.8698 6.28922 9.43438 -8.94963
169 1 -8.44416e-05 9.43449 9.43442 -8.94966
170 1 3.14407 9.43441 9.43423 -8.9496
171 1 6.28805 9.43373 9.43321 -9.00213
172 1 9.41253 9.3763 9.43383 -9.26428
173 1 12.5882 9.42378 9.4317 -9.0136
174 1 15.7261 9.43411 9.43443 -8.95241
175 1 18.8697 9.43447 9.43443 -8.9499
176 1 1.57209 1.57227 11.007 -8.94958
177 1 4.71647 1.57196 11.007 -8.94945
178 1 7.86134 1.57092 11.007 -8.9503
179 1 11.0075 1.57097 11.007 -8.95004
180 1 14.1525 1.57182 11.007 -8.94971
181 1 17.2971 1.57217 11.007 -8.94957
182 1 20.4416 1.57229 11.007 -8.94961
183 1 1.57195 4.71691 11.007 -8.94959
184 1 4.71597 4.71614 11.007 -8.94978
185 1 7.8594 4.71142 11.007 -8.94855
186 1 11.0089 4.71189 11.007 -8.94708
187 1 14.1532 4.71528 11.007 -8.9503
188 1 17.2975 4.71655 11.007 -8.94956
189 1 20.4417 4.71698 11.007 -8.94962
190 1 1.5719 7.86195 11.007 -8.94998
191 1 4.71531 7.86121 11.007 -8.95262
192 1 7.85209 7.85013 11.007 -9.00971
193 1 11.0131 7.85374 11.007 -9.04704
194 1 14.156 7.85806 11.007 -8.94721
195 1 17.2982 7.86138 11.007 -8.95023
196 1 20.4418 7.86192 11.007 -8.94988
197 1 -0.000100807 6.51487e-16 12.5794 -8.9496
198 1 1.57209 1.57227 14.152 -8.94961
199 1 3.14433 2.47513e-15 12.5795 -8.94955
200 1 4.71647 1.57193 14.1523 -8.94944
201 1 6.28889 4.652e-16 12.5797 -8.9497
202 1 7.86157 1.57141 14.1525 -8.94998
203 1 9.43447 3.73802e-15 12.5797 -8.95057
204 1 11.0073 1.57146 14.1525 -8.94972
205 1 12.58 -3.30165e-15 12.5797 -8.94972
206 1 14.1525 1.57185 14.1523 -8.94961
207 1 15.7248 4.7155e-15 12.5795 -8.94966
208 1 17.2971 1.57217 14.152 -8.94959
209 1 18.8693 -3.65811e-15 12.5794 -8.9496
210 1 20.4416 1.57229 14.1519 -8.94962
211 1 -0.000109879 3.14463 12.5794 -8.94962
212 1 1.57193 4.71691 14.152 -8.94965
213 1 3.14415 3.14437 12.5795 -8.94962
214 1 4.71587 4.71601 14.1527 -8.94912
215 1 6.28839 3.14297 12.58 -8.94914
216 1 7.86046 4.71351 14.1537 -8.94965
217 1 9.43442 3.14121 12.5798 -8.95261
218 1 11.0081 4.71405 14.1535 -8.94797
219 1 12.5803 3.14291 12.58 -8.94951
220 1 14.1532 4.71543 14.1527 -8.94971
221 1 15.7251 3.14401 12.5796 -8.94958
222 1 17.2975 4.71659 14.1522 -8.94949
223 1 18.8694 3.14453 12.5795 -8.94962
224 1 20.4417 4.71698 14.152 -8.94965
225 1 -0.000123803 6.28945 12.5795 -8.94977
226 1 1.5719 7.86193 14.152 -8.94984
227 1 3.14374 6.28905 12.5797 -8.94976
228 1 4.71554 7.86125 14.1526 -8.95111
229 1 6.28711 6.2862 12.5811 -8.9469
230 1 7.85576 7.85407 14.1593 -8.9827
231 1 9.43407 6.27563 12.58 -8.96575
232 1 11.01 7.85821 14.1557 -9.00107
233 1 12.5811 6.28527 12.5807 -8.95074
234 1 14.1553 7.85882 14.1541 -8.94682
235 1 15.726 6.28817 12.5799 -8.94867
236 1 17.2979 7.86155 14.1522 -8.95019
237 1 18.8698 6.28922 12.5795 -8.94963
238 1 20.4417 7.86194 14.152 -8.94981
239 1 -8.44416e-05 9.43449 12.5795 -8.94966
240 1 3.14407 9.43441 12.5797 -8.9496
241 1 6.28805 9.43373 12.5807 -9.00213
242 1 9.41253 9.3763 12.5801 -9.26428
243 1 12.5882 9.42378 12.5822 -9.0136
244 1 15.7261 9.43411 12.5795 -8.95241
245 1 18.8697 9.43447 12.5795 -8.9499
246 1 -0.000109029 9.3046e-16 15.7244 -8.9496
247 1 1.57213 1.57228 17.2969 -8.94955
248 1 3.14436 8.01864e-16 15.7246 -8.94949
249 1 4.71671 1.57205 17.2972 -8.94955
250 1 6.28913 -1.38556e-15 15.7249 -8.94974
251 1 7.8619 1.57207 17.2972 -8.94956
252 1 9.43449 4.12992e-15 15.7248 -8.94958
253 1 11.0071 1.57205 17.2972 -8.94957
254 1 12.5798 -6.78834e-15 15.7248 -8.94969
255 1 14.1522 1.57202 17.2972 -8.94963
256 1 15.7247 7.22723e-15 15.7246 -8.94959
257 1 17.297 1.5722 17.2969 -8.94957
258 1 18.8693 2.41278e-15 15.7244 -8.9496
259 1 20.4416 1.5723 17.2968 -8.94959
260 1 22.0138 3.14463 15.7244 -8.94962
261 1 1.57201 4.71698 17.297 -8.94966
262 1 3.14417 3.14439 15.7247 -8.94947
263 1 4.71619 4.7163 17.2977 -8.94885
264 1 6.28871 3.14357 15.7253 -8.94956
265 1 7.86172 4.71627 17.2976 -8.9499
266 1 9.43447 3.14361 15.725 -8.9494
267 1 11.0071 4.71622 17.2977 -8.94949
268 1 12.5801 3.14359 15.7252 -8.94958
269 1 14.1527 4.71601 17.2976 -8.9497
270 1 15.725 3.14413 15.7247 -8.94954
271 1 17.2973 4.71668 17.2971 -8.9494
272 1 18.8694 3.14453 15.7244 -8.94959
273 1 20.4416 4.71702 17.2969 -8.94965
274 1 -0.00014117 6.28949 15.7244 -8.94975
275 1 1.57206 7.86199 17.2969 -8.94963
276 1 3.14386 6.28919 15.7248 -8.94992
277 1 4.71637 7.86171 17.2974 -8.94957
278 1 6.28715 6.287 15.727 -8.94692
279 1 7.86092 7.86059 17.299 -8.95079
280 1 9.43462 6.28734 15.7255 -8.94975
281 1 11.007 7.86104 17.2988 -8.95
282 1 12.5809 6.28697 15.7262 -8.95067
283 1 14.1544 7.85965 17.2995 -8.94711
284 1 15.7258 6.2884 15.7253 -8.94881
285 1 17.2976 7.86175 17.2971 -8.95009
286 1 18.8697 6.28931 15.7245 -8.94971
287 1 20.4417 7.86198 17.2969 -8.94971
288 1 22.0138 9.43448 15.7244 -8.94965
289 1 3.14416 9.43445 15.7247 -8.94969
290 1 6.28834 9.43413 15.7258 -8.94951
291 1 9.43226 9.43122 15.7272 -9.00232
292 1 12.5861 9.42751 15.7321 -8.97959
293 1 15.7256 9.43434 15.7248 -8.95169
294 1 18.8696 9.43447 15.7245 -8.94973
295 1 22.0138 3.02071e-15 18.8692 -8.94955
296 1 1.57222 1.5723 20.4416 -8.9495
297 1 3.14451 -2.64573e-16 18.8694 -8.94952
298 1 4.71704 1.57225 20.4417 -8.94966
299 1 6.28948 4.00837e-15 18.8694 -8.94961
300 1 7.862 1.57223 20.4417 -8.94962
301 1 9.4345 -1.08736e-15 18.8694 -8.94961
302 1 11.007 1.57223 20.4417 -8.94961
303 1 12.5795 1.38525e-15 18.8694 -8.94961
304 1 14.152 1.57222 20.4417 -8.94963
305 1 15.7245 4.41952e-15 18.8694 -8.9496
306 1 17.2969 1.57223 20.4416 -8.94958
307 1 18.8693 6.7683e-15 18.8692 -8.94957
308 1 20.4416 1.57232 20.4416 -8.94953
309 1 -9.15009e-05 3.14467 18.8692 -8.94959
310 1 1.57219 4.71708 20.4416 -8.94963
311 1 3.14437 3.14448 18.8695 -8.94937
312 1 4.71677 4.71682 20.4418 -8.94959
313 1 6.28936 3.14441 18.8695 -8.94972
314 1 7.86185 4.71673 20.4418 -8.94962
315 1 9.43445 3.14434 18.8695 -8.94959
316 1 11.007 4.71673 20.4418 -8.94961
317 1 12.5796 3.14434 18.8696 -8.94961
318 1 14.1521 4.71669 20.4418 -8.94973
319 1 15.7247 3.14431 18.8695 -8.94959
320 1 17.2972 4.71676 20.4417 -8.94934
321 1 18.8693 3.14458 18.8693 -8.94954
322 1 20.4416 4.71708 20.4416 -8.94962
323 1 22.0138 6.28954 18.8692 -8.94965
324 1 1.57218 7.86201 20.4416 -8.94961
325 1 3.14434 6.28943 18.8694 -8.94964
326 1 4.71672 7.8619 20.4418 -8.94967
327 1 6.28885 6.2889 18.8701 -8.94977
328 1 7.86141 7.8614 20.4422 -8.94968
329 1 9.43432 6.28878 18.8699 -8.94947
330 1 11.0069 7.86146 20.4422 -8.9495
331 1 12.5797 6.2888 18.87 -8.94992
332 1 14.1528 7.8612 20.4424 -8.94969
333 1 15.7253 6.28865 18.87 -8.94891
334 1 17.2972 7.86186 20.4417 -8.94962
335 1 18.8695 6.28941 18.8693 -8.94971
336 1 20.4416 7.86201 20.4416 -8.9496
337 1 -7.79399e-05 9.43448 18.8692 -8.94961
338 1 3.14437 9.43445 18.8694 -8.94956
339 1 6.28903 9.43439 18.8698 -8.9499
340 1 9.43363 9.43343 18.8713 -8.94813
341 1 12.5809 9.4332 18.8721 -8.94984
342 1 15.7251 9.43428 18.8697 -8.94955
343 1 18.8695 9.43445 18.8693 -8.94957
344 1 1.57218 11.007 1.5723 -8.9496
345 1 4.71674 11.007 1.57213 -8.94958
346 1 7.86163 11.007 1.57186 -8.94939
347 1 11.007 11.007 1.57032 -8.95295
348 1 14.1526 11.007 1.57167 -8.94922
349 1 17.2972 11.007 1.5722 -8.94958
350 1 20.4416 11.007 1.57231 -8.9496
351 1 22.0138 12.5794 -5.35205e-16 -8.94961
352 1 1.57218 14.1519 1.5723 -8.94961
353 1 3.14446 12.5794 7.00914e-15 -8.94957
354 1 4.71672 14.152 1.57214 -8.94967
355 1 6.28915 12.5795 5.44538e-15 -8.94963
356 1 7.86141 14.1525 1.5717 -8.94968
357 1 9.43403 12.5799 -5.5972e-15 -8.94972
358 1 11.0069 14.1524 1.57167 -8.9495
359 1 12.58 12.5799 -1.63779e-15 -8.95027
360 1 14.1528 14.1527 1.57153 -8.94969
361 1 15.7249 12.5796 4.0044e-15 -8.94941
362 1 17.2972 14.152 1.57222 -8.94962
363 1 18.8694 12.5795 3.21167e-16 -8.94959
364 1 20.4416 14.1519 1.57232 -8.9496
365 1 -5.45983e-05 15.7243 -1.14597e-15 -8.94962
366 1 1.57219 17.2968 1.57229 -8.94963
367 1 3.14448 15.7244 -5.85545e-15 -8.94964
368 1 4.71677 17.2971 1.57209 -8.94959
369 1 6.28911 15.7248 3.42364e-15 -8.94966
370 1 7.86185 17.2972 1.5721 -8.94962
371 1 9.43433 15.7248 -2.20871e-15 -8.94957
372 1 11.007 17.2972 1.57208 -8.94961
373 1 12.5796 15.7248 -4.12419e-15 -8.94959
374 1 14.1521 17.2972 1.5721 -8.94973
375 1 15.7249 15.7249 4.32803e-15 -8.94951
376 1 17.2972 17.2971 1.57217 -8.94934
377 1 18.8694 15.7244 6.99696e-17 -8.94965
378 1 20.4416 17.2968 1.57232 -8.94962
379 1 22.0138 18.8692 -1.86601e-16 -8.94959
380 1 1.57222 20.4416 1.57229 -8.9495
381 1 3.14455 18.8693 4.5444e-15 -8.94957
382 1 4.71704 20.4416 1.57224 -8.94966
383 1 6.28946 18.8694 4.42146e-15 -8.94964
384 1 7.862 20.4417 1.57224 -8.94962
385 1 9.43446 18.8694 1.71244e-15 -8.9496
386 1 11.007 20.4417 1.57224 -8.94961
387 1 12.5795 18.8694 -4.37661e-16 -8.94962
388 1 14.152 20.4417 1.57224 -8.94963
389 1 15.7245 18.8694 1.04724e-15 -8.94968
390 1 17.2969 20.4417 1.57227 -8.94958
391 1 18.8693 18.8693 -5.81068e-16 -8.94946
392 1 20.4416 20.4416 1.57234 -8.94953
393 1 1.57208 11.007 4.71695 -8.94958
394 1 4.71657 11.007 4.7165 -8.9491
395 1 7.86212 11.007 4.71585 -8.95014
396 1 11.0076 11.007 4.70563 -8.96689
397 1 14.153 11.007 4.71556 -8.94862
398 1 17.2974 11.007 4.71675 -8.94946
399 1 20.4416 11.007 4.71702 -8.94964
400 1 -7.79399e-05 12.5794 3.14465 -8.94961
401 1 1.57206 14.1519 4.71696 -8.94963
402 1 3.14437 12.5795 3.1445 -8.94956
403 1 4.71637 14.1522 4.71649 -8.94957
404 1 6.28903 12.5795 3.1441 -8.9499
405 1 7.86092 14.1533 4.71491 -8.95079
406 1 9.43363 12.5805 3.14262 -8.94813
407 1 11.007 14.1529 4.71508 -8.95
408 1 12.5809 12.5807 3.14176 -8.94984
409 1 14.1544 14.1543 4.71442 -8.94711
410 1 15.7251 12.5796 3.1442 -8.94955
411 1 17.2976 14.1521 4.71678 -8.95009
412 1 18.8695 12.5795 3.14459 -8.94957
413 1 20.4417 14.1519 4.71705 -8.94971
414 1 22.0138 15.7244 3.14466 -8.94965
415 1 1.57201 17.2969 4.71693 -8.94966
416 1 3.14434 15.7245 3.14448 -8.94964
417 1 4.71619 17.2976 4.7162 -8.94885
418 1 6.28885 15.725 3.14379 -8.94977
419 1 7.86172 17.2976 4.71634 -8.9499
420 1 9.43432 15.7251 3.14396 -8.94947
421 1 11.0071 17.2977 4.71624 -8.94949
422 1 12.5797 15.7251 3.14391 -8.94992
423 1 14.1527 17.2979 4.71628 -8.9497
424 1 15.7253 15.7253 3.14386 -8.94891
425 1 17.2973 17.2972 4.71678 -8.9494
426 1 18.8695 15.7245 3.14459 -8.94971
427 1 20.4416 17.2969 4.71705 -8.94965
428 1 -9.15009e-05 18.8692 3.14467 -8.94959
429 1 1.57213 20.4416 4.71702 -8.94955
430 1 3.14437 18.8694 3.14443 -8.94937
431 1 4.71671 20.4418 4.71669 -8.94955
432 1 6.28936 18.8695 3.14437 -8.94972
433 1 7.8619 20.4418 4.71672 -8.94956
434 1 9.43445 18.8696 3.14438 -8.94959
435 1 11.0071 20.4419 4.71671 -8.94957
436 1 12.5796 18.8696 3.14434 -8.94961
437 1 14.1522 20.4419 4.71673 -8.94963
438 1 15.7247 18.8696 3.14441 -8.94959
439 1 17.297 20.4417 4.71697 -8.94957
440 1 18.8693 18.8693 3.14464 -8.94954
441 1 20.4416 20.4416 4.71711 -8.94959
442 1 1.57205 11.007 7.86184 -8.94955
443 1 4.71644 11.007 7.86142 -8.94913
444 1 7.86124 11.007 7.85908 -8.98169
445 1 11.0332 11.007 7.80386 -9.2358
446 1 14.1515 11.007 7.86253 -9.00214
447 1 17.2973 11.007 7.86181 -8.94872
448 1 20.4417 11.007 7.86192 -8.94951
449 1 22.0138 12.5794 6.28945 -8.94965
450 1 1.5719 14.152 7.86186 -8.94984
451 1 3.14416 12.5795 6.28919 -8.94969
452 1 4.71554 14.1527 7.86129 -8.95111
453 1 6.28834 12.5798 6.28814 -8.94951
454 1 7.85576 14.1598 7.85462 -8.9827
455 1 9.43226 12.5827 6.28668 -9.00232
456 1 11.01 14.1557 7.85818 -9.00107
457 1 12.5861 12.5864 6.28183 -8.97959
458 1 14.1553 14.1551 7.85979 -8.94682
459 1 15.7256 12.5796 6.2891 -8.95169
460 1 17.2979 14.1523 7.86174 -8.95019
461 1 18.8696 12.5794 6.28943 -8.94973
462 1 20.4417 14.152 7.86194 -8.94981
463 1 -0.00014117 15.7244 6.28946 -8.94975
464 1 1.57193 17.297 7.86187 -8.94965
465 1 3.14386 15.7247 6.28909 -8.94992
466 1 4.71587 17.2979 7.86122 -8.94912
467 1 6.28715 15.7269 6.28692 -8.94692
468 1 7.86046 17.3004 7.86021 -8.94965
469 1 9.43462 15.7266 6.28843 -8.94975
470 1 11.0081 17.2999 7.86038 -8.94797
471 1 12.5809 15.7269 6.28766 -8.95067
472 1 14.1532 17.2985 7.86121 -8.94971
473 1 15.7258 15.7255 6.28855 -8.94881
474 1 17.2975 17.2973 7.86173 -8.94949
475 1 18.8697 15.7246 6.28938 -8.94971
476 1 20.4417 17.2969 7.86195 -8.94965
477 1 22.0138 18.8693 6.2895 -8.94962
478 1 1.57209 20.4416 7.86194 -8.94961
479 1 3.14417 18.8695 6.28923 -8.94947
480 1 4.71647 20.442 7.86161 -8.94944
481 1 6.28871 18.8703 6.28862 -8.94956
482 1 7.86157 20.4425 7.86141 -8.94998
483 1 9.43447 18.8703 6.28886 -8.9494
484 1 11.0073 20.4424 7.86141 -8.94972
485 1 12.5801 18.8703 6.28872 -8.94958
486 1 14.1525 20.4421 7.86163 -8.94961
487 1 15.725 18.8698 6.28916 -8.94954
488 1 17.2971 20.4417 7.8619 -8.94959
489 1 18.8694 18.8694 6.28946 -8.94959
490 1 20.4416 20.4416 7.86201 -8.94962
491 1 -8.44416e-05 12.5794 9.43442 -8.94966
492 1 3.14407 12.5795 9.43423 -8.9496
493 1 6.28805 12.5802 9.43321 -9.00213
494 1 9.41253 12.6376 9.43383 -9.26428
495 1 12.5882 12.5901 9.4317 -9.0136
496 1 15.7261 12.5798 9.43443 -8.95241
497 1 18.8697 12.5794 9.43443 -8.9499
498 1 -0.000123803 15.7245 9.43444 -8.94977
499 1 3.14374 15.7249 9.43425 -8.94976
500 1 6.28711 15.7277 9.4328 -8.9469
501 1 9.43407 15.7383 9.43388 -8.96575
502 1 12.5811 15.7286 9.43317 -8.95074
503 1 15.726 15.7257 9.43399 -8.94867
504 1 18.8698 15.7247 9.43438 -8.94963
505 1 -0.000109879 18.8693 9.43446 -8.94962
506 1 3.14415 18.8695 9.43437 -8.94962
507 1 6.28839 18.8709 9.43387 -8.94914
508 1 9.43442 18.8727 9.43408 -8.95261
509 1 12.5803 18.871 9.43391 -8.94951
510 1 15.7251 18.8699 9.4343 -8.94958
511 1 18.8694 18.8694 9.43445 -8.94962
688 2 10.1867 11.007 9.39178 0.808059
512 1 1.572 11.007 11.007 -8.94975
513 1 4.71594 11.007 11.007 -8.95109
514 1 7.85591 11.007 11.007 -9.01783
515 1 11.0566 11.007 11.007 -9.4409
516 1 14.15 11.007 11.007 -9.04637
517 1 17.2972 11.007 11.007 -8.94811
518 1 20.4417 11.007 11.007 -8.94946
519 1 1.5719 14.152 11.007 -8.94998
520 1 4.71531 14.1527 11.007 -8.95262
521 1 7.85209 14.1638 11.007 -9.00971
522 1 11.0131 14.1602 11.007 -9.04704
523 1 14.156 14.1558 11.007 -8.94721
524 1 17.2982 14.1525 11.007 -8.95023
525 1 20.4418 14.152 11.007 -8.94988
526 1 1.57195 17.297 11.007 -8.94959
527 1 4.71597 17.2978 11.007 -8.94978
528 1 7.8594 17.3025 11.007 -8.94855
529 1 11.0089 17.302 11.007 -8.94708
530 1 14.1532 17.2986 11.007 -8.9503
531 1 17.2975 17.2973 11.007 -8.94956
532 1 20.4417 17.2969 11.007 -8.94962
533 1 1.57209 20.4416 11.007 -8.94958
534 1 4.71647 20.4419 11.007 -8.94945
535 1 7.86134 20.443 11.007 -8.9503
536 1 11.0075 20.4429 11.007 -8.95004
537 1 14.1525 20.4421 11.007 -8.94971
538 1 17.2971 20.4417 11.007 -8.94957
539 1 20.4416 20.4416 11.007 -8.94961
540 1 1.57205 11.007 14.1521 -8.94955
541 1 4.71644 11.007 14.1525 -8.94913
542 1 7.86124 11.007 14.1548 -8.98169
543 1 11.0332 11.007 14.21 -9.2358
544 1 14.1515 11.007 14.1514 -9.00214
545 1 17.2973 11.007 14.1521 -8.94872
546 1 20.4417 11.007 14.152 -8.94951
547 1 -8.44416e-05 12.5794 12.5795 -8.94966
548 1 1.5719 14.152 14.152 -8.94984
549 1 3.14407 12.5795 12.5797 -8.9496
550 1 4.71554 14.1527 14.1526 -8.95111
551 1 6.28805 12.5802 12.5807 -9.00213
552 1 7.85576 14.1598 14.1593 -8.9827
553 1 9.41253 12.6376 12.5801 -9.26428
554 1 11.01 14.1557 14.1557 -9.00107
555 1 12.5882 12.5901 12.5822 -9.0136
556 1 14.1553 14.1551 14.1541 -8.94682
557 1 15.7261 12.5798 12.5795 -8.95241
558 1 17.2979 14.1523 14.1522 -8.95019
559 1 18.8697 12.5794 12.5795 -8.9499
560 1 20.4417 14.152 14.152 -8.94981
561 1 -0.000123803 15.7245 12.5795 -8.94977
562 1 1.57193 17.297 14.152 -8.94965
563 1 3.14374 15.7249 12.5797 -8.94976
564 1 4.71587 17.2979 14.1527 -8.94912
565 1 6.28711 15.7277 12.5811 -8.9469
566 1 7.86046 17.3004 14.1537 -8.94965
567 1 9.43407 15.7383 12.58 -8.96575
568 1 11.0081 17.2999 14.1535 -8.94797
569 1 12.5811 15.7286 12.5807 -8.95074
570 1 14.1532 17.2985 14.1527 -8.94971
571 1 15.726 15.7257 12.5799 -8.94867
572 1 17.2975 17.2973 14.1522 -8.94949
573 1 18.8698 15.7247 12.5795 -8.94963
574 1 20.4417 17.2969 14.152 -8.94965
575 1 -0.000109879 18.8693 12.5794 -8.94962
576 1 1.57209 20.4416 14.152 -8.94961
577 1 3.14415 18.8695 12.5795 -8.94962
578 1 4.71647 20.442 14.1523 -8.94944
579 1 6.28839 18.8709 12.58 -8.94914
580 1 7.86157 20.4425 14.1525 -8.94998
581 1 9.43442 18.8727 12.5798 -8.95261
582 1 11.0073 20.4424 14.1525 -8.94972
583 1 12.5803 18.871 12.58 -8.94951
584 1 14.1525 20.4421 14.1523 -8.94961
585 1 15.7251 18.8699 12.5796 -8.94958
586 1 17.2971 20.4417 14.152 -8.94959
587 1 18.8694 18.8694 12.5795 -8.94962
588 1 20.4416 20.4416 14.1519 -8.94962
589 1 1.57208 11.007 17.297 -8.94958
590 1 4.71657 11.007 17.2974 -8.9491
591 1 7.86212 11.007 17.2981 -8.95014
592 1 11.0076 11.007 17.3083 -8.96689
593 1 14.153 11.007 17.2983 -8.94862
594 1 17.2974 11.007 17.2972 -8.94946
595 1 20.4416 11.007 17.2969 -8.94964
596 1 22.0138 12.5794 15.7244 -8.94965
597 1 1.57206 14.1519 17.2969 -8.94963
598 1 3.14416 12.5795 15.7247 -8.94969
599 1 4.71637 14.1522 17.2974 -8.94957
600 1 6.28834 12.5798 15.7258 -8.94951
601 1 7.86092 14.1533 17.299 -8.95079
602 1 9.43226 12.5827 15.7272 -9.00232
603 1 11.007 14.1529 17.2988 -8.95
604 1 12.5861 12.5864 15.7321 -8.97959
605 1 14.1544 14.1543 17.2995 -8.94711
606 1 15.7256 12.5796 15.7248 -8.95169
607 1 17.2976 14.1521 17.2971 -8.95009
608 1 18.8696 12.5794 15.7245 -8.94973
609 1 20.4417 14.1519 17.2969 -8.94971
610 1 -0.00014117 15.7244 15.7244 -8.94975
611 1 1.57201 17.2969 17.297 -8.94966
612 1 3.14386 15.7247 15.7248 -8.94992
613 1 4.71619 17.2976 17.2977 -8.94885
614 1 6.28715 15.7269 15.727 -8.94692
615 1 7.86172 17.2976 17.2976 -8.9499
616 1 9.43462 15.7266 15.7255 -8.94975
617 1 11.0071 17.2977 17.2977 -8.94949
618 1 12.5809 15.7269 15.7262 -8.95067
619 1 14.1527 17.2979 17.2976 -8.9497
620 1 15.7258 15.7255 15.7253 -8.94881
621 1 17.2973 17.2972 17.2971 -8.9494
622 1 18.8697 15.7246 15.7245 -8.94971
623 1 20.4416 17.2969 17.2969 -8.94965
624 1 22.0138 18.8693 15.7244 -8.94962
625 1 1.57213 20.4416 17.2969 -8.94955
626 1 3.14417 18.8695 15.7247 -8.94947
627 1 4.71671 20.4418 17.2972 -8.94955
628 1 6.28871 18.8703 15.7253 -8.94956
629 1 7.8619 20.4418 17.2972 -8.94956
630 1 9.43447 18.8703 15.725 -8.9494
631 1 11.0071 20.4419 17.2972 -8.94957
632 1 12.5801 18.8703 15.7252 -8.94958
633 1 14.1522 20.4419 17.2972 -8.94963
634 1 15.725 18.8698 15.7247 -8.94954
635 1 17.297 20.4417 17.2969 -8.94957
636 1 18.8694 18.8694 15.7244 -8.94959
637 1 20.4416 20.4416 17.2968 -8.94959
638 1 1.57218 11.007 20.4416 -8.9496
639 1 4.71674 11.007 20.4418 -8.94958
640 1 7.86163 11.007 20.442 -8.94939
641 1 11.007 11.007 20.4436 -8.95295
642 1 14.1526 11.007 20.4422 -8.94922
643 1 17.2972 11.007 20.4417 -8.94958
644 1 20.4416 11.007 20.4416 -8.9496
645 1 -7.79399e-05 12.5794 18.8692 -8.94961
646 1 1.57218 14.1519 20.4416 -8.94961
647 1 3.14437 12.5795 18.8694 -8.94956
648 1 4.71672 14.152 20.4418 -8.94967
649 1 6.28903 12.5795 18.8698 -8.9499
650 1 7.86141 14.1525 20.4422 -8.94968
651 1 9.43363 12.5805 18.8713 -8.94813
652 1 11.0069 14.1524 20.4422 -8.9495
653 1 12.5809 12.5807 18.8721 -8.94984
654 1 14.1528 14.1527 20.4424 -8.94969
655 1 15.7251 12.5796 18.8697 -8.94955
656 1 17.2972 14.152 20.4417 -8.94962
657 1 18.8695 12.5795 18.8693 -8.94957
658 1 20.4416 14.1519 20.4416 -8.9496
659 1 22.0138 15.7244 18.8692 -8.94965
660 1 1.57219 17.2968 20.4416 -8.94963
661 1 3.14434 15.7245 18.8694 -8.94964
662 1 4.71677 17.2971 20.4418 -8.94959
663 1 6.28885 15.725 18.8701 -8.94977
664 1 7.86185 17.2972 20.4418 -8.94962
665 1 9.43432 15.7251 18.8699 -8.94947
666 1 11.007 17.2972 20.4418 -8.94961
667 1 12.5797 15.7251 18.87 -8.94992
668 1 14.1521 17.2972 20.4418 -8.94973
669 1 15.7253 15.7253 18.87 -8.94891
670 1 17.2972 17.2971 20.4417 -8.94934
671 1 18.8695 15.7245 18.8693 -8.94971
672 1 20.4416 17.2968 20.4416 -8.94962
673 1 -9.15009e-05 18.8692 18.8692 -8.94959
674 1 1.57222 20.4416 20.4416 -8.9495
675 1 3.14437 18.8694 18.8695 -8.94937
676 1 4.71704 20.4416 20.4417 -8.94966
677 1 6.28936 18.8695 18.8695 -8.94972
678 1 7.862 20.4417 20.4417 -8.94962
679 1 9.43445 18.8696 18.8695 -8.94959
680 1 11.007 20.4417 20.4417 -8.94961
681 1 12.5796 18.8696 18.8696 -8.94961
682 1 14.152 20.4417 20.4417 -8.94963
683 1 15.7247 18.8696 18.8695 -8.94959
684 1 17.2969 20.4417 20.4416 -8.94958
685 1 18.8693 18.8693 18.8693 -8.94954
686 1 20.4416 20.4416 20.4416 -8.94953
687 2 10.1867 11.007 12.6221 0.808059
