ITEM: TIMESTEP
46
ITEM: NUMBER OF ATOMS
688
ITEM: BOX BOUNDS pp pp pp
0.0000000000000000e+00 2.2013900999999997e+01
0.0000000000000000e+00 2.2013900999999997e+01
0.0000000000000000e+00 2.2013900999999997e+01
ITEM: ATOMS id type x y z c_pot
1 1 -1.14367e-06 1.2791e-15 -5.77855e-16 -8.94962
2 1 1.57241 1.57242 1.57242 -8.9496
3 1 3.14484 1.27763e-15 -1.30849e-15 -8.94965
4 1 4.71727 1.57242 1.57242 -8.94966
5 1 6.28969 -4.20349e-16 -6.98604e-17 -8.94963
6 1 7.86211 1.57241 1.57241 -8.94963
7 1 9.43453 1.57973e-15 1.10521e-16 -8.94964
8 1 11.007 1.57241 1.57241 -8.94964
9 1 12.5794 3.06743e-16 -6.41047e-16 -8.94964
10 1 14.1518 1.57242 1.57242 -8.94964
11 1 15.7242 -7.49271e-16 4.31563e-16 -8.94964
12 1 17.2966 1.57241 1.57241 -8.94963
13 1 18.8691 4.77031e-16 3.05914e-16 -8.94963
14 1 20.4415 1.57242 1.57242 -8.94963
15 1 22.0139 3.14484 4.20299e-16 -8.94963
16 1 1.57241 4.71725 1.57241 -8.94962
17 1 3.14483 3.14483 5.23276e-16 -8.94961
18 1 4.7172 4.7172 1.57235 -8.94959
19 1 6.28969 3.14483 1.12272e-15 -8.94965
20 1 7.86211 4.7172 1.57237 -8.94964
21 1 9.43453 3.14483 1.04217e-15 -8.94964
22 1 11.007 4.7172 1.57236 -8.94963
23 1 12.5794 3.14483 -1.48631e-16 -8.94963
24 1 14.1518 4.71722 1.57239 -8.94974
25 1 15.7242 3.14484 4.61499e-16 -8.94968
26 1 17.2967 4.7172 1.57237 -8.94946
27 1 18.8691 3.14483 6.08862e-16 -8.94958
28 1 20.4415 4.71726 1.57242 -8.94965
29 1 -4.38606e-06 6.28969 8.34631e-16 -8.94964
30 1 1.5724 7.8621 1.57241 -8.94963
31 1 3.14481 6.28966 9.1411e-16 -8.94963
32 1 4.71716 7.86206 1.57231 -8.94967
33 1 6.28958 6.28956 9.00963e-16 -8.94959
34 1 7.86183 7.86179 1.57201 -8.94965
35 1 9.43454 6.28959 6.56088e-16 -8.9496
36 1 11.0069 7.86193 1.57215 -8.94942
37 1 12.5794 6.28962 -4.5855e-16 -8.94959
38 1 14.1522 7.86174 1.57198 -8.94965
39 1 15.7244 6.28955 8.4686e-16 -8.94953
40 1 17.2967 7.86214 1.57242 -8.9497
41 1 18.8691 6.2897 2.50579e-16 -8.94968
42 1 20.4415 7.86211 1.57242 -8.94963
43 1 22.0139 9.43453 8.09729e-16 -8.94964
44 1 3.14481 9.43452 9.76125e-16 -8.94961
45 1 6.2896 9.43452 2.95958e-15 -8.94975
46 1 9.43429 9.43425 2.60999e-15 -8.94973
47 1 12.5796 9.43427 1.93751e-15 -8.95014
48 1 15.7243 9.43455 1.82967e-15 -8.94952
49 1 18.8691 9.43453 8.77346e-16 -8.94964
50 1 22.0139 2.27571e-16 3.14484 -8.94964
51 1 1.57242 1.57242 4.71727 -8.94963
52 1 3.14482 6.89117e-16 3.14482 -8.9496
53 1 4.71719 1.57234 4.71719 -8.9496
54 1 6.28969 1.12835e-15 3.14484 -8.94964
55 1 7.86211 1.57238 4.71722 -8.94961
56 1 9.43453 1.16979e-15 3.14483 -8.94965
57 1 11.0069 1.57237 4.71721 -8.94962
58 1 12.5794 1.34775e-17 3.14483 -8.94964
59 1 14.1518 1.57233 4.7172 -8.94962
60 1 15.7242 5.99792e-16 3.14483 -8.94962
61 1 17.2967 1.5724 4.71725 -8.94962
62 1 18.8691 1.68232e-15 3.14484 -8.94963
63 1 20.4415 1.57242 4.71726 -8.94963
64 1 -3.44694e-06 3.14484 3.14484 -8.94963
65 1 1.57236 4.71723 4.71724 -8.94966
66 1 3.14479 3.14478 3.14479 -8.94949
67 1 4.7169 4.71687 4.71688 -8.94901
68 1 6.28969 3.1448 3.1448 -8.94973
69 1 7.86213 4.71706 4.71704 -8.94992
70 1 9.43452 3.14477 3.14478 -8.94962
71 1 11.007 4.717 4.71695 -8.94953
72 1 12.5794 3.14479 3.14478 -8.94964
73 1 14.152 4.71681 4.71699 -8.94974
74 1 15.7243 3.14476 3.14479 -8.94963
75 1 17.2968 4.71715 4.71714 -8.94942
76 1 18.8691 3.14483 3.14483 -8.9496
77 1 20.4415 4.71725 4.71725 -8.94963
78 1 22.0139 6.28967 3.14483 -8.94963
79 1 1.57229 7.86205 4.71719 -8.94962
80 1 3.14474 6.28961 3.14476 -8.94956
81 1 4.71675 7.86183 4.71682 -8.94933
82 1 6.28942 6.2894 3.14436 -8.94966
83 1 7.86126 7.86125 4.71555 -8.95056
84 1 9.43452 6.28939 3.14458 -8.9495
85 1 11.0067 7.86179 4.71623 -8.94992
86 1 12.5794 6.28947 3.14464 -8.9499
87 1 14.1535 7.86038 4.71541 -8.94732
88 1 15.7246 6.28931 3.14442 -8.94899
89 1 17.2969 7.86208 4.71718 -8.95003
90 1 18.8691 6.28968 3.14482 -8.94971
91 1 20.4415 7.8621 4.71725 -8.94968
92 1 -1.92173e-05 9.43453 3.14483 -8.94963
93 1 3.14472 9.43449 3.14473 -8.94959
94 1 6.28932 9.43449 3.14433 -8.94996
95 1 9.43372 9.4337 3.14324 -8.9481
96 1 12.5804 9.43356 3.14276 -8.94964
97 1 15.7244 9.43457 3.14478 -8.94965
98 1 18.8691 9.43454 3.14482 -8.9496
99 1 9.85678e-07 3.17543e-16 6.28969 -8.94964
100 1 1.57242 1.57242 7.86211 -8.94966
101 1 3.14482 -4.1004e-16 6.28968 -8.94959
102 1 4.71716 1.57233 7.86205 -8.94952
103 1 6.28961 7.10551e-16 6.28961 -8.94973
104 1 7.86197 1.57205 7.86194 -8.94988
105 1 9.43452 1.0503e-15 6.28963 -8.94959
106 1 11.0071 1.57207 7.86191 -8.94969
107 1 12.5794 8.92701e-16 6.2896 -8.9497
108 1 14.1519 1.57225 7.86204 -8.94967
109 1 15.7242 1.85317e-15 6.28966 -8.94964
110 1 17.2967 1.57239 7.86209 -8.94962
111 1 18.8691 1.92854e-15 6.28968 -8.94963
112 1 20.4415 1.57242 7.86211 -8.94964
113 1 22.0139 3.14484 6.28968 -8.94963
114 1 1.57235 4.71722 7.8621 -8.94965
115 1 3.14477 3.14479 6.28966 -8.94957
116 1 4.71679 4.71688 7.86183 -8.94918
117 1 6.28937 3.14436 6.28934 -8.94962
118 1 7.86118 4.71526 7.86103 -8.94957
119 1 9.43456 3.14451 6.28951 -8.94942
120 1 11.0077 4.71562 7.86112 -8.948
121 1 12.5796 3.14436 6.28938 -8.94961
122 1 14.1524 4.71638 7.86181 -8.94989
123 1 15.7244 3.14466 6.28959 -8.94961
124 1 17.2968 4.71709 7.862 -8.94953
125 1 18.8691 3.14482 6.28967 -8.94962
126 1 20.4415 4.71724 7.86209 -8.94962
127 1 -3.01559e-05 6.28966 6.28967 -8.94968
128 1 1.57216 7.86203 7.86205 -8.94975
129 1 3.14449 6.28953 6.28955 -8.94984
130 1 4.71601 7.8618 7.8617 -8.95087
131 1 6.28805 6.28806 6.28786 -8.94735
132 1 7.85645 7.85637 7.85561 -8.9828
133 1 9.43474 6.2887 6.28932 -8.94987
134 1 11.0093 7.86008 7.85938 -9.0017
135 1 12.5801 6.2881 6.2888 -8.9507
136 1 14.1549 7.85924 7.86023 -8.94623
137 1 15.725 6.28902 6.28908 -8.94864
138 1 17.2974 7.86178 7.8619 -8.95002
139 1 18.8692 6.2896 6.2896 -8.94964
140 1 20.4416 7.86207 7.86207 -8.94978
141 1 22.0138 9.43451 6.28965 -8.94971
142 1 3.14426 9.43444 6.28939 -8.94975
143 1 6.28786 9.43419 6.28802 -8.94904
144 1 9.43187 9.43203 6.28721 -9.00145
145 1 12.5852 9.42839 6.2831 -8.98013
146 1 15.7251 9.43457 6.28962 -8.95152
147 1 18.8692 9.43455 6.28964 -8.94972
148 1 3.12861e-07 1.57718e-15 9.43453 -8.94963
149 1 3.14484 1.84078e-16 9.43454 -8.94964
150 1 6.28955 8.48278e-16 9.43445 -8.94964
151 1 9.43453 7.32882e-16 9.43448 -8.95038
152 1 12.5795 1.7477e-15 9.43445 -8.94969
153 1 15.7243 8.73525e-16 9.43452 -8.94968
154 1 18.8691 1.54377e-15 9.43453 -8.94963
155 1 -3.66376e-08 3.14484 9.43453 -8.94963
156 1 3.14479 3.14482 9.43455 -8.9497
157 1 6.28923 3.14417 9.43423 -8.94917
158 1 9.43457 3.14283 9.43441 -8.95225
159 1 12.5797 3.14403 9.43427 -8.94959
160 1 15.7244 3.14458 9.43448 -8.9496
161 1 18.8691 3.14482 9.43452 -8.94964
162 1 -1.9797e-05 6.28965 9.43452 -8.94969
163 1 3.14442 6.2895 9.43447 -8.94969
164 1 6.28801 6.28787 9.43315 -8.94715
165 1 9.43425 6.27882 9.43443 -8.96519
166 1 12.5804 6.28692 9.43375 -8.95134
167 1 15.7252 6.28882 9.43424 -8.94864
168 1 18.8693 6.28955 9.43448 -8.94958
169 1 -0.000104818 9.4345 9.4345 -8.94975
170 1 3.14403 9.43445 9.43432 -8.94937
171 1 6.28792 9.43475 9.43319 -9.00123
172 1 9.41176 9.38059 9.43441 -9.26633
173 1 12.5896 9.42436 9.43081 -9.0125
174 1 15.7265 9.43407 9.43435 -8.95217
175 1 18.8695 9.43451 9.43447 -8.94999
176 1 1.57242 1.57242 11.007 -8.94964
177 1 4.71719 1.57238 11.007 -8.94953
178 1 7.86182 1.57176 11.007 -8.95014
179 1 11.0072 1.57179 11.007 -8.94981
180 1 14.1519 1.57225 11.007 -8.94976
181 1 17.2967 1.57238 11.007 -8.94961
182 1 20.4415 1.57242 11.007 -8.94964
183 1 1.57236 4.71722 11.007 -8.94958
184 1 4.71692 4.71714 11.007 -8.94985
185 1 7.86023 4.71363 11.007 -8.94863
186 1 11.0084 4.71424 11.007 -8.9468
187 1 14.1525 4.71631 11.007 -8.95027
188 1 17.2969 4.71707 11.007 -8.94958
189 1 20.4415 4.71724 11.007 -8.94962
190 1 1.57213 7.86205 11.007 -8.94988
191 1 4.71568 7.86199 11.007 -8.95263
192 1 7.85273 7.85285 11.007 -9.01052
193 1 11.0124 7.85739 11.007 -9.04986
194 1 14.1557 7.859 11.007 -8.94703
195 1 17.2977 7.86165 11.007 -8.95003
196 1 20.4416 7.86206 11.007 -8.94982
197 1 3.12861e-07 1.31669e-15 12.5794 -8.94963
198 1 1.57242 1.57242 14.1518 -8.94966
199 1 3.14484 2.88891e-16 12.5794 -8.94964
200 1 4.71716 1.57233 14.1519 -8.94952
201 1 6.28955 9.68979e-16 12.5794 -8.94964
202 1 7.86197 1.57205 14.152 -8.94988
203 1 9.43453 1.15562e-15 12.5794 -8.95038
204 1 11.0071 1.57207 14.152 -8.94969
205 1 12.5795 1.98274e-15 12.5795 -8.94969
206 1 14.1519 1.57225 14.1519 -8.94967
207 1 15.7243 9.71607e-16 12.5794 -8.94968
208 1 17.2967 1.57239 14.1518 -8.94962
209 1 18.8691 2.05889e-15 12.5794 -8.94963
210 1 20.4415 1.57242 14.1518 -8.94964
211 1 -3.66376e-08 3.14484 12.5794 -8.94963
212 1 1.57235 4.71722 14.1518 -8.94965
213 1 3.14479 3.14482 12.5794 -8.9497
214 1 4.71679 4.71688 14.1521 -8.94918
215 1 6.28923 3.14417 12.5797 -8.94917
216 1 7.86118 4.71526 14.1529 -8.94957
217 1 9.43457 3.14283 12.5795 -8.95225
218 1 11.0077 4.71562 14.1528 -8.948
219 1 12.5797 3.14403 12.5796 -8.94959
220 1 14.1524 4.71638 14.1521 -8.94989
221 1 15.7244 3.14458 12.5794 -8.9496
222 1 17.2968 4.71709 14.1519 -8.94953
223 1 18.8691 3.14482 12.5794 -8.94964
224 1 20.4415 4.71724 14.1518 -8.94962
225 1 -1.9797e-05 6.28965 12.5794 -8.94969
226 1 1.57216 7.86203 14.1518 -8.94975
227 1 3.14442 6.2895 12.5794 -8.94969
228 1 4.71601 7.8618 14.1522 -8.95087
229 1 6.28801 6.28787 12.5807 -8.94715
230 1 7.85645 7.85637 14.1583 -8.9828
231 1 9.43425 6.27882 12.5795 -8.96519
232 1 11.0093 7.86008 14.1545 -9.0017
233 1 12.5804 6.28692 12.5802 -8.95134
234 1 14.1549 7.85924 14.1537 -8.94623
235 1 15.7252 6.28882 12.5797 -8.94864
236 1 17.2974 7.86178 14.152 -8.95002
237 1 18.8693 6.28955 12.5794 -8.94958
238 1 20.4416 7.86207 14.1518 -8.94978
239 1 -0.000104818 9.4345 12.5794 -8.94975
240 1 3.14403 9.43445 12.5796 -8.94937
241 1 6.28792 9.43475 12.5807 -9.00123
242 1 9.41176 9.38059 12.5795 -9.26633
243 1 12.5896 9.42436 12.5831 -9.0125
244 1 15.7265 9.43407 12.5795 -8.95217
245 1 18.8695 9.43451 12.5794 -8.94999
246 1 9.85678e-07 -1.98042e-16 15.7242 -8.94964
247 1 1.57242 1.57242 17.2966 -8.94963
248 1 3.14482 7.87649e-17 15.7242 -8.94959
249 1 4.71719 1.57234 17.2967 -8.9496
250 1 6.28961 1.0587e-15 15.7243 -8.94973
251 1 7.86211 1.57238 17.2967 -8.94961
252 1 9.43452 8.52201e-16 15.7243 -8.94959
253 1 11.0069 1.57237 17.2967 -8.94962
254 1 12.5794 1.88669e-15 15.7243 -8.9497
255 1 14.1518 1.57233 17.2967 -8.94962
256 1 15.7242 2.06347e-16 15.7242 -8.94964
257 1 17.2967 1.5724 17.2967 -8.94962
258 1 18.8691 1.69487e-15 15.7242 -8.94963
259 1 20.4415 1.57242 17.2966 -8.94963
260 1 22.0139 3.14484 15.7242 -8.94963
261 1 1.57236 4.71723 17.2967 -8.94966
262 1 3.14477 3.14479 15.7242 -8.94957
263 1 4.7169 4.71687 17.297 -8.94901
264 1 6.28937 3.14436 15.7246 -8.94962
265 1 7.86213 4.71706 17.2969 -8.94992
266 1 9.43456 3.14451 15.7244 -8.94942
267 1 11.007 4.717 17.2969 -8.94953
268 1 12.5796 3.14436 15.7245 -8.94961
269 1 14.152 4.71681 17.2969 -8.94974
270 1 15.7244 3.14466 15.7243 -8.94961
271 1 17.2968 4.71715 17.2968 -8.94942
272 1 18.8691 3.14482 15.7242 -8.94962
273 1 20.4415 4.71725 17.2967 -8.94963
274 1 -3.01559e-05 6.28966 15.7242 -8.94968
275 1 1.57229 7.86205 17.2967 -8.94962
276 1 3.14449 6.28953 15.7243 -8.94984
277 1 4.71675 7.86183 17.2971 -8.94933
278 1 6.28805 6.28806 15.726 -8.94735
279 1 7.86126 7.86125 17.2983 -8.95056
280 1 9.43474 6.2887 15.7246 -8.94987
281 1 11.0067 7.86179 17.2977 -8.94992
282 1 12.5801 6.2881 15.7251 -8.9507
283 1 14.1535 7.86038 17.2985 -8.94732
284 1 15.725 6.28902 15.7248 -8.94864
285 1 17.2969 7.86208 17.2967 -8.95003
286 1 18.8692 6.2896 15.7243 -8.94964
287 1 20.4415 7.8621 17.2967 -8.94968
288 1 22.0138 9.43451 15.7243 -8.94971
289 1 3.14426 9.43444 15.7245 -8.94975
290 1 6.28786 9.43419 15.7259 -8.94904
291 1 9.43187 9.43203 15.7267 -9.00145
292 1 12.5852 9.42839 15.7308 -8.98013
293 1 15.7251 9.43457 15.7243 -8.95152
294 1 18.8692 9.43455 15.7243 -8.94972
295 1 22.0139 4.67429e-16 18.8691 -8.94964
296 1 1.57241 1.57242 20.4415 -8.9496
297 1 3.14482 8.49429e-16 18.8691 -8.9496
298 1 4.71727 1.57242 20.4415 -8.94966
299 1 6.28969 1.45653e-15 18.8691 -8.94964
300 1 7.86211 1.57241 20.4415 -8.94963
301 1 9.43453 1.28906e-15 18.8691 -8.94965
302 1 11.007 1.57241 20.4415 -8.94964
303 1 12.5794 2.4068e-16 18.8691 -8.94964
304 1 14.1518 1.57242 20.4415 -8.94964
305 1 15.7242 9.55552e-16 18.8691 -8.94962
306 1 17.2966 1.57241 20.4415 -8.94963
307 1 18.8691 4.11091e-16 18.8691 -8.94963
308 1 20.4415 1.57242 20.4415 -8.94963
309 1 -3.44694e-06 3.14484 18.8691 -8.94963
310 1 1.57241 4.71725 20.4415 -8.94962
311 1 3.14479 3.14478 18.8691 -8.94949
312 1 4.7172 4.7172 20.4416 -8.94959
313 1 6.28969 3.1448 18.8691 -8.94973
314 1 7.86211 4.7172 20.4415 -8.94964
315 1 9.43452 3.14477 18.8691 -8.94962
316 1 11.007 4.7172 20.4415 -8.94963
317 1 12.5794 3.14479 18.8691 -8.94964
318 1 14.1518 4.71722 20.4415 -8.94974
319 1 15.7243 3.14476 18.8691 -8.94963
320 1 17.2967 4.7172 20.4415 -8.94946
321 1 18.8691 3.14483 18.8691 -8.9496
322 1 20.4415 4.71726 20.4415 -8.94965
323 1 22.0139 6.28967 18.8691 -8.94963
324 1 1.5724 7.8621 20.4415 -8.94963
325 1 3.14474 6.28961 18.8691 -8.94956
326 1 4.71716 7.86206 20.4416 -8.94967
327 1 6.28942 6.2894 18.8695 -8.94966
328 1 7.86183 7.86179 20.4419 -8.94965
329 1 9.43452 6.28939 18.8693 -8.9495
330 1 11.0069 7.86193 20.4417 -8.94942
331 1 12.5794 6.28947 18.8693 -8.9499
332 1 14.1522 7.86174 20.4419 -8.94965
333 1 15.7246 6.28931 18.8695 -8.94899
334 1 17.2967 7.86214 20.4415 -8.9497
335 1 18.8691 6.28968 18.8691 -8.94971
336 1 20.4415 7.86211 20.4415 -8.94963
337 1 -1.92173e-05 9.43453 18.8691 -8.94963
338 1 3.14472 9.43449 18.8692 -8.94959
339 1 6.28932 9.43449 18.8696 -8.94996
340 1 9.43372 9.4337 18.8707 -8.9481
341 1 12.5804 9.43356 18.8711 -8.94964
342 1 15.7244 9.43457 18.8691 -8.94965
343 1 18.8691 9.43454 18.8691 -8.9496
344 1 1.5724 11.007 1.57241 -8.94964
345 1 4.71715 11.007 1.57228 -8.94959
346 1 7.86199 11.007 1.57209 -8.94958
347 1 11.0069 11.007 1.57077 -8.95294
348 1 14.152 11.007 1.57219 -8.9492
349 1 17.2967 11.007 1.5724 -8.94965
350 1 20.4415 11.007 1.57242 -8.94964
351 1 22.0139 12.5794 7.03726e-16 -8.94964
352 1 1.5724 14.1518 1.57241 -8.94963
353 1 3.14481 12.5794 6.17927e-16 -8.94961
354 1 4.71716 14.1518 1.57231 -8.94967
355 1 6.2896 12.5794 9.92386e-16 -8.94975
356 1 7.86183 14.1521 1.57201 -8.94965
357 1 9.43429 12.5797 2.48996e-15 -8.94973
358 1 11.0069 14.152 1.57215 -8.94942
359 1 12.5796 12.5796 2.48959e-15 -8.95014
360 1 14.1522 14.1522 1.57198 -8.94965
361 1 15.7243 12.5794 2.15075e-16 -8.94952
362 1 17.2967 14.1518 1.57242 -8.9497
363 1 18.8691 12.5794 5.36208e-16 -8.94964
364 1 20.4415 14.1518 1.57242 -8.94963
365 1 -4.38606e-06 15.7242 1.53415e-15 -8.94964
366 1 1.57241 17.2966 1.57241 -8.94962
367 1 3.14481 15.7242 2.93755e-15 -8.94963
368 1 4.7172 17.2967 1.57235 -8.94959
369 1 6.28958 15.7243 9.2303e-16 -8.94959
370 1 7.86211 17.2967 1.57237 -8.94964
371 1 9.43454 15.7243 1.94082e-15 -8.9496
372 1 11.007 17.2967 1.57236 -8.94963
373 1 12.5794 15.7243 1.78187e-15 -8.94959
374 1 14.1518 17.2967 1.57239 -8.94974
375 1 15.7244 15.7244 1.11917e-15 -8.94953
376 1 17.2967 17.2967 1.57237 -8.94946
377 1 18.8691 15.7242 6.55151e-17 -8.94968
378 1 20.4415 17.2966 1.57242 -8.94965
379 1 22.0139 18.8691 -2.62441e-16 -8.94963
380 1 1.57241 20.4415 1.57242 -8.9496
381 1 3.14483 18.8691 6.09389e-16 -8.94961
382 1 4.71727 20.4415 1.57242 -8.94966
383 1 6.28969 18.8691 1.09199e-15 -8.94965
384 1 7.86211 20.4415 1.57241 -8.94963
385 1 9.43453 18.8691 8.46524e-16 -8.94964
386 1 11.007 20.4415 1.57241 -8.94964
387 1 12.5794 18.8691 -2.2823e-16 -8.94963
388 1 14.1518 20.4415 1.57242 -8.94964
389 1 15.7242 18.8691 6.98893e-16 -8.94968
390 1 17.2966 20.4415 1.57241 -8.94963
391 1 18.8691 18.8691 9.23375e-16 -8.94958
392 1 20.4415 20.4415 1.57242 -8.94963
393 1 1.57227 11.007 4.71718 -8.9496
394 1 4.7167 11.007 4.71669 -8.94902
395 1 7.86188 11.007 4.71594 -8.95051
396 1 11.0073 11.007 4.70645 -8.96629
397 1 14.1523 11.007 4.71662 -8.94874
398 1 17.2968 11.007 4.71713 -8.94942
399 1 20.4415 11.007 4.71724 -8.94965
400 1 -1.92173e-05 12.5794 3.14483 -8.94963
401 1 1.57229 14.1518 4.71719 -8.94962
402 1 3.14472 12.5794 3.14473 -8.94959
403 1 4.71675 14.1521 4.71682 -8.94933
404 1 6.28932 12.5794 3.14433 -8.94996
405 1 7.86126 14.1526 4.71555 -8.95056
406 1 9.43372 12.5802 3.14324 -8.9481
407 1 11.0067 14.1521 4.71623 -8.94992
408 1 12.5804 12.5803 3.14276 -8.94964
409 1 14.1535 14.1535 4.71541 -8.94732
410 1 15.7244 12.5793 3.14478 -8.94965
411 1 17.2969 14.1518 4.71718 -8.95003
412 1 18.8691 12.5794 3.14482 -8.9496
413 1 20.4415 14.1518 4.71725 -8.94968
414 1 22.0139 15.7242 3.14483 -8.94963
415 1 1.57236 17.2967 4.71724 -8.94966
416 1 3.14474 15.7243 3.14476 -8.94956
417 1 4.7169 17.297 4.71688 -8.94901
418 1 6.28942 15.7245 3.14436 -8.94966
419 1 7.86213 17.2968 4.71704 -8.94992
420 1 9.43452 15.7245 3.14458 -8.9495
421 1 11.007 17.2969 4.71695 -8.94953
422 1 12.5794 15.7244 3.14464 -8.9499
423 1 14.152 17.2971 4.71699 -8.94974
424 1 15.7246 15.7246 3.14442 -8.94899
425 1 17.2968 17.2968 4.71714 -8.94942
426 1 18.8691 15.7242 3.14482 -8.94971
427 1 20.4415 17.2967 4.71725 -8.94963
428 1 -3.44694e-06 18.8691 3.14484 -8.94963
429 1 1.57242 20.4415 4.71727 -8.94963
430 1 3.14479 18.8691 3.14479 -8.94949
431 1 4.71719 20.4416 4.71719 -8.9496
432 1 6.28969 18.8691 3.1448 -8.94973
433 1 7.86211 20.4415 4.71722 -8.94961
434 1 9.43452 18.8691 3.14478 -8.94962
435 1 11.0069 20.4415 4.71721 -8.94962
436 1 12.5794 18.8691 3.14478 -8.94964
437 1 14.1518 20.4416 4.7172 -8.94962
438 1 15.7243 18.8691 3.14479 -8.94963
439 1 17.2967 20.4415 4.71725 -8.94962
440 1 18.8691 18.8691 3.14483 -8.9496
441 1 20.4415 20.4415 4.71726 -8.94963
442 1 1.57204 11.007 7.86203 -8.94973
443 1 4.7158 11.007 7.86142 -8.94968
444 1 7.8587 11.007 7.85785 -8.98219
445 1 11.0319 11.007 7.80472 -9.23365
446 1 14.1517 11.007 7.86292 -9.00158
447 1 17.2971 11.007 7.86198 -8.94869
448 1 20.4415 11.007 7.86206 -8.94962
449 1 22.0138 12.5794 6.28965 -8.94971
450 1 1.57216 14.1519 7.86205 -8.94975
451 1 3.14426 12.5795 6.28939 -8.94975
452 1 4.71601 14.1521 7.8617 -8.95087
453 1 6.28786 12.5797 6.28802 -8.94904
454 1 7.85645 14.1575 7.85561 -8.9828
455 1 9.43187 12.5819 6.28721 -9.00145
456 1 11.0093 14.1538 7.85938 -9.0017
457 1 12.5852 12.5855 6.2831 -8.98013
458 1 14.1549 14.1547 7.86023 -8.94623
459 1 15.7251 12.5793 6.28962 -8.95152
460 1 17.2974 14.1521 7.8619 -8.95002
461 1 18.8692 12.5794 6.28964 -8.94972
462 1 20.4416 14.1518 7.86207 -8.94978
463 1 -3.01559e-05 15.7242 6.28967 -8.94968
464 1 1.57235 17.2967 7.8621 -8.94965
465 1 3.14449 15.7244 6.28955 -8.94984
466 1 4.71679 17.297 7.86183 -8.94918
467 1 6.28805 15.7258 6.28786 -8.94735
468 1 7.86118 17.2986 7.86103 -8.94957
469 1 9.43474 15.7252 6.28932 -8.94987
470 1 11.0077 17.2983 7.86112 -8.948
471 1 12.5801 15.7258 6.2888 -8.9507
472 1 14.1524 17.2975 7.86181 -8.94989
473 1 15.725 15.7249 6.28908 -8.94864
474 1 17.2968 17.2968 7.862 -8.94953
475 1 18.8692 15.7243 6.2896 -8.94964
476 1 20.4415 17.2967 7.86209 -8.94962
477 1 22.0139 18.8691 6.28968 -8.94963
478 1 1.57242 20.4415 7.86211 -8.94966
479 1 3.14477 18.8691 6.28966 -8.94957
480 1 4.71716 20.4416 7.86205 -8.94952
481 1 6.28937 18.8695 6.28934 -8.94962
482 1 7.86197 20.4418 7.86194 -8.94988
483 1 9.43456 18.8694 6.28951 -8.94942
484 1 11.0071 20.4418 7.86191 -8.94969
485 1 12.5796 18.8695 6.28938 -8.94961
486 1 14.1519 20.4416 7.86204 -8.94967
487 1 15.7244 18.8692 6.28959 -8.94961
488 1 17.2967 20.4415 7.86209 -8.94962
489 1 18.8691 18.8691 6.28967 -8.94962
490 1 20.4415 20.4415 7.86211 -8.94964
491 1 -0.000104818 12.5794 9.4345 -8.94975
492 1 3.14403 12.5794 9.43432 -8.94937
493 1 6.28792 12.5791 9.43319 -9.00123
494 1 9.41176 12.6333 9.43441 -9.26633
495 1 12.5896 12.5895 9.43081 -9.0125
496 1 15.7265 12.5798 9.43435 -8.95217
497 1 18.8695 12.5794 9.43447 -8.94999
498 1 -1.9797e-05 15.7243 9.43452 -8.94969
499 1 3.14442 15.7244 9.43447 -8.94969
500 1 6.28801 15.726 9.43315 -8.94715
501 1 9.43425 15.7351 9.43443 -8.96519
502 1 12.5804 15.727 9.43375 -8.95134
503 1 15.7252 15.7251 9.43424 -8.94864
504 1 18.8693 15.7244 9.43448 -8.94958
505 1 -3.66376e-08 18.8691 9.43453 -8.94963
506 1 3.14479 18.8691 9.43455 -8.9497
507 1 6.28923 18.8697 9.43423 -8.94917
508 1 9.43457 18.8711 9.43441 -8.95225
509 1 12.5797 18.8699 9.43427 -8.94959
510 1 15.7244 18.8693 9.43448 -8.9496
511 1 18.8691 18.8691 9.43452 -8.94964
688 2 10.1999 11.007 9.4045 0.815821
512 1 1.57193 11.007 11.007 -8.94997
513 1 4.71515 11.007 11.007 -8.9513
514 1 7.85423 11.007 11.007 -9.01341
515 1 11.0635 11.007 11.007 -9.44593
516 1 14.1533 11.007 11.007 -9.05028
517 1 17.2976 11.007 11.007 -8.949
518 1 20.4416 11.007 11.007 -8.94973
519 1 1.57213 14.1519 11.007 -8.94988
520 1 4.71568 14.1519 11.007 -8.95263
521 1 7.85273 14.161 11.007 -9.01052
522 1 11.0124 14.1565 11.007 -9.04986
523 1 14.1557 14.1549 11.007 -8.94703
524 1 17.2977 14.1522 11.007 -8.95003
525 1 20.4416 14.1518 11.007 -8.94982
526 1 1.57236 17.2967 11.007 -8.94958
527 1 4.71692 17.2968 11.007 -8.94985
528 1 7.86023 17.3003 11.007 -8.94863
529 1 11.0084 17.2997 11.007 -8.9468
530 1 14.1525 17.2976 11.007 -8.95027
531 1 17.2969 17.2968 11.007 -8.94958
532 1 20.4415 17.2967 11.007 -8.94962
533 1 1.57242 20.4415 11.007 -8.94964
534 1 4.71719 20.4415 11.007 -8.94953
535 1 7.86182 20.4421 11.007 -8.95014
536 1 11.0072 20.4421 11.007 -8.94981
537 1 14.1519 20.4417 11.007 -8.94976
538 1 17.2967 20.4415 11.007 -8.94961
539 1 20.4415 20.4415 11.007 -8.94964
540 1 1.57204 11.007 14.1519 -8.94973
541 1 4.7158 11.007 14.1525 -8.94968
542 1 7.8587 11.007 14.1561 -8.98219
543 1 11.0319 11.007 14.2092 -9.23365
544 1 14.1517 11.007 14.151 -9.00158
545 1 17.2971 11.007 14.1519 -8.94869
546 1 20.4415 11.007 14.1518 -8.94962
547 1 -0.000104818 12.5794 12.5794 -8.94975
548 1 1.57216 14.1519 14.1518 -8.94975
549 1 3.14403 12.5794 12.5796 -8.94937
550 1 4.71601 14.1521 14.1522 -8.95087
551 1 6.28792 12.5791 12.5807 -9.00123
552 1 7.85645 14.1575 14.1583 -8.9828
553 1 9.41176 12.6333 12.5795 -9.26633
554 1 11.0093 14.1538 14.1545 -9.0017
555 1 12.5896 12.5895 12.5831 -9.0125
556 1 14.1549 14.1547 14.1537 -8.94623
557 1 15.7265 12.5798 12.5795 -8.95217
558 1 17.2974 14.1521 14.152 -8.95002
559 1 18.8695 12.5794 12.5794 -8.94999
560 1 20.4416 14.1518 14.1518 -8.94978
561 1 -1.9797e-05 15.7243 12.5794 -8.94969
562 1 1.57235 17.2967 14.1518 -8.94965
563 1 3.14442 15.7244 12.5794 -8.94969
564 1 4.71679 17.297 14.1521 -8.94918
565 1 6.28801 15.726 12.5807 -8.94715
566 1 7.86118 17.2986 14.1529 -8.94957
567 1 9.43425 15.7351 12.5795 -8.96519
568 1 11.0077 17.2983 14.1528 -8.948
569 1 12.5804 15.727 12.5802 -8.95134
570 1 14.1524 17.2975 14.1521 -8.94989
571 1 15.7252 15.7251 12.5797 -8.94864
572 1 17.2968 17.2968 14.1519 -8.94953
573 1 18.8693 15.7244 12.5794 -8.94958
574 1 20.4415 17.2967 14.1518 -8.94962
575 1 -3.66376e-08 18.8691 12.5794 -8.94963
576 1 1.57242 20.4415 14.1518 -8.94966
577 1 3.14479 18.8691 12.5794 -8.9497
578 1 4.71716 20.4416 14.1519 -8.94952
579 1 6.28923 18.8697 12.5797 -8.94917
580 1 7.86197 20.4418 14.152 -8.94988
581 1 9.43457 18.8711 12.5795 -8.95225
582 1 11.0071 20.4418 14.152 -8.94969
583 1 12.5797 18.8699 12.5796 -8.94959
584 1 14.1519 20.4416 14.1519 -8.94967
585 1 15.7244 18.8693 12.5794 -8.9496
586 1 17.2967 20.4415 14.1518 -8.94962
587 1 18.8691 18.8691 12.5794 -8.94964
588 1 20.4415 20.4415 14.1518 -8.94964
589 1 1.57227 11.007 17.2967 -8.9496
590 1 4.7167 11.007 17.2972 -8.94902
591 1 7.86188 11.007 17.298 -8.95051
592 1 11.0073 11.007 17.3075 -8.96629
593 1 14.1523 11.007 17.2973 -8.94874
594 1 17.2968 11.007 17.2968 -8.94942
595 1 20.4415 11.007 17.2967 -8.94965
596 1 22.0138 12.5794 15.7243 -8.94971
597 1 1.57229 14.1518 17.2967 -8.94962
598 1 3.14426 12.5795 15.7245 -8.94975
599 1 4.71675 14.1521 17.2971 -8.94933
600 1 6.28786 12.5797 15.7259 -8.94904
601 1 7.86126 14.1526 17.2983 -8.95056
602 1 9.43187 12.5819 15.7267 -9.00145
603 1 11.0067 14.1521 17.2977 -8.94992
604 1 12.5852 12.5855 15.7308 -8.98013
605 1 14.1535 14.1535 17.2985 -8.94732
606 1 15.7251 12.5793 15.7243 -8.95152
607 1 17.2969 14.1518 17.2967 -8.95003
608 1 18.8692 12.5794 15.7243 -8.94972
609 1 20.4415 14.1518 17.2967 -8.94968
610 1 -3.01559e-05 15.7242 15.7242 -8.94968
611 1 1.57236 17.2967 17.2967 -8.94966
612 1 3.14449 15.7244 15.7243 -8.94984
613 1 4.7169 17.297 17.297 -8.94901
614 1 6.28805 15.7258 15.726 -8.94735
615 1 7.86213 17.2968 17.2969 -8.94992
616 1 9.43474 15.7252 15.7246 -8.94987
617 1 11.007 17.2969 17.2969 -8.94953
618 1 12.5801 15.7258 15.7251 -8.9507
619 1 14.152 17.2971 17.2969 -8.94974
620 1 15.725 15.7249 15.7248 -8.94864
621 1 17.2968 17.2968 17.2968 -8.94942
622 1 18.8692 15.7243 15.7243 -8.94964
623 1 20.4415 17.2967 17.2967 -8.94963
624 1 22.0139 18.8691 15.7242 -8.94963
625 1 1.57242 20.4415 17.2966 -8.94963
626 1 3.14477 18.8691 15.7242 -8.94957
627 1 4.71719 20.4416 17.2967 -8.9496
628 1 6.28937 18.8695 15.7246 -8.94962
629 1 7.86211 20.4415 17.2967 -8.94961
630 1 9.43456 18.8694 15.7244 -8.94942
631 1 11.0069 20.4415 17.2967 -8.94962
632 1 12.5796 18.8695 15.7245 -8.94961
633 1 14.1518 20.4416 17.2967 -8.94962
634 1 15.7244 18.8692 15.7243 -8.94961
635 1 17.2967 20.4415 17.2967 -8.94962
636 1 18.8691 18.8691 15.7242 -8.94962
637 1 20.4415 20.4415 17.2966 -8.94963
638 1 1.5724 11.007 20.4415 -8.94964
639 1 4.71715 11.007 20.4416 -8.94959
640 1 7.86199 11.007 20.4418 -8.94958
641 1 11.0069 11.007 20.4431 -8.95294
642 1 14.152 11.007 20.4417 -8.9492
643 1 17.2967 11.007 20.4415 -8.94965
644 1 20.4415 11.007 20.4415 -8.94964
645 1 -1.92173e-05 12.5794 18.8691 -8.94963
646 1 1.5724 14.1518 20.4415 -8.94963
647 1 3.14472 12.5794 18.8692 -8.94959
648 1 4.71716 14.1518 20.4416 -8.94967
649 1 6.28932 12.5794 18.8696 -8.94996
650 1 7.86183 14.1521 20.4419 -8.94965
651 1 9.43372 12.5802 18.8707 -8.9481
652 1 11.0069 14.152 20.4417 -8.94942
653 1 12.5804 12.5803 18.8711 -8.94964
654 1 14.1522 14.1522 20.4419 -8.94965
655 1 15.7244 12.5793 18.8691 -8.94965
656 1 17.2967 14.1518 20.4415 -8.9497
657 1 18.8691 12.5794 18.8691 -8.9496
658 1 20.4415 14.1518 20.4415 -8.94963
659 1 22.0139 15.7242 18.8691 -8.94963
660 1 1.57241 17.2966 20.4415 -8.94962
661 1 3.14474 15.7243 18.8691 -8.94956
662 1 4.7172 17.2967 20.4416 -8.94959
663 1 6.28942 15.7245 18.8695 -8.94966
664 1 7.86211 17.2967 20.4415 -8.94964
665 1 9.43452 15.7245 18.8693 -8.9495
666 1 11.007 17.2967 20.4415 -8.94963
667 1 12.5794 15.7244 18.8693 -8.9499
668 1 14.1518 17.2967 20.4415 -8.94974
669 1 15.7246 15.7246 18.8695 -8.94899
670 1 17.2967 17.2967 20.4415 -8.94946
671 1 18.8691 15.7242 18.8691 -8.94971
672 1 20.4415 17.2966 20.4415 -8.94965
673 1 -3.44694e-06 18.8691 18.8691 -8.94963
674 1 1.57241 20.4415 20.4415 -8.9496
675 1 3.14479 18.8691 18.8691 -8.94949
676 1 4.71727 20.4415 20.4415 -8.94966
677 1 6.28969 18.8691 18.8691 -8.94973
678 1 7.86211 20.4415 20.4415 -8.94963
679 1 9.43452 18.8691 18.8691 -8.94962
680 1 11.007 20.4415 20.4415 -8.94964
681 1 12.5794 18.8691 18.8691 -8.94964
682 1 14.1518 20.4415 20.4415 -8.94964
683 1 15.7243 18.8691 18.8691 -8.94963
684 1 17.2966 20.4415 20.4415 -8.94963
685 1 18.8691 18.8691 18.8691 -8.9496
686 1 20.4415 20.4415 20.4415 -8.94963
687 2 10.1999 11.007 12.6094 0.815821
