ITEM: TIMESTEP
114
ITEM: NUMBER OF ATOMS
688
ITEM: BOX BOUNDS pp pp pp
0.0000000000000000e+00 2.2013900999999997e+01
0.0000000000000000e+00 2.2013900999999997e+01
0.0000000000000000e+00 2.2013900999999997e+01
ITEM: ATOMS id type x y z c_pot
1 1 -8.55931e-05 -3.13846e-14 -1.34585e-14 -8.94947
2 1 1.57208 1.57235 1.57221 -8.94948
3 1 3.14443 1.42636e-14 3.35648e-15 -8.94961
4 1 4.7168 1.57225 1.57212 -8.94964
5 1 6.28935 2.83639e-14 2.75816e-14 -8.94961
6 1 7.86189 1.57218 1.5721 -8.94961
7 1 9.43451 3.26091e-14 7.10765e-14 -8.94961
8 1 11.0071 1.57216 1.57209 -8.9496
9 1 12.5797 -9.86934e-15 -1.13436e-14 -8.94961
10 1 14.1523 1.57218 1.57212 -8.94962
11 1 15.7248 8.72574e-16 3.19173e-14 -8.94962
12 1 17.2972 1.57225 1.5722 -8.94957
13 1 18.8695 -7.40532e-14 -8.92628e-14 -8.94952
14 1 20.4417 1.57237 1.57229 -8.94952
15 1 22.0139 3.14482 3.98224e-14 -8.94958
16 1 1.57218 4.71721 1.57226 -8.94963
17 1 3.14439 3.14465 -1.53061e-14 -8.94957
18 1 4.71667 4.71684 1.57203 -8.9496
19 1 6.28931 3.14449 -1.84578e-14 -8.94964
20 1 7.86183 4.71663 1.57201 -8.94963
21 1 9.4345 3.14441 2.70416e-14 -8.94961
22 1 11.0071 4.7166 1.57198 -8.94961
23 1 12.5797 3.14441 -7.95636e-14 -8.94962
24 1 14.1524 4.71663 1.57202 -8.94973
25 1 15.7249 3.14448 3.42081e-14 -8.94966
26 1 17.2975 4.71681 1.57214 -8.94934
27 1 18.8696 3.14467 -1.21432e-14 -8.94945
28 1 20.4418 4.71721 1.57231 -8.94962
29 1 7.26166e-05 6.28971 4.96262e-15 -8.94961
30 1 1.57233 7.86212 1.57233 -8.94961
31 1 3.14452 6.28959 4.15973e-15 -8.94965
32 1 4.71687 7.86195 1.57217 -8.94967
33 1 6.28914 6.28915 -1.32581e-14 -8.94968
34 1 7.86156 7.86135 1.57171 -8.9497
35 1 9.43443 6.28901 8.85144e-14 -8.94959
36 1 11.0071 7.86139 1.57167 -8.94951
37 1 12.5798 6.28901 -1.35159e-14 -8.94961
38 1 14.153 7.86118 1.57153 -8.94969
39 1 15.7252 6.28901 3.17875e-14 -8.9495
40 1 17.2974 7.86191 1.57224 -8.94961
41 1 18.8696 6.28958 -1.8492e-14 -8.94963
42 1 20.4418 7.86211 1.57235 -8.9496
43 1 22.014 9.43455 2.26402e-14 -8.94961
44 1 3.14465 9.43452 -2.46999e-15 -8.94958
45 1 6.28936 9.4344 -1.76954e-14 -8.94962
46 1 9.43423 9.434 3.56207e-14 -8.94972
47 1 12.5802 9.43397 -4.84417e-14 -8.95026
48 1 15.7251 9.43433 1.4072e-14 -8.94941
49 1 18.8696 9.4345 -2.56679e-17 -8.94958
50 1 22.0138 5.52871e-14 3.14459 -8.94953
51 1 1.57194 1.57229 4.71684 -8.94953
52 1 3.14425 -1.8614e-14 3.14434 -8.9495
53 1 4.71642 1.57199 4.71642 -8.94952
54 1 6.28924 -2.09927e-15 3.14426 -8.9496
55 1 7.86176 1.57193 4.7164 -8.94955
56 1 9.4345 -1.0708e-16 3.14424 -8.9496
57 1 11.0072 1.5719 4.71639 -8.94956
58 1 12.5798 -5.73158e-14 3.14426 -8.9496
59 1 14.1526 1.57194 4.71648 -8.94961
60 1 15.7249 8.54027e-14 3.14436 -8.94958
61 1 17.2973 1.5722 4.71682 -8.94956
62 1 18.8695 -4.1282e-14 3.14458 -8.94955
63 1 20.4416 1.57235 4.717 -8.94957
64 1 -0.00010308 3.14476 3.14459 -8.94958
65 1 1.57193 4.71704 4.71685 -8.94966
66 1 3.14419 3.1445 3.14429 -8.94936
67 1 4.71605 4.71616 4.71603 -8.94881
68 1 6.28918 3.1443 3.14415 -8.94971
69 1 7.86168 4.71596 4.71609 -8.9499
70 1 9.43449 3.14417 3.14414 -8.94958
71 1 11.0073 4.7159 4.716 -8.94949
72 1 12.5798 3.1442 3.14414 -8.94961
73 1 14.1529 4.71586 4.71611 -8.94969
74 1 15.725 3.14429 3.14427 -8.94958
75 1 17.2976 4.71673 4.71672 -8.94943
76 1 18.8696 3.14465 3.14457 -8.94953
77 1 20.4417 4.71715 4.71702 -8.94966
78 1 22.0139 6.28968 3.14468 -8.94964
79 1 1.57219 7.86207 4.71703 -8.94963
80 1 3.14438 6.28949 3.14445 -8.94966
81 1 4.71657 7.86167 4.71655 -8.9496
82 1 6.28889 6.2888 3.14372 -8.94979
83 1 7.86106 7.86034 4.71488 -8.95085
84 1 9.43443 6.28858 3.14385 -8.94948
85 1 11.007 7.86078 4.71508 -8.95005
86 1 12.5799 6.28865 3.1438 -8.94994
87 1 14.1544 7.85955 4.71446 -8.94716
88 1 15.7256 6.28866 3.14384 -8.94891
89 1 17.2976 7.86182 4.71687 -8.9501
90 1 18.8697 6.28953 3.14461 -8.94971
91 1 20.4418 7.8621 4.71714 -8.9497
92 1 0.000105198 9.43455 3.14474 -8.94961
93 1 3.14462 9.43449 3.14461 -8.94957
94 1 6.2893 9.43436 3.14423 -8.94988
95 1 9.43381 9.43334 3.14271 -8.94816
96 1 12.581 9.43316 3.14186 -8.94983
97 1 15.7252 9.4343 3.14429 -8.94956
98 1 18.8696 9.4345 3.14468 -8.94957
99 1 -0.000202902 2.88359e-14 6.2894 -8.94959
100 1 1.57185 1.57225 7.86181 -8.9496
101 1 3.14402 -2.49551e-14 6.28909 -8.94947
102 1 4.71612 1.57179 7.86138 -8.94943
103 1 6.28884 4.72106e-15 6.28873 -8.94973
104 1 7.86138 1.57112 7.86113 -8.95
105 1 9.43447 -6.1548e-15 6.28874 -8.94958
106 1 11.0075 1.57119 7.86114 -8.94973
107 1 12.5801 -1.06081e-14 6.28877 -8.94968
108 1 14.1528 1.5717 7.86141 -8.94959
109 1 15.7251 1.19649e-14 6.2891 -8.94956
110 1 17.2974 1.57215 7.86178 -8.94958
111 1 18.8695 -7.14917e-14 6.28938 -8.94958
112 1 20.4416 1.57233 7.86192 -8.94961
113 1 22.0137 3.14469 6.2894 -8.94961
114 1 1.57179 4.71689 7.86179 -8.94966
115 1 3.14392 3.1443 6.28903 -8.94946
116 1 4.71567 4.71568 7.86106 -8.94907
117 1 6.28847 3.14325 6.28833 -8.94955
118 1 7.8603 4.71279 7.85998 -8.94964
119 1 9.43448 3.1432 6.28855 -8.9494
120 1 11.0081 4.71337 7.86014 -8.94796
121 1 12.5803 3.14328 6.28845 -8.94959
122 1 14.1533 4.71514 7.86108 -8.94966
123 1 15.7253 3.14405 6.28899 -8.94952
124 1 17.2976 4.7166 7.86169 -8.9495
125 1 18.8696 3.1446 6.28937 -8.94959
126 1 20.4417 4.71708 7.86192 -8.94966
127 1 -0.000134528 6.28959 6.28948 -8.94976
128 1 1.57195 7.86194 7.86191 -8.94987
129 1 3.14383 6.28911 6.28904 -8.94993
130 1 4.71558 7.86094 7.86128 -8.95114
131 1 6.28707 6.28657 6.28674 -8.94683
132 1 7.85558 7.85326 7.85454 -8.98265
133 1 9.43465 6.28676 6.28826 -8.94969
134 1 11.0099 7.85741 7.85806 -9.00089
135 1 12.581 6.28656 6.28753 -8.9506
136 1 14.155 7.85857 7.85994 -8.94695
137 1 15.7258 6.28837 6.28857 -8.94885
138 1 17.2976 7.86163 7.86185 -8.95022
139 1 18.8697 6.28944 6.28942 -8.94974
140 1 20.4417 7.86207 7.86203 -8.9498
141 1 22.0139 9.43454 6.28957 -8.94964
142 1 3.14443 9.43443 6.28933 -8.94968
143 1 6.28864 9.43404 6.28835 -8.94962
144 1 9.43235 9.4309 6.28687 -9.00254
145 1 12.5857 9.42745 6.28208 -8.97952
146 1 15.7254 9.43435 6.28928 -8.95176
147 1 18.8695 9.43453 6.28957 -8.94974
148 1 -0.000234882 3.47927e-14 9.43442 -8.94959
149 1 3.14396 -2.76541e-15 9.43429 -8.94954
150 1 6.28857 2.5875e-14 9.43402 -8.9497
151 1 9.43443 -5.00609e-15 9.43403 -8.9506
152 1 12.5803 2.59333e-14 9.43403 -8.94973
153 1 15.7251 8.83021e-15 9.43429 -8.94964
154 1 18.8695 2.05047e-14 9.43441 -8.94958
155 1 -0.00023173 3.14465 9.43442 -8.94961
156 1 3.14386 3.14421 9.43427 -8.94961
157 1 6.28811 3.1425 9.43371 -8.94915
158 1 9.43436 3.14056 9.43391 -8.95265
159 1 12.5805 3.14243 9.43377 -8.94952
160 1 15.7253 3.14387 9.43423 -8.94958
161 1 18.8695 3.14456 9.4344 -8.94962
162 1 -0.000194118 6.28952 9.43444 -8.94978
163 1 3.14367 6.28884 9.43421 -8.94974
164 1 6.28689 6.28542 9.43265 -8.94683
165 1 9.43387 6.27451 9.4338 -8.96583
166 1 12.581 6.28454 9.43307 -8.95062
167 1 15.7258 6.28801 9.43398 -8.94864
168 1 18.8697 6.28933 9.4344 -8.94966
169 1 -0.000114597 9.43453 9.43448 -8.94965
170 1 3.14423 9.43432 9.43429 -8.94964
171 1 6.28803 9.43337 9.43326 -9.00243
172 1 9.41218 9.3749 9.43404 -9.26353
173 1 12.5873 9.4235 9.432 -9.01388
174 1 15.7253 9.43408 9.43456 -8.95247
175 1 18.8693 9.43454 9.43451 -8.94988
176 1 1.57183 1.57223 11.007 -8.94958
177 1 4.71611 1.57178 11.007 -8.94945
178 1 7.86113 1.57059 11.007 -8.95034
179 1 11.0076 1.57063 11.007 -8.95009
180 1 14.1528 1.57164 11.007 -8.9497
181 1 17.2974 1.57213 11.007 -8.94956
182 1 20.4416 1.57232 11.007 -8.9496
183 1 1.57178 4.71686 11.007 -8.94961
184 1 4.71573 4.71568 11.007 -8.94977
185 1 7.85919 4.71052 11.007 -8.94852
186 1 11.0089 4.71097 11.007 -8.94713
187 1 14.1533 4.71486 11.007 -8.95029
188 1 17.2975 4.71655 11.007 -8.94957
189 1 20.4416 4.71705 11.007 -8.94963
190 1 1.5719 7.86191 11.007 -8.95003
191 1 4.71517 7.86074 11.007 -8.95262
192 1 7.85186 7.84917 11.007 -9.0095
193 1 11.0126 7.85251 11.007 -9.04638
194 1 14.1555 7.85763 11.007 -8.94723
195 1 17.2977 7.86141 11.007 -8.95029
196 1 20.4416 7.86203 11.007 -8.94988
197 1 -0.000234882 3.02289e-14 12.5795 -8.94959
198 1 1.57185 1.57225 14.1521 -8.9496
199 1 3.14396 7.78797e-15 12.5796 -8.94954
200 1 4.71612 1.57179 14.1525 -8.94943
201 1 6.28857 2.40213e-15 12.5799 -8.9497
202 1 7.86138 1.57112 14.1528 -8.95
203 1 9.43443 -1.72122e-14 12.5799 -8.9506
204 1 11.0075 1.57119 14.1528 -8.94973
205 1 12.5803 -2.84135e-15 12.5799 -8.94973
206 1 14.1528 1.5717 14.1525 -8.94959
207 1 15.7251 -9.85059e-15 12.5796 -8.94964
208 1 17.2974 1.57215 14.1521 -8.94958
209 1 18.8695 -2.74514e-17 12.5795 -8.94958
210 1 20.4416 1.57233 14.152 -8.94961
211 1 -0.00023173 3.14465 12.5795 -8.94961
212 1 1.57179 4.71689 14.1521 -8.94966
213 1 3.14386 3.14421 12.5796 -8.94961
214 1 4.71567 4.71568 14.1528 -8.94907
215 1 6.28811 3.1425 12.5802 -8.94915
216 1 7.8603 4.71279 14.1539 -8.94964
217 1 9.43436 3.14056 12.58 -8.95265
218 1 11.0081 4.71337 14.1538 -8.94796
219 1 12.5805 3.14243 12.5801 -8.94952
220 1 14.1533 4.71514 14.1528 -8.94966
221 1 15.7253 3.14387 12.5797 -8.94958
222 1 17.2976 4.7166 14.1522 -8.9495
223 1 18.8695 3.14456 12.5795 -8.94962
224 1 20.4417 4.71708 14.152 -8.94966
225 1 -0.000194118 6.28952 12.5795 -8.94978
226 1 1.57195 7.86194 14.152 -8.94987
227 1 3.14367 6.28884 12.5797 -8.94974
228 1 4.71558 7.86094 14.1526 -8.95114
229 1 6.28689 6.28542 12.5813 -8.94683
230 1 7.85558 7.85326 14.1594 -8.98265
231 1 9.43387 6.27451 12.5801 -8.96583
232 1 11.0099 7.85741 14.1558 -9.00089
233 1 12.581 6.28454 12.5808 -8.95062
234 1 14.155 7.85857 14.154 -8.94695
235 1 15.7258 6.28801 12.5799 -8.94864
236 1 17.2976 7.86163 14.1521 -8.95022
237 1 18.8697 6.28933 12.5795 -8.94966
238 1 20.4417 7.86207 14.1519 -8.9498
239 1 -0.000114597 9.43453 12.5794 -8.94965
240 1 3.14423 9.43432 12.5796 -8.94964
241 1 6.28803 9.43337 12.5806 -9.00243
242 1 9.41218 9.3749 12.5799 -9.26353
243 1 12.5873 9.4235 12.5819 -9.01388
244 1 15.7253 9.43408 12.5793 -8.95247
245 1 18.8693 9.43454 12.5794 -8.94988
246 1 -0.000202902 -6.98218e-15 15.7245 -8.94959
247 1 1.57194 1.57229 17.2971 -8.94953
248 1 3.14402 -3.80679e-14 15.7248 -8.94947
249 1 4.71642 1.57199 17.2975 -8.94952
250 1 6.28884 4.83149e-14 15.7252 -8.94973
251 1 7.86176 1.57193 17.2975 -8.94955
252 1 9.43447 1.60372e-14 15.7252 -8.94958
253 1 11.0072 1.5719 17.2975 -8.94956
254 1 12.5801 6.07046e-17 15.7251 -8.94968
255 1 14.1526 1.57194 17.2974 -8.94961
256 1 15.7251 -4.34418e-15 15.7248 -8.94956
257 1 17.2973 1.5722 17.2971 -8.94956
258 1 18.8695 -5.62771e-14 15.7245 -8.94958
259 1 20.4416 1.57235 17.2969 -8.94957
260 1 22.0137 3.14469 15.7245 -8.94961
261 1 1.57193 4.71704 17.2971 -8.94966
262 1 3.14392 3.1443 15.7249 -8.94946
263 1 4.71605 4.71616 17.2979 -8.94881
264 1 6.28847 3.14325 15.7256 -8.94955
265 1 7.86168 4.71596 17.2978 -8.9499
266 1 9.43448 3.1432 15.7253 -8.9494
267 1 11.0073 4.7159 17.2979 -8.94949
268 1 12.5803 3.14328 15.7254 -8.94959
269 1 14.1529 4.71586 17.2978 -8.94969
270 1 15.7253 3.14405 15.7249 -8.94952
271 1 17.2976 4.71673 17.2972 -8.94943
272 1 18.8696 3.1446 15.7245 -8.94959
273 1 20.4417 4.71715 17.2969 -8.94966
274 1 -0.000134528 6.28959 15.7244 -8.94976
275 1 1.57219 7.86207 17.2969 -8.94963
276 1 3.14383 6.28911 15.7249 -8.94993
277 1 4.71657 7.86167 17.2974 -8.9496
278 1 6.28707 6.28657 15.7272 -8.94683
279 1 7.86106 7.86034 17.299 -8.95085
280 1 9.43465 6.28676 15.7256 -8.94969
281 1 11.007 7.86078 17.2988 -8.95005
282 1 12.581 6.28656 15.7264 -8.9506
283 1 14.1544 7.85955 17.2994 -8.94716
284 1 15.7258 6.28837 15.7253 -8.94885
285 1 17.2976 7.86182 17.297 -8.9501
286 1 18.8697 6.28944 15.7245 -8.94974
287 1 20.4418 7.8621 17.2968 -8.9497
288 1 22.0139 9.43454 15.7243 -8.94964
289 1 3.14443 9.43443 15.7246 -8.94968
290 1 6.28864 9.43404 15.7256 -8.94962
291 1 9.43235 9.4309 15.727 -9.00254
292 1 12.5857 9.42745 15.7318 -8.97952
293 1 15.7254 9.43435 15.7246 -8.95176
294 1 18.8695 9.43453 15.7243 -8.94974
295 1 22.0138 5.02915e-14 18.8693 -8.94953
296 1 1.57208 1.57235 20.4417 -8.94948
297 1 3.14425 -4.52892e-14 18.8696 -8.9495
298 1 4.7168 1.57225 20.4418 -8.94964
299 1 6.28924 -1.1716e-14 18.8696 -8.9496
300 1 7.86189 1.57218 20.4418 -8.94961
301 1 9.4345 1.18114e-14 18.8697 -8.9496
302 1 11.0071 1.57216 20.4418 -8.9496
303 1 12.5798 -1.54867e-14 18.8696 -8.9496
304 1 14.1523 1.57218 20.4418 -8.94962
305 1 15.7249 3.00605e-14 18.8695 -8.94958
306 1 17.2972 1.57225 20.4417 -8.94957
307 1 18.8695 7.12345e-14 18.8693 -8.94955
308 1 20.4417 1.57237 20.4416 -8.94952
309 1 -0.00010308 3.14476 18.8693 -8.94958
310 1 1.57218 4.71721 20.4416 -8.94963
311 1 3.14419 3.1445 18.8696 -8.94936
312 1 4.71667 4.71684 20.4419 -8.9496
313 1 6.28918 3.1443 18.8697 -8.94971
314 1 7.86183 4.71663 20.4419 -8.94963
315 1 9.43449 3.14417 18.8698 -8.94958
316 1 11.0071 4.7166 20.4419 -8.94961
317 1 12.5798 3.1442 18.8698 -8.94961
318 1 14.1524 4.71663 20.4419 -8.94973
319 1 15.725 3.14429 18.8696 -8.94958
320 1 17.2975 4.71681 20.4418 -8.94934
321 1 18.8696 3.14465 18.8693 -8.94953
322 1 20.4418 4.71721 20.4416 -8.94962
323 1 22.0139 6.28968 18.8692 -8.94964
324 1 1.57233 7.86212 20.4416 -8.94961
325 1 3.14438 6.28949 18.8694 -8.94966
326 1 4.71687 7.86195 20.4417 -8.94967
327 1 6.28889 6.2888 18.8702 -8.94979
328 1 7.86156 7.86135 20.4422 -8.9497
329 1 9.43443 6.28858 18.87 -8.94948
330 1 11.0071 7.86139 20.4422 -8.94951
331 1 12.5799 6.28865 18.8701 -8.94994
332 1 14.153 7.86118 20.4424 -8.94969
333 1 15.7256 6.28866 18.8701 -8.94891
334 1 17.2974 7.86191 20.4417 -8.94961
335 1 18.8697 6.28953 18.8693 -8.94971
336 1 20.4418 7.86211 20.4415 -8.9496
337 1 0.000105198 9.43455 18.8692 -8.94961
338 1 3.14462 9.43449 18.8693 -8.94957
339 1 6.2893 9.43436 18.8697 -8.94988
340 1 9.43381 9.43334 18.8712 -8.94816
341 1 12.581 9.43316 18.872 -8.94983
342 1 15.7252 9.4343 18.8696 -8.94956
343 1 18.8696 9.4345 18.8692 -8.94957
344 1 1.5724 11.007 1.57235 -8.9496
345 1 4.71699 11.007 1.57221 -8.94958
346 1 7.86187 11.007 1.57195 -8.94936
347 1 11.0072 11.007 1.57038 -8.9529
348 1 14.1528 11.007 1.57174 -8.9492
349 1 17.2974 11.007 1.57225 -8.94956
350 1 20.4418 11.007 1.57237 -8.94959
351 1 22.014 12.5793 1.17664e-14 -8.94961
352 1 1.57233 14.1518 1.57233 -8.94961
353 1 3.14465 12.5794 1.5893e-15 -8.94958
354 1 4.71687 14.1519 1.57217 -8.94967
355 1 6.28936 12.5795 1.46164e-15 -8.94962
356 1 7.86156 14.1526 1.57171 -8.9497
357 1 9.43423 12.5799 -3.67528e-16 -8.94972
358 1 11.0071 14.1525 1.57167 -8.94951
359 1 12.5802 12.5799 2.58726e-15 -8.95026
360 1 14.153 14.1527 1.57153 -8.94969
361 1 15.7251 12.5796 3.05892e-14 -8.94941
362 1 17.2974 14.152 1.57224 -8.94961
363 1 18.8696 12.5794 -3.64377e-14 -8.94958
364 1 20.4418 14.1518 1.57235 -8.9496
365 1 7.26166e-05 15.7242 2.39593e-15 -8.94961
366 1 1.57218 17.2967 1.57226 -8.94963
367 1 3.14452 15.7243 -3.35054e-14 -8.94965
368 1 4.71667 17.2971 1.57203 -8.9496
369 1 6.28914 15.7248 3.39958e-14 -8.94968
370 1 7.86183 17.2973 1.57201 -8.94963
371 1 9.43443 15.7249 8.37872e-15 -8.94959
372 1 11.0071 17.2973 1.57198 -8.94961
373 1 12.5798 15.7249 -2.00071e-14 -8.94961
374 1 14.1524 17.2973 1.57202 -8.94973
375 1 15.7252 15.7249 2.05084e-14 -8.9495
376 1 17.2975 17.2971 1.57214 -8.94934
377 1 18.8696 15.7243 -3.37655e-14 -8.94963
378 1 20.4418 17.2967 1.57231 -8.94962
379 1 22.0139 18.8691 3.02077e-14 -8.94958
380 1 1.57208 20.4416 1.57221 -8.94948
381 1 3.14439 18.8693 4.26967e-15 -8.94957
382 1 4.7168 20.4417 1.57212 -8.94964
383 1 6.28931 18.8694 -2.71161e-14 -8.94964
384 1 7.86189 20.4417 1.5721 -8.94961
385 1 9.4345 18.8695 -5.53473e-14 -8.94961
386 1 11.0071 20.4417 1.57209 -8.9496
387 1 12.5797 18.8695 -5.27396e-14 -8.94962
388 1 14.1523 20.4417 1.57212 -8.94962
389 1 15.7249 18.8694 4.84085e-14 -8.94966
390 1 17.2972 20.4416 1.5722 -8.94957
391 1 18.8696 18.8692 2.57785e-14 -8.94945
392 1 20.4417 20.4415 1.57229 -8.94952
393 1 1.57233 11.007 4.71708 -8.94958
394 1 4.71693 11.007 4.71668 -8.94911
395 1 7.86238 11.007 4.71609 -8.95004
396 1 11.0077 11.007 4.70598 -8.96686
397 1 14.1529 11.007 4.71577 -8.94863
398 1 17.2973 11.007 4.71689 -8.94945
399 1 20.4417 11.007 4.71716 -8.94963
400 1 0.000105198 12.5794 3.14474 -8.94961
401 1 1.57219 14.1518 4.71703 -8.94963
402 1 3.14462 12.5794 3.14461 -8.94957
403 1 4.71657 14.1522 4.71655 -8.9496
404 1 6.2893 12.5795 3.14423 -8.94988
405 1 7.86106 14.1536 4.71488 -8.95085
406 1 9.43381 12.5806 3.14271 -8.94816
407 1 11.007 14.1531 4.71508 -8.95005
408 1 12.581 12.5807 3.14186 -8.94983
409 1 14.1544 14.1543 4.71446 -8.94716
410 1 15.7252 12.5796 3.14429 -8.94956
411 1 17.2976 14.1521 4.71687 -8.9501
412 1 18.8696 12.5794 3.14468 -8.94957
413 1 20.4418 14.1518 4.71714 -8.9497
414 1 22.0139 15.7242 3.14468 -8.94964
415 1 1.57193 17.2969 4.71685 -8.94966
416 1 3.14438 15.7244 3.14445 -8.94966
417 1 4.71605 17.2977 4.71603 -8.94881
418 1 6.28889 15.7251 3.14372 -8.94979
419 1 7.86168 17.2979 4.71609 -8.9499
420 1 9.43443 15.7253 3.14385 -8.94948
421 1 11.0073 17.298 4.716 -8.94949
422 1 12.5799 15.7252 3.1438 -8.94994
423 1 14.1529 17.298 4.71611 -8.94969
424 1 15.7256 15.7252 3.14384 -8.94891
425 1 17.2976 17.2972 4.71672 -8.94943
426 1 18.8697 15.7244 3.14461 -8.94971
427 1 20.4417 17.2968 4.71702 -8.94966
428 1 -0.00010308 18.8691 3.14459 -8.94958
429 1 1.57194 20.4416 4.71684 -8.94953
430 1 3.14419 18.8694 3.14429 -8.94936
431 1 4.71642 20.4419 4.71642 -8.94952
432 1 6.28918 18.8696 3.14415 -8.94971
433 1 7.86176 20.442 4.7164 -8.94955
434 1 9.43449 18.8697 3.14414 -8.94958
435 1 11.0072 20.442 4.71639 -8.94956
436 1 12.5798 18.8697 3.14414 -8.94961
437 1 14.1526 20.442 4.71648 -8.94961
438 1 15.725 18.8696 3.14427 -8.94958
439 1 17.2973 20.4417 4.71682 -8.94956
440 1 18.8696 18.8693 3.14457 -8.94953
441 1 20.4416 20.4416 4.717 -8.94957
442 1 1.57224 11.007 7.86196 -8.94952
443 1 4.71679 11.007 7.86157 -8.94899
444 1 7.86163 11.007 7.85969 -8.9817
445 1 11.033 11.007 7.8043 -9.23569
446 1 14.1506 11.007 7.86291 -9.00206
447 1 17.2968 11.007 7.86196 -8.94868
448 1 20.4416 11.007 7.86204 -8.94949
449 1 22.0139 12.5794 6.28957 -8.94964
450 1 1.57195 14.152 7.86191 -8.94987
451 1 3.14443 12.5795 6.28933 -8.94968
452 1 4.71558 14.153 7.86128 -8.95114
453 1 6.28864 12.5799 6.28835 -8.94962
454 1 7.85558 14.1606 7.85454 -8.98265
455 1 9.43235 12.583 6.28687 -9.00254
456 1 11.0099 14.1565 7.85806 -9.00089
457 1 12.5857 12.5864 6.28208 -8.97952
458 1 14.155 14.1553 7.85994 -8.94695
459 1 15.7254 12.5796 6.28928 -8.95176
460 1 17.2976 14.1523 7.86185 -8.95022
461 1 18.8695 12.5794 6.28957 -8.94974
462 1 20.4417 14.1518 7.86203 -8.9498
463 1 -0.000134528 15.7243 6.28948 -8.94976
464 1 1.57179 17.297 7.86179 -8.94966
465 1 3.14383 15.7248 6.28904 -8.94993
466 1 4.71567 17.2982 7.86106 -8.94907
467 1 6.28707 15.7273 6.28674 -8.94683
468 1 7.8603 17.3011 7.85998 -8.94964
469 1 9.43465 15.7271 6.28826 -8.94969
470 1 11.0081 17.3005 7.86014 -8.94796
471 1 12.581 15.7273 6.28753 -8.9506
472 1 14.1533 17.2988 7.86108 -8.94966
473 1 15.7258 15.7255 6.28857 -8.94885
474 1 17.2976 17.2973 7.86169 -8.9495
475 1 18.8697 15.7245 6.28942 -8.94974
476 1 20.4417 17.2968 7.86192 -8.94966
477 1 22.0137 18.8692 6.2894 -8.94961
478 1 1.57185 20.4417 7.86181 -8.9496
479 1 3.14392 18.8696 6.28903 -8.94946
480 1 4.71612 20.4421 7.86138 -8.94943
481 1 6.28847 18.8707 6.28833 -8.94955
482 1 7.86138 20.4428 7.86113 -8.95
483 1 9.43448 18.8707 6.28855 -8.9494
484 1 11.0075 20.4427 7.86114 -8.94973
485 1 12.5803 18.8706 6.28845 -8.94959
486 1 14.1528 20.4422 7.86141 -8.94959
487 1 15.7253 18.8698 6.28899 -8.94952
488 1 17.2974 20.4418 7.86178 -8.94958
489 1 18.8696 18.8693 6.28937 -8.94959
490 1 20.4416 20.4416 7.86192 -8.94961
491 1 -0.000114597 12.5794 9.43448 -8.94965
492 1 3.14423 12.5796 9.43429 -8.94964
493 1 6.28803 12.5805 9.43326 -9.00243
494 1 9.41218 12.639 9.43404 -9.26353
495 1 12.5873 12.5904 9.432 -9.01388
496 1 15.7253 12.5798 9.43456 -8.95247
497 1 18.8693 12.5794 9.43451 -8.94988
498 1 -0.000194118 15.7244 9.43444 -8.94978
499 1 3.14367 15.7251 9.43421 -8.94974
500 1 6.28689 15.7285 9.43265 -8.94683
501 1 9.43387 15.7394 9.4338 -8.96583
502 1 12.581 15.7294 9.43307 -8.95062
503 1 15.7258 15.7259 9.43398 -8.94864
504 1 18.8697 15.7246 9.4344 -8.94966
505 1 -0.00023173 18.8692 9.43442 -8.94961
506 1 3.14386 18.8697 9.43427 -8.94961
507 1 6.28811 18.8714 9.43371 -8.94915
508 1 9.43436 18.8733 9.43391 -8.95265
509 1 12.5805 18.8715 9.43377 -8.94952
510 1 15.7253 18.87 9.43423 -8.94958
511 1 18.8695 18.8693 9.4344 -8.94962
688 2 10.1822 11.007 9.39049 0.805515
512 1 1.57212 11.007 11.007 -8.94973
513 1 4.71614 11.007 11.007 -8.95095
514 1 7.85621 11.007 11.007 -9.01847
515 1 11.0547 11.007 11.007 -9.44037
516 1 14.1484 11.007 11.007 -9.04554
517 1 17.2964 11.007 11.007 -8.94792
518 1 20.4415 11.007 11.007 -8.9494
519 1 1.5719 14.152 11.007 -8.95003
520 1 4.71517 14.1532 11.007 -8.95262
521 1 7.85186 14.1647 11.007 -9.0095
522 1 11.0126 14.1614 11.007 -9.04638
523 1 14.1555 14.1563 11.007 -8.94723
524 1 17.2977 14.1525 11.007 -8.95029
525 1 20.4416 14.1519 11.007 -8.94988
526 1 1.57178 17.297 11.007 -8.94961
527 1 4.71573 17.2982 11.007 -8.94977
528 1 7.85919 17.3034 11.007 -8.94852
529 1 11.0089 17.3029 11.007 -8.94713
530 1 14.1533 17.299 11.007 -8.95029
531 1 17.2975 17.2974 11.007 -8.94957
532 1 20.4416 17.2968 11.007 -8.94963
533 1 1.57183 20.4417 11.007 -8.94958
534 1 4.71611 20.4421 11.007 -8.94945
535 1 7.86113 20.4433 11.007 -8.95034
536 1 11.0076 20.4433 11.007 -8.95009
537 1 14.1528 20.4423 11.007 -8.9497
538 1 17.2974 20.4418 11.007 -8.94956
539 1 20.4416 20.4416 11.007 -8.9496
540 1 1.57224 11.007 14.1519 -8.94952
541 1 4.71679 11.007 14.1523 -8.94899
542 1 7.86163 11.007 14.1542 -8.9817
543 1 11.033 11.007 14.2096 -9.23569
544 1 14.1506 11.007 14.151 -9.00206
545 1 17.2968 11.007 14.1519 -8.94868
546 1 20.4416 11.007 14.1519 -8.94949
547 1 -0.000114597 12.5794 12.5794 -8.94965
548 1 1.57195 14.152 14.152 -8.94987
549 1 3.14423 12.5796 12.5796 -8.94964
550 1 4.71558 14.153 14.1526 -8.95114
551 1 6.28803 12.5805 12.5806 -9.00243
552 1 7.85558 14.1606 14.1594 -8.98265
553 1 9.41218 12.639 12.5799 -9.26353
554 1 11.0099 14.1565 14.1558 -9.00089
555 1 12.5873 12.5904 12.5819 -9.01388
556 1 14.155 14.1553 14.154 -8.94695
557 1 15.7253 12.5798 12.5793 -8.95247
558 1 17.2976 14.1523 14.1521 -8.95022
559 1 18.8693 12.5794 12.5794 -8.94988
560 1 20.4417 14.1518 14.1519 -8.9498
561 1 -0.000194118 15.7244 12.5795 -8.94978
562 1 1.57179 17.297 14.1521 -8.94966
563 1 3.14367 15.7251 12.5797 -8.94974
564 1 4.71567 17.2982 14.1528 -8.94907
565 1 6.28689 15.7285 12.5813 -8.94683
566 1 7.8603 17.3011 14.1539 -8.94964
567 1 9.43387 15.7394 12.5801 -8.96583
568 1 11.0081 17.3005 14.1538 -8.94796
569 1 12.581 15.7294 12.5808 -8.95062
570 1 14.1533 17.2988 14.1528 -8.94966
571 1 15.7258 15.7259 12.5799 -8.94864
572 1 17.2976 17.2973 14.1522 -8.9495
573 1 18.8697 15.7246 12.5795 -8.94966
574 1 20.4417 17.2968 14.152 -8.94966
575 1 -0.00023173 18.8692 12.5795 -8.94961
576 1 1.57185 20.4417 14.1521 -8.9496
577 1 3.14386 18.8697 12.5796 -8.94961
578 1 4.71612 20.4421 14.1525 -8.94943
579 1 6.28811 18.8714 12.5802 -8.94915
580 1 7.86138 20.4428 14.1528 -8.95
581 1 9.43436 18.8733 12.58 -8.95265
582 1 11.0075 20.4427 14.1528 -8.94973
583 1 12.5805 18.8715 12.5801 -8.94952
584 1 14.1528 20.4422 14.1525 -8.94959
585 1 15.7253 18.87 12.5797 -8.94958
586 1 17.2974 20.4418 14.1521 -8.94958
587 1 18.8695 18.8693 12.5795 -8.94962
588 1 20.4416 20.4416 14.152 -8.94961
589 1 1.57233 11.007 17.2968 -8.94958
590 1 4.71693 11.007 17.2972 -8.94911
591 1 7.86238 11.007 17.2978 -8.95004
592 1 11.0077 11.007 17.3079 -8.96686
593 1 14.1529 11.007 17.2981 -8.94863
594 1 17.2973 11.007 17.297 -8.94945
595 1 20.4417 11.007 17.2967 -8.94963
596 1 22.0139 12.5794 15.7243 -8.94964
597 1 1.57219 14.1518 17.2969 -8.94963
598 1 3.14443 12.5795 15.7246 -8.94968
599 1 4.71657 14.1522 17.2974 -8.9496
600 1 6.28864 12.5799 15.7256 -8.94962
601 1 7.86106 14.1536 17.299 -8.95085
602 1 9.43235 12.583 15.727 -9.00254
603 1 11.007 14.1531 17.2988 -8.95005
604 1 12.5857 12.5864 15.7318 -8.97952
605 1 14.1544 14.1543 17.2994 -8.94716
606 1 15.7254 12.5796 15.7246 -8.95176
607 1 17.2976 14.1521 17.297 -8.9501
608 1 18.8695 12.5794 15.7243 -8.94974
609 1 20.4418 14.1518 17.2968 -8.9497
610 1 -0.000134528 15.7243 15.7244 -8.94976
611 1 1.57193 17.2969 17.2971 -8.94966
612 1 3.14383 15.7248 15.7249 -8.94993
613 1 4.71605 17.2977 17.2979 -8.94881
614 1 6.28707 15.7273 15.7272 -8.94683
615 1 7.86168 17.2979 17.2978 -8.9499
616 1 9.43465 15.7271 15.7256 -8.94969
617 1 11.0073 17.298 17.2979 -8.94949
618 1 12.581 15.7273 15.7264 -8.9506
619 1 14.1529 17.298 17.2978 -8.94969
620 1 15.7258 15.7255 15.7253 -8.94885
621 1 17.2976 17.2972 17.2972 -8.94943
622 1 18.8697 15.7245 15.7245 -8.94974
623 1 20.4417 17.2968 17.2969 -8.94966
624 1 22.0137 18.8692 15.7245 -8.94961
625 1 1.57194 20.4416 17.2971 -8.94953
626 1 3.14392 18.8696 15.7249 -8.94946
627 1 4.71642 20.4419 17.2975 -8.94952
628 1 6.28847 18.8707 15.7256 -8.94955
629 1 7.86176 20.442 17.2975 -8.94955
630 1 9.43448 18.8707 15.7253 -8.9494
631 1 11.0072 20.442 17.2975 -8.94956
632 1 12.5803 18.8706 15.7254 -8.94959
633 1 14.1526 20.442 17.2974 -8.94961
634 1 15.7253 18.8698 15.7249 -8.94952
635 1 17.2973 20.4417 17.2971 -8.94956
636 1 18.8696 18.8693 15.7245 -8.94959
637 1 20.4416 20.4416 17.2969 -8.94957
638 1 1.5724 11.007 20.4415 -8.9496
639 1 4.71699 11.007 20.4417 -8.94958
640 1 7.86187 11.007 20.442 -8.94936
641 1 11.0072 11.007 20.4435 -8.9529
642 1 14.1528 11.007 20.4422 -8.9492
643 1 17.2974 11.007 20.4416 -8.94956
644 1 20.4418 11.007 20.4415 -8.94959
645 1 0.000105198 12.5794 18.8692 -8.94961
646 1 1.57233 14.1518 20.4416 -8.94961
647 1 3.14462 12.5794 18.8693 -8.94957
648 1 4.71687 14.1519 20.4417 -8.94967
649 1 6.2893 12.5795 18.8697 -8.94988
650 1 7.86156 14.1526 20.4422 -8.9497
651 1 9.43381 12.5806 18.8712 -8.94816
652 1 11.0071 14.1525 20.4422 -8.94951
653 1 12.581 12.5807 18.872 -8.94983
654 1 14.153 14.1527 20.4424 -8.94969
655 1 15.7252 12.5796 18.8696 -8.94956
656 1 17.2974 14.152 20.4417 -8.94961
657 1 18.8696 12.5794 18.8692 -8.94957
658 1 20.4418 14.1518 20.4415 -8.9496
659 1 22.0139 15.7242 18.8692 -8.94964
660 1 1.57218 17.2967 20.4416 -8.94963
661 1 3.14438 15.7244 18.8694 -8.94966
662 1 4.71667 17.2971 20.4419 -8.9496
663 1 6.28889 15.7251 18.8702 -8.94979
664 1 7.86183 17.2973 20.4419 -8.94963
665 1 9.43443 15.7253 18.87 -8.94948
666 1 11.0071 17.2973 20.4419 -8.94961
667 1 12.5799 15.7252 18.8701 -8.94994
668 1 14.1524 17.2973 20.4419 -8.94973
669 1 15.7256 15.7252 18.8701 -8.94891
670 1 17.2975 17.2971 20.4418 -8.94934
671 1 18.8697 15.7244 18.8693 -8.94971
672 1 20.4418 17.2967 20.4416 -8.94962
673 1 -0.00010308 18.8691 18.8693 -8.94958
674 1 1.57208 20.4416 20.4417 -8.94948
675 1 3.14419 18.8694 18.8696 -8.94936
676 1 4.7168 20.4417 20.4418 -8.94964
677 1 6.28918 18.8696 18.8697 -8.94971
678 1 7.86189 20.4417 20.4418 -8.94961
679 1 9.43449 18.8697 18.8698 -8.94958
680 1 11.0071 20.4417 20.4418 -8.9496
681 1 12.5798 18.8697 18.8698 -8.94961
682 1 14.1523 20.4417 20.4418 -8.94962
683 1 15.725 18.8696 18.8696 -8.94958
684 1 17.2972 20.4416 20.4417 -8.94957
685 1 18.8696 18.8693 18.8693 -8.94953
686 1 20.4417 20.4415 20.4416 -8.94952
687 2 10.1822 11.007 12.6234 0.805515
