ITEM: TIMESTEP
45
ITEM: NUMBER OF ATOMS
688
ITEM: BOX BOUNDS pp pp pp
0.0000000000000000e+00 2.2013900999999997e+01
0.0000000000000000e+00 2.2013900999999997e+01
0.0000000000000000e+00 2.2013900999999997e+01
ITEM: ATOMS id type x y z c_pot
1 1 -1.64801e-07 3.08162e-16 -5.51613e-16 -8.94963
2 1 1.57242 1.57242 1.57242 -8.94962
3 1 3.14484 8.75388e-17 -1.10655e-15 -8.94964
4 1 4.71727 1.57242 1.57242 -8.94965
5 1 6.28969 2.38093e-15 1.31051e-16 -8.94963
6 1 7.86211 1.57242 1.57242 -8.94963
7 1 9.43453 5.43194e-16 9.01457e-16 -8.94963
8 1 11.007 1.57242 1.57242 -8.94963
9 1 12.5794 -1.96971e-15 -4.58586e-16 -8.94963
10 1 14.1518 1.57242 1.57242 -8.94964
11 1 15.7242 -9.72324e-16 7.39696e-16 -8.94964
12 1 17.2966 1.57242 1.57242 -8.94963
13 1 18.8691 1.99248e-15 4.12931e-16 -8.94963
14 1 20.4415 1.57242 1.57242 -8.94963
15 1 22.0139 3.14484 6.19571e-16 -8.94963
16 1 1.57242 4.71726 1.57242 -8.94962
17 1 3.14484 3.14484 5.22321e-16 -8.94963
18 1 4.71724 4.71724 1.5724 -8.94961
19 1 6.28969 3.14484 1.18833e-15 -8.94964
20 1 7.86211 4.71725 1.57241 -8.94965
21 1 9.43453 3.14484 1.23243e-15 -8.94964
22 1 11.007 4.71725 1.5724 -8.94964
23 1 12.5794 3.14484 1.46586e-16 -8.94963
24 1 14.1518 4.71726 1.57242 -8.94971
25 1 15.7242 3.14484 3.95895e-16 -8.94966
26 1 17.2967 4.71724 1.5724 -8.94955
27 1 18.8691 3.14484 1.05558e-15 -8.94961
28 1 20.4415 4.71726 1.57242 -8.94964
29 1 -6.8896e-07 6.28969 4.6069e-16 -8.94964
30 1 1.57242 7.86211 1.57242 -8.94964
31 1 3.14483 6.28968 1.88054e-15 -8.94963
32 1 4.71722 7.86208 1.57237 -8.94966
33 1 6.28964 6.28964 2.04247e-15 -8.94959
34 1 7.86196 7.86194 1.57218 -8.94963
35 1 9.43454 6.28966 2.15841e-15 -8.94963
36 1 11.0069 7.86204 1.57232 -8.94947
37 1 12.5794 6.28967 2.12624e-15 -8.94962
38 1 14.152 7.86192 1.57218 -8.9496
39 1 15.7243 6.28963 2.36745e-16 -8.94956
40 1 17.2966 7.86213 1.57244 -8.9497
41 1 18.8691 6.28969 3.75226e-16 -8.94966
42 1 20.4415 7.86211 1.57242 -8.94963
43 1 22.0139 9.43453 6.4244e-16 -8.94964
44 1 3.14484 9.43453 2.70206e-15 -8.94962
45 1 6.28966 9.43453 1.75903e-15 -8.94975
46 1 9.43439 9.43436 7.07476e-16 -8.9497
47 1 12.5795 9.43438 8.15686e-16 -8.94998
48 1 15.7242 9.43455 2.35497e-16 -8.94958
49 1 18.8691 9.43453 4.52562e-16 -8.94963
50 1 22.0139 9.34452e-16 3.14484 -8.94964
51 1 1.57242 1.57242 4.71727 -8.94964
52 1 3.14484 3.24767e-16 3.14484 -8.94962
53 1 4.71724 1.57239 4.71724 -8.94961
54 1 6.28969 1.26079e-15 3.14484 -8.94964
55 1 7.86211 1.57242 4.71726 -8.94963
56 1 9.43453 7.46437e-16 3.14484 -8.94964
57 1 11.0069 1.57241 4.71725 -8.94963
58 1 12.5794 6.51679e-16 3.14484 -8.94964
59 1 14.1518 1.57239 4.71724 -8.94962
60 1 15.7242 6.4592e-16 3.14484 -8.94962
61 1 17.2966 1.57241 4.71726 -8.94963
62 1 18.8691 1.63517e-15 3.14484 -8.94963
63 1 20.4415 1.57242 4.71726 -8.94963
64 1 1.77294e-08 3.14484 3.14484 -8.94963
65 1 1.57241 4.71726 4.71726 -8.94966
66 1 3.14483 3.14482 3.14483 -8.94956
67 1 4.71709 4.71707 4.71709 -8.94918
68 1 6.28969 3.14484 3.14484 -8.94971
69 1 7.86215 4.71721 4.71719 -8.94992
70 1 9.43453 3.14482 3.14483 -8.94963
71 1 11.0069 4.71717 4.71711 -8.94957
72 1 12.5794 3.14483 3.14483 -8.94965
73 1 14.1519 4.71705 4.71714 -8.9497
74 1 15.7242 3.14482 3.14483 -8.94963
75 1 17.2967 4.71722 4.71721 -8.9495
76 1 18.8691 3.14484 3.14484 -8.94962
77 1 20.4415 4.71726 4.71726 -8.94963
78 1 22.0139 6.28968 3.14484 -8.94963
79 1 1.57236 7.86208 4.71723 -8.94963
80 1 3.1448 6.28965 3.14481 -8.94957
81 1 4.71695 7.86189 4.71699 -8.94929
82 1 6.28956 6.28955 3.1446 -8.94963
83 1 7.86155 7.86154 4.71601 -8.95046
84 1 9.43455 6.28954 3.14475 -8.94955
85 1 11.0067 7.86201 4.71674 -8.94999
86 1 12.5793 6.28961 3.1448 -8.9499
87 1 14.153 7.86091 4.71601 -8.9475
88 1 15.7244 6.28951 3.14463 -8.94916
89 1 17.2967 7.86212 4.71726 -8.94995
90 1 18.8691 6.28969 3.14484 -8.94968
91 1 20.4415 7.86211 4.71726 -8.94966
92 1 -5.03501e-06 9.43453 3.14484 -8.94963
93 1 3.1448 9.43452 3.14481 -8.94963
94 1 6.28947 9.43449 3.14452 -8.94995
95 1 9.43389 9.43386 3.14373 -8.94815
96 1 12.5801 9.43379 3.14342 -8.94947
97 1 15.7243 9.4346 3.14489 -8.94974
98 1 18.8691 9.43453 3.14484 -8.94961
99 1 3.18511e-07 -9.2481e-17 6.28969 -8.94964
100 1 1.57242 1.57242 7.86211 -8.94965
101 1 3.14484 -1.66486e-16 6.28969 -8.94962
102 1 4.71723 1.5724 7.86209 -8.94957
103 1 6.28966 2.47634e-16 6.28966 -8.94969
104 1 7.86203 1.57224 7.86203 -8.94981
105 1 9.43453 5.63602e-16 6.28967 -8.9496
106 1 11.007 1.57224 7.86201 -8.94967
107 1 12.5794 1.60143e-15 6.28965 -8.94967
108 1 14.1518 1.57235 7.86208 -8.94967
109 1 15.7242 1.6498e-15 6.28968 -8.94964
110 1 17.2966 1.57241 7.8621 -8.94963
111 1 18.8691 1.71861e-15 6.28969 -8.94963
112 1 20.4415 1.57242 7.86211 -8.94964
113 1 22.0139 3.14484 6.28969 -8.94963
114 1 1.57241 4.71726 7.86211 -8.94965
115 1 3.14483 3.14484 6.28969 -8.94963
116 1 4.71707 4.71713 7.86202 -8.94937
117 1 6.28952 3.14459 6.28952 -8.94961
118 1 7.86144 4.71594 7.86134 -8.94951
119 1 9.43454 3.14472 6.28962 -8.94948
120 1 11.0075 4.71619 7.86137 -8.94809
121 1 12.5795 3.14459 6.28953 -8.94961
122 1 14.1521 4.71675 7.86195 -8.94987
123 1 15.7243 3.14477 6.28964 -8.94963
124 1 17.2967 4.7172 7.86206 -8.94957
125 1 18.8691 3.14484 6.28968 -8.94963
126 1 20.4415 4.71726 7.8621 -8.94963
127 1 -6.87278e-06 6.28968 6.28968 -8.94965
128 1 1.57231 7.86206 7.86209 -8.94971
129 1 3.1447 6.28963 6.28965 -8.9498
130 1 4.71644 7.86194 7.86191 -8.9507
131 1 6.28856 6.28855 6.28844 -8.94755
132 1 7.85713 7.85738 7.85618 -8.98269
133 1 9.43479 6.28916 6.28959 -8.94997
134 1 11.009 7.86073 7.86006 -9.00196
135 1 12.5798 6.28855 6.28917 -8.95067
136 1 14.1543 7.85982 7.86067 -8.94625
137 1 15.7246 6.28931 6.28931 -8.9488
138 1 17.2971 7.86194 7.86199 -8.94996
139 1 18.8691 6.28965 6.28965 -8.94964
140 1 20.4415 7.8621 7.8621 -8.94973
141 1 22.0139 9.43452 6.28967 -8.94969
142 1 3.14448 9.43445 6.28952 -8.94979
143 1 6.28805 9.43415 6.28823 -8.94879
144 1 9.43197 9.43242 6.28779 -9.00133
145 1 12.5846 9.42887 6.28429 -8.98032
146 1 15.7248 9.43466 6.28979 -8.95137
147 1 18.8691 9.43455 6.28967 -8.9497
148 1 7.9845e-08 1.36889e-15 9.43453 -8.94963
149 1 3.14485 9.99205e-16 9.43453 -8.94965
150 1 6.28964 9.06911e-16 9.4345 -8.94961
151 1 9.43453 6.82859e-16 9.43451 -8.95022
152 1 12.5794 1.47954e-15 9.4345 -8.94968
153 1 15.7242 8.58559e-16 9.43453 -8.94966
154 1 18.8691 1.66575e-15 9.43453 -8.94963
155 1 1.054e-06 3.14484 9.43453 -8.94963
156 1 3.14484 3.14485 9.43455 -8.9497
157 1 6.28946 3.14455 9.43437 -8.94924
158 1 9.43456 3.14347 9.43448 -8.95206
159 1 12.5795 3.1444 9.43438 -8.94966
160 1 15.7243 3.14473 9.4345 -8.9496
161 1 18.8691 3.14484 9.43453 -8.94965
162 1 5.06955e-06 6.28968 9.43453 -8.94966
163 1 3.14469 6.28961 9.43452 -8.94965
164 1 6.28866 6.28865 9.43354 -8.94747
165 1 9.43444 6.28023 9.43455 -8.96474
166 1 12.5801 6.28758 9.43402 -8.9515
167 1 15.7248 6.28917 9.43432 -8.94876
168 1 18.8692 6.28963 9.4345 -8.94959
169 1 -5.15034e-05 9.43451 9.43452 -8.94972
170 1 3.1443 9.43443 9.43439 -8.94937
171 1 6.28806 9.43498 9.43332 -9.00088
172 1 9.41135 9.38247 9.43451 -9.26737
173 1 12.5892 9.42473 9.43106 -9.01237
174 1 15.726 9.43418 9.43445 -8.95195
175 1 18.8693 9.43454 9.4345 -8.94997
176 1 1.57242 1.57242 11.007 -8.94963
177 1 4.71725 1.57244 11.007 -8.94959
178 1 7.86194 1.57206 11.007 -8.94997
179 1 11.0071 1.57208 11.007 -8.94973
180 1 14.1518 1.57235 11.007 -8.94975
181 1 17.2966 1.57241 11.007 -8.94962
182 1 20.4415 1.57242 11.007 -8.94964
183 1 1.57242 4.71726 11.007 -8.9496
184 1 4.71718 4.71734 11.007 -8.94993
185 1 7.8607 4.71475 11.007 -8.94863
186 1 11.0081 4.71521 11.007 -8.94682
187 1 14.1522 4.71666 11.007 -8.95019
188 1 17.2967 4.7172 11.007 -8.94964
189 1 20.4415 4.71726 11.007 -8.94963
190 1 1.57231 7.86208 11.007 -8.94981
191 1 4.71619 7.86217 11.007 -8.95236
192 1 7.85345 7.8542 11.007 -9.01098
193 1 11.0118 7.85877 11.007 -9.05107
194 1 14.1551 7.85948 11.007 -8.94697
195 1 17.2973 7.86182 11.007 -8.94997
196 1 20.4416 7.86209 11.007 -8.94977
197 1 7.9845e-08 1.04402e-15 12.5794 -8.94963
198 1 1.57242 1.57242 14.1518 -8.94965
199 1 3.14485 1.06302e-15 12.5794 -8.94965
200 1 4.71723 1.5724 14.1518 -8.94957
201 1 6.28964 1.32324e-15 12.5794 -8.94961
202 1 7.86203 1.57224 14.1519 -8.94981
203 1 9.43453 1.26059e-15 12.5794 -8.95022
204 1 11.007 1.57224 14.1519 -8.94967
205 1 12.5794 1.51039e-15 12.5794 -8.94968
206 1 14.1518 1.57235 14.1518 -8.94967
207 1 15.7242 5.51743e-16 12.5794 -8.94966
208 1 17.2966 1.57241 14.1518 -8.94963
209 1 18.8691 1.5111e-15 12.5794 -8.94963
210 1 20.4415 1.57242 14.1518 -8.94964
211 1 1.054e-06 3.14484 12.5794 -8.94963
212 1 1.57241 4.71726 14.1518 -8.94965
213 1 3.14484 3.14485 12.5794 -8.9497
214 1 4.71707 4.71713 14.1519 -8.94937
215 1 6.28946 3.14455 12.5795 -8.94924
216 1 7.86144 4.71594 14.1526 -8.94951
217 1 9.43456 3.14347 12.5794 -8.95206
218 1 11.0075 4.71619 14.1525 -8.94809
219 1 12.5795 3.1444 12.5795 -8.94966
220 1 14.1521 4.71675 14.152 -8.94987
221 1 15.7243 3.14473 12.5794 -8.9496
222 1 17.2967 4.7172 14.1518 -8.94957
223 1 18.8691 3.14484 12.5794 -8.94965
224 1 20.4415 4.71726 14.1518 -8.94963
225 1 5.06955e-06 6.28968 12.5794 -8.94966
226 1 1.57231 7.86206 14.1518 -8.94971
227 1 3.14469 6.28961 12.5794 -8.94965
228 1 4.71644 7.86194 14.152 -8.9507
229 1 6.28866 6.28865 12.5804 -8.94747
230 1 7.85713 7.85738 14.1577 -8.98269
231 1 9.43444 6.28023 12.5794 -8.96474
232 1 11.009 7.86073 14.1538 -9.00196
233 1 12.5801 6.28758 12.5799 -8.9515
234 1 14.1543 7.85982 14.1532 -8.94625
235 1 15.7248 6.28917 12.5796 -8.94876
236 1 17.2971 7.86194 14.1519 -8.94996
237 1 18.8692 6.28963 12.5794 -8.94959
238 1 20.4415 7.8621 14.1518 -8.94973
239 1 -5.15034e-05 9.43451 12.5794 -8.94972
240 1 3.1443 9.43443 12.5795 -8.94937
241 1 6.28806 9.43498 12.5806 -9.00088
242 1 9.41135 9.38247 12.5794 -9.26737
243 1 12.5892 9.42473 12.5828 -9.01237
244 1 15.726 9.43418 12.5795 -8.95195
245 1 18.8693 9.43454 12.5794 -8.94997
246 1 3.18511e-07 -1.219e-15 15.7242 -8.94964
247 1 1.57242 1.57242 17.2966 -8.94964
248 1 3.14484 -8.32513e-16 15.7242 -8.94962
249 1 4.71724 1.57239 17.2967 -8.94961
250 1 6.28966 5.46989e-16 15.7242 -8.94969
251 1 7.86211 1.57242 17.2966 -8.94963
252 1 9.43453 5.70105e-16 15.7242 -8.9496
253 1 11.0069 1.57241 17.2966 -8.94963
254 1 12.5794 1.67676e-15 15.7242 -8.94967
255 1 14.1518 1.57239 17.2967 -8.94962
256 1 15.7242 1.99733e-15 15.7242 -8.94964
257 1 17.2966 1.57241 17.2966 -8.94963
258 1 18.8691 5.33411e-16 15.7242 -8.94963
259 1 20.4415 1.57242 17.2966 -8.94963
260 1 22.0139 3.14484 15.7242 -8.94963
261 1 1.57241 4.71726 17.2966 -8.94966
262 1 3.14483 3.14484 15.7242 -8.94963
263 1 4.71709 4.71707 17.2968 -8.94918
264 1 6.28952 3.14459 15.7244 -8.94961
265 1 7.86215 4.71721 17.2967 -8.94992
266 1 9.43454 3.14472 15.7243 -8.94948
267 1 11.0069 4.71717 17.2968 -8.94957
268 1 12.5795 3.14459 15.7244 -8.94961
269 1 14.1519 4.71705 17.2968 -8.9497
270 1 15.7243 3.14477 15.7243 -8.94963
271 1 17.2967 4.71722 17.2967 -8.9495
272 1 18.8691 3.14484 15.7242 -8.94963
273 1 20.4415 4.71726 17.2966 -8.94963
274 1 -6.87278e-06 6.28968 15.7242 -8.94965
275 1 1.57236 7.86208 17.2967 -8.94963
276 1 3.1447 6.28963 15.7243 -8.9498
277 1 4.71695 7.86189 17.2969 -8.94929
278 1 6.28856 6.28855 15.7255 -8.94755
279 1 7.86155 7.86154 17.2979 -8.95046
280 1 9.43479 6.28916 15.7243 -8.94997
281 1 11.0067 7.86201 17.2972 -8.94999
282 1 12.5798 6.28855 15.7247 -8.95067
283 1 14.153 7.86091 17.2979 -8.9475
284 1 15.7246 6.28931 15.7246 -8.9488
285 1 17.2967 7.86212 17.2966 -8.94995
286 1 18.8691 6.28965 15.7243 -8.94964
287 1 20.4415 7.86211 17.2966 -8.94966
288 1 22.0139 9.43452 15.7242 -8.94969
289 1 3.14448 9.43445 15.7244 -8.94979
290 1 6.28805 9.43415 15.7257 -8.94879
291 1 9.43197 9.43242 15.7261 -9.00133
292 1 12.5846 9.42887 15.7296 -8.98032
293 1 15.7248 9.43466 15.7241 -8.95137
294 1 18.8691 9.43455 15.7242 -8.9497
295 1 22.0139 1.32684e-15 18.8691 -8.94964
296 1 1.57242 1.57242 20.4415 -8.94962
297 1 3.14484 -1.49127e-16 18.8691 -8.94962
298 1 4.71727 1.57242 20.4415 -8.94965
299 1 6.28969 1.58117e-15 18.8691 -8.94964
300 1 7.86211 1.57242 20.4415 -8.94963
301 1 9.43453 8.1671e-16 18.8691 -8.94964
302 1 11.007 1.57242 20.4415 -8.94963
303 1 12.5794 7.52389e-16 18.8691 -8.94964
304 1 14.1518 1.57242 20.4415 -8.94964
305 1 15.7242 1.13924e-15 18.8691 -8.94962
306 1 17.2966 1.57242 20.4415 -8.94963
307 1 18.8691 2.1008e-15 18.8691 -8.94963
308 1 20.4415 1.57242 20.4415 -8.94963
309 1 1.77294e-08 3.14484 18.8691 -8.94963
310 1 1.57242 4.71726 20.4415 -8.94962
311 1 3.14483 3.14482 18.8691 -8.94956
312 1 4.71724 4.71724 20.4415 -8.94961
313 1 6.28969 3.14484 18.8691 -8.94971
314 1 7.86211 4.71725 20.4415 -8.94965
315 1 9.43453 3.14482 18.8691 -8.94963
316 1 11.007 4.71725 20.4415 -8.94964
317 1 12.5794 3.14483 18.8691 -8.94965
318 1 14.1518 4.71726 20.4415 -8.94971
319 1 15.7242 3.14482 18.8691 -8.94963
320 1 17.2967 4.71724 20.4415 -8.94955
321 1 18.8691 3.14484 18.8691 -8.94962
322 1 20.4415 4.71726 20.4415 -8.94964
323 1 22.0139 6.28968 18.8691 -8.94963
324 1 1.57242 7.86211 20.4415 -8.94964
325 1 3.1448 6.28965 18.8691 -8.94957
326 1 4.71722 7.86208 20.4415 -8.94966
327 1 6.28956 6.28955 18.8693 -8.94963
328 1 7.86196 7.86194 20.4417 -8.94963
329 1 9.43455 6.28954 18.8691 -8.94955
330 1 11.0069 7.86204 20.4416 -8.94947
331 1 12.5793 6.28961 18.8691 -8.9499
332 1 14.152 7.86192 20.4417 -8.9496
333 1 15.7244 6.28951 18.8693 -8.94916
334 1 17.2966 7.86213 20.4415 -8.9497
335 1 18.8691 6.28969 18.8691 -8.94968
336 1 20.4415 7.86211 20.4415 -8.94963
337 1 -5.03501e-06 9.43453 18.8691 -8.94963
338 1 3.1448 9.43452 18.8691 -8.94963
339 1 6.28947 9.43449 18.8694 -8.94995
340 1 9.43389 9.43386 18.8702 -8.94815
341 1 12.5801 9.43379 18.8705 -8.94947
342 1 15.7243 9.4346 18.869 -8.94974
343 1 18.8691 9.43453 18.8691 -8.94961
344 1 1.57242 11.007 1.57242 -8.94964
345 1 4.71722 11.007 1.57236 -8.94959
346 1 7.86207 11.007 1.57224 -8.94969
347 1 11.0069 11.007 1.57119 -8.95265
348 1 14.1519 11.007 1.57237 -8.94927
349 1 17.2966 11.007 1.57242 -8.94965
350 1 20.4415 11.007 1.57242 -8.94964
351 1 22.0139 12.5794 6.47963e-16 -8.94964
352 1 1.57242 14.1518 1.57242 -8.94964
353 1 3.14484 12.5794 2.25126e-15 -8.94962
354 1 4.71722 14.1518 1.57237 -8.94966
355 1 6.28966 12.5794 2.33767e-15 -8.94975
356 1 7.86196 14.152 1.57218 -8.94963
357 1 9.43439 12.5795 6.9529e-16 -8.9497
358 1 11.0069 14.1519 1.57232 -8.94947
359 1 12.5795 12.5795 6.43868e-16 -8.94998
360 1 14.152 14.152 1.57218 -8.9496
361 1 15.7242 12.5794 2.0813e-15 -8.94958
362 1 17.2966 14.1518 1.57244 -8.9497
363 1 18.8691 12.5794 4.22836e-16 -8.94963
364 1 20.4415 14.1518 1.57242 -8.94963
365 1 -6.8896e-07 15.7242 4.04123e-16 -8.94964
366 1 1.57242 17.2966 1.57242 -8.94962
367 1 3.14483 15.7242 1.69764e-15 -8.94963
368 1 4.71724 17.2967 1.5724 -8.94961
369 1 6.28964 15.7243 2.07766e-15 -8.94959
370 1 7.86211 17.2967 1.57241 -8.94965
371 1 9.43454 15.7242 1.37663e-15 -8.94963
372 1 11.007 17.2967 1.5724 -8.94964
373 1 12.5794 15.7242 1.51289e-15 -8.94962
374 1 14.1518 17.2966 1.57242 -8.94971
375 1 15.7243 15.7243 5.68099e-16 -8.94956
376 1 17.2967 17.2967 1.5724 -8.94955
377 1 18.8691 15.7242 -3.6747e-16 -8.94966
378 1 20.4415 17.2966 1.57242 -8.94964
379 1 22.0139 18.8691 3.93362e-17 -8.94963
380 1 1.57242 20.4415 1.57242 -8.94962
381 1 3.14484 18.8691 7.71778e-16 -8.94963
382 1 4.71727 20.4415 1.57242 -8.94965
383 1 6.28969 18.8691 1.31811e-15 -8.94964
384 1 7.86211 20.4415 1.57242 -8.94963
385 1 9.43453 18.8691 1.30985e-15 -8.94964
386 1 11.007 20.4415 1.57242 -8.94963
387 1 12.5794 18.8691 4.17557e-16 -8.94963
388 1 14.1518 20.4415 1.57242 -8.94964
389 1 15.7242 18.8691 8.06934e-16 -8.94966
390 1 17.2966 20.4415 1.57242 -8.94963
391 1 18.8691 18.8691 1.25242e-15 -8.94961
392 1 20.4415 20.4415 1.57242 -8.94963
393 1 1.57236 11.007 4.71724 -8.94961
394 1 4.71694 11.007 4.71694 -8.94909
395 1 7.86193 11.007 4.7162 -8.95077
396 1 11.0072 11.007 4.70751 -8.96578
397 1 14.1519 11.007 4.71717 -8.94901
398 1 17.2967 11.007 4.71721 -8.94944
399 1 20.4415 11.007 4.71726 -8.94964
400 1 -5.03501e-06 12.5794 3.14484 -8.94963
401 1 1.57236 14.1518 4.71723 -8.94963
402 1 3.1448 12.5794 3.14481 -8.94963
403 1 4.71695 14.152 4.71699 -8.94929
404 1 6.28947 12.5794 3.14452 -8.94995
405 1 7.86155 14.1524 4.71601 -8.95046
406 1 9.43389 12.58 3.14373 -8.94815
407 1 11.0067 14.1519 4.71674 -8.94999
408 1 12.5801 12.5801 3.14342 -8.94947
409 1 14.153 14.153 4.71601 -8.9475
410 1 15.7243 12.5793 3.14489 -8.94974
411 1 17.2967 14.1518 4.71726 -8.94995
412 1 18.8691 12.5794 3.14484 -8.94961
413 1 20.4415 14.1518 4.71726 -8.94966
414 1 22.0139 15.7242 3.14484 -8.94963
415 1 1.57241 17.2966 4.71726 -8.94966
416 1 3.1448 15.7243 3.14481 -8.94957
417 1 4.71709 17.2968 4.71709 -8.94918
418 1 6.28956 15.7244 3.1446 -8.94963
419 1 7.86215 17.2967 4.71719 -8.94992
420 1 9.43455 15.7244 3.14475 -8.94955
421 1 11.0069 17.2967 4.71711 -8.94957
422 1 12.5793 15.7243 3.1448 -8.9499
423 1 14.1519 17.2969 4.71714 -8.9497
424 1 15.7244 15.7244 3.14463 -8.94916
425 1 17.2967 17.2967 4.71721 -8.9495
426 1 18.8691 15.7242 3.14484 -8.94968
427 1 20.4415 17.2966 4.71726 -8.94963
428 1 1.77294e-08 18.8691 3.14484 -8.94963
429 1 1.57242 20.4415 4.71727 -8.94964
430 1 3.14483 18.8691 3.14483 -8.94956
431 1 4.71724 20.4415 4.71724 -8.94961
432 1 6.28969 18.8691 3.14484 -8.94971
433 1 7.86211 20.4415 4.71726 -8.94963
434 1 9.43453 18.8691 3.14483 -8.94963
435 1 11.0069 20.4415 4.71725 -8.94963
436 1 12.5794 18.8691 3.14483 -8.94965
437 1 14.1518 20.4415 4.71724 -8.94962
438 1 15.7242 18.8691 3.14483 -8.94963
439 1 17.2966 20.4415 4.71726 -8.94963
440 1 18.8691 18.8691 3.14484 -8.94962
441 1 20.4415 20.4415 4.71726 -8.94963
442 1 1.5722 11.007 7.86209 -8.94981
443 1 4.71596 11.007 7.8616 -8.94997
444 1 7.85788 11.007 7.85751 -8.98248
445 1 11.0312 11.007 7.80602 -9.23283
446 1 14.1516 11.007 7.86332 -9.00164
447 1 17.2969 11.007 7.86203 -8.94884
448 1 20.4415 11.007 7.86209 -8.94963
449 1 22.0139 12.5794 6.28967 -8.94969
450 1 1.57231 14.1518 7.86209 -8.94971
451 1 3.14448 12.5795 6.28952 -8.94979
452 1 4.71644 14.152 7.86191 -8.9507
453 1 6.28805 12.5798 6.28823 -8.94879
454 1 7.85713 14.1565 7.85618 -8.98269
455 1 9.43197 12.5815 6.28779 -9.00133
456 1 11.009 14.1532 7.86006 -9.00196
457 1 12.5846 12.585 6.28429 -8.98032
458 1 14.1543 14.1541 7.86067 -8.94625
459 1 15.7248 12.5792 6.28979 -8.95137
460 1 17.2971 14.152 7.86199 -8.94996
461 1 18.8691 12.5794 6.28967 -8.9497
462 1 20.4415 14.1518 7.8621 -8.94973
463 1 -6.87278e-06 15.7242 6.28968 -8.94965
464 1 1.57241 17.2966 7.86211 -8.94965
465 1 3.1447 15.7243 6.28965 -8.9498
466 1 4.71707 17.2968 7.86202 -8.94937
467 1 6.28856 15.7253 6.28844 -8.94755
468 1 7.86144 17.298 7.86134 -8.94951
469 1 9.43479 15.7247 6.28959 -8.94997
470 1 11.0075 17.2977 7.86137 -8.94809
471 1 12.5798 15.7253 6.28917 -8.95067
472 1 14.1521 17.2971 7.86195 -8.94987
473 1 15.7246 15.7246 6.28931 -8.9488
474 1 17.2967 17.2967 7.86206 -8.94957
475 1 18.8691 15.7242 6.28965 -8.94964
476 1 20.4415 17.2966 7.8621 -8.94963
477 1 22.0139 18.8691 6.28969 -8.94963
478 1 1.57242 20.4415 7.86211 -8.94965
479 1 3.14483 18.8691 6.28969 -8.94963
480 1 4.71723 20.4415 7.86209 -8.94957
481 1 6.28952 18.8693 6.28952 -8.94961
482 1 7.86203 20.4417 7.86203 -8.94981
483 1 9.43454 18.8692 6.28962 -8.94948
484 1 11.007 20.4417 7.86201 -8.94967
485 1 12.5795 18.8693 6.28953 -8.94961
486 1 14.1518 20.4415 7.86208 -8.94967
487 1 15.7243 18.8691 6.28964 -8.94963
488 1 17.2966 20.4415 7.8621 -8.94963
489 1 18.8691 18.8691 6.28968 -8.94963
490 1 20.4415 20.4415 7.86211 -8.94964
491 1 -5.15034e-05 12.5794 9.43452 -8.94972
492 1 3.1443 12.5795 9.43439 -8.94937
493 1 6.28806 12.5789 9.43332 -9.00088
494 1 9.41135 12.6314 9.43451 -9.26737
495 1 12.5892 12.5892 9.43106 -9.01237
496 1 15.726 12.5797 9.43445 -8.95195
497 1 18.8693 12.5794 9.4345 -8.94997
498 1 5.06955e-06 15.7242 9.43453 -8.94966
499 1 3.14469 15.7243 9.43452 -8.94965
500 1 6.28866 15.7253 9.43354 -8.94747
501 1 9.43444 15.7337 9.43455 -8.96474
502 1 12.5801 15.7263 9.43402 -8.9515
503 1 15.7248 15.7247 9.43432 -8.94876
504 1 18.8692 15.7243 9.4345 -8.94959
505 1 1.054e-06 18.8691 9.43453 -8.94963
506 1 3.14484 18.869 9.43455 -8.9497
507 1 6.28946 18.8694 9.43437 -8.94924
508 1 9.43456 18.8704 9.43448 -8.95206
509 1 12.5795 18.8695 9.43438 -8.94966
510 1 15.7243 18.8692 9.4345 -8.9496
511 1 18.8691 18.8691 9.43453 -8.94965
688 2 10.2044 11.007 9.41 0.8222
512 1 1.57209 11.007 11.007 -8.95008
513 1 4.71518 11.007 11.007 -8.95151
514 1 7.85325 11.007 11.007 -9.01217
515 1 11.0649 11.007 11.007 -9.44846
516 1 14.1536 11.007 11.007 -9.05146
517 1 17.2973 11.007 11.007 -8.94921
518 1 20.4415 11.007 11.007 -8.94973
519 1 1.57231 14.1518 11.007 -8.94981
520 1 4.71619 14.1517 11.007 -8.95236
521 1 7.85345 14.1597 11.007 -9.01098
522 1 11.0118 14.1551 11.007 -9.05107
523 1 14.1551 14.1544 11.007 -8.94697
524 1 17.2973 14.1521 11.007 -8.94997
525 1 20.4416 14.1518 11.007 -8.94977
526 1 1.57242 17.2966 11.007 -8.9496
527 1 4.71718 17.2966 11.007 -8.94993
528 1 7.8607 17.2991 11.007 -8.94863
529 1 11.0081 17.2987 11.007 -8.94682
530 1 14.1522 17.2972 11.007 -8.95019
531 1 17.2967 17.2967 11.007 -8.94964
532 1 20.4415 17.2966 11.007 -8.94963
533 1 1.57242 20.4415 11.007 -8.94963
534 1 4.71725 20.4415 11.007 -8.94959
535 1 7.86194 20.4418 11.007 -8.94997
536 1 11.0071 20.4418 11.007 -8.94973
537 1 14.1518 20.4416 11.007 -8.94975
538 1 17.2966 20.4415 11.007 -8.94962
539 1 20.4415 20.4415 11.007 -8.94964
540 1 1.5722 11.007 14.1518 -8.94981
541 1 4.71596 11.007 14.1523 -8.94997
542 1 7.85788 11.007 14.1564 -8.98248
543 1 11.0312 11.007 14.2079 -9.23283
544 1 14.1516 11.007 14.1506 -9.00164
545 1 17.2969 11.007 14.1519 -8.94884
546 1 20.4415 11.007 14.1518 -8.94963
547 1 -5.15034e-05 12.5794 12.5794 -8.94972
548 1 1.57231 14.1518 14.1518 -8.94971
549 1 3.1443 12.5795 12.5795 -8.94937
550 1 4.71644 14.152 14.152 -8.9507
551 1 6.28806 12.5789 12.5806 -9.00088
552 1 7.85713 14.1565 14.1577 -8.98269
553 1 9.41135 12.6314 12.5794 -9.26737
554 1 11.009 14.1532 14.1538 -9.00196
555 1 12.5892 12.5892 12.5828 -9.01237
556 1 14.1543 14.1541 14.1532 -8.94625
557 1 15.726 12.5797 12.5795 -8.95195
558 1 17.2971 14.152 14.1519 -8.94996
559 1 18.8693 12.5794 12.5794 -8.94997
560 1 20.4415 14.1518 14.1518 -8.94973
561 1 5.06955e-06 15.7242 12.5794 -8.94966
562 1 1.57241 17.2966 14.1518 -8.94965
563 1 3.14469 15.7243 12.5794 -8.94965
564 1 4.71707 17.2968 14.1519 -8.94937
565 1 6.28866 15.7253 12.5804 -8.94747
566 1 7.86144 17.298 14.1526 -8.94951
567 1 9.43444 15.7337 12.5794 -8.96474
568 1 11.0075 17.2977 14.1525 -8.94809
569 1 12.5801 15.7263 12.5799 -8.9515
570 1 14.1521 17.2971 14.152 -8.94987
571 1 15.7248 15.7247 12.5796 -8.94876
572 1 17.2967 17.2967 14.1518 -8.94957
573 1 18.8692 15.7243 12.5794 -8.94959
574 1 20.4415 17.2966 14.1518 -8.94963
575 1 1.054e-06 18.8691 12.5794 -8.94963
576 1 1.57242 20.4415 14.1518 -8.94965
577 1 3.14484 18.869 12.5794 -8.9497
578 1 4.71723 20.4415 14.1518 -8.94957
579 1 6.28946 18.8694 12.5795 -8.94924
580 1 7.86203 20.4417 14.1519 -8.94981
581 1 9.43456 18.8704 12.5794 -8.95206
582 1 11.007 20.4417 14.1519 -8.94967
583 1 12.5795 18.8695 12.5795 -8.94966
584 1 14.1518 20.4415 14.1518 -8.94967
585 1 15.7243 18.8692 12.5794 -8.9496
586 1 17.2966 20.4415 14.1518 -8.94963
587 1 18.8691 18.8691 12.5794 -8.94965
588 1 20.4415 20.4415 14.1518 -8.94964
589 1 1.57236 11.007 17.2967 -8.94961
590 1 4.71694 11.007 17.297 -8.94909
591 1 7.86193 11.007 17.2977 -8.95077
592 1 11.0072 11.007 17.3064 -8.96578
593 1 14.1519 11.007 17.2967 -8.94901
594 1 17.2967 11.007 17.2967 -8.94944
595 1 20.4415 11.007 17.2966 -8.94964
596 1 22.0139 12.5794 15.7242 -8.94969
597 1 1.57236 14.1518 17.2967 -8.94963
598 1 3.14448 12.5795 15.7244 -8.94979
599 1 4.71695 14.152 17.2969 -8.94929
600 1 6.28805 12.5798 15.7257 -8.94879
601 1 7.86155 14.1524 17.2979 -8.95046
602 1 9.43197 12.5815 15.7261 -9.00133
603 1 11.0067 14.1519 17.2972 -8.94999
604 1 12.5846 12.585 15.7296 -8.98032
605 1 14.153 14.153 17.2979 -8.9475
606 1 15.7248 12.5792 15.7241 -8.95137
607 1 17.2967 14.1518 17.2966 -8.94995
608 1 18.8691 12.5794 15.7242 -8.9497
609 1 20.4415 14.1518 17.2966 -8.94966
610 1 -6.87278e-06 15.7242 15.7242 -8.94965
611 1 1.57241 17.2966 17.2966 -8.94966
612 1 3.1447 15.7243 15.7243 -8.9498
613 1 4.71709 17.2968 17.2968 -8.94918
614 1 6.28856 15.7253 15.7255 -8.94755
615 1 7.86215 17.2967 17.2967 -8.94992
616 1 9.43479 15.7247 15.7243 -8.94997
617 1 11.0069 17.2967 17.2968 -8.94957
618 1 12.5798 15.7253 15.7247 -8.95067
619 1 14.1519 17.2969 17.2968 -8.9497
620 1 15.7246 15.7246 15.7246 -8.9488
621 1 17.2967 17.2967 17.2967 -8.9495
622 1 18.8691 15.7242 15.7243 -8.94964
623 1 20.4415 17.2966 17.2966 -8.94963
624 1 22.0139 18.8691 15.7242 -8.94963
625 1 1.57242 20.4415 17.2966 -8.94964
626 1 3.14483 18.8691 15.7242 -8.94963
627 1 4.71724 20.4415 17.2967 -8.94961
628 1 6.28952 18.8693 15.7244 -8.94961
629 1 7.86211 20.4415 17.2966 -8.94963
630 1 9.43454 18.8692 15.7243 -8.94948
631 1 11.0069 20.4415 17.2966 -8.94963
632 1 12.5795 18.8693 15.7244 -8.94961
633 1 14.1518 20.4415 17.2967 -8.94962
634 1 15.7243 18.8691 15.7243 -8.94963
635 1 17.2966 20.4415 17.2966 -8.94963
636 1 18.8691 18.8691 15.7242 -8.94963
637 1 20.4415 20.4415 17.2966 -8.94963
638 1 1.57242 11.007 20.4415 -8.94964
639 1 4.71722 11.007 20.4415 -8.94959
640 1 7.86207 11.007 20.4417 -8.94969
641 1 11.0069 11.007 20.4427 -8.95265
642 1 14.1519 11.007 20.4415 -8.94927
643 1 17.2966 11.007 20.4415 -8.94965
644 1 20.4415 11.007 20.4415 -8.94964
645 1 -5.03501e-06 12.5794 18.8691 -8.94963
646 1 1.57242 14.1518 20.4415 -8.94964
647 1 3.1448 12.5794 18.8691 -8.94963
648 1 4.71722 14.1518 20.4415 -8.94966
649 1 6.28947 12.5794 18.8694 -8.94995
650 1 7.86196 14.152 20.4417 -8.94963
651 1 9.43389 12.58 18.8702 -8.94815
652 1 11.0069 14.1519 20.4416 -8.94947
653 1 12.5801 12.5801 18.8705 -8.94947
654 1 14.152 14.152 20.4417 -8.9496
655 1 15.7243 12.5793 18.869 -8.94974
656 1 17.2966 14.1518 20.4415 -8.9497
657 1 18.8691 12.5794 18.8691 -8.94961
658 1 20.4415 14.1518 20.4415 -8.94963
659 1 22.0139 15.7242 18.8691 -8.94963
660 1 1.57242 17.2966 20.4415 -8.94962
661 1 3.1448 15.7243 18.8691 -8.94957
662 1 4.71724 17.2967 20.4415 -8.94961
663 1 6.28956 15.7244 18.8693 -8.94963
664 1 7.86211 17.2967 20.4415 -8.94965
665 1 9.43455 15.7244 18.8691 -8.94955
666 1 11.007 17.2967 20.4415 -8.94964
667 1 12.5793 15.7243 18.8691 -8.9499
668 1 14.1518 17.2966 20.4415 -8.94971
669 1 15.7244 15.7244 18.8693 -8.94916
670 1 17.2967 17.2967 20.4415 -8.94955
671 1 18.8691 15.7242 18.8691 -8.94968
672 1 20.4415 17.2966 20.4415 -8.94964
673 1 1.77294e-08 18.8691 18.8691 -8.94963
674 1 1.57242 20.4415 20.4415 -8.94962
675 1 3.14483 18.8691 18.8691 -8.94956
676 1 4.71727 20.4415 20.4415 -8.94965
677 1 6.28969 18.8691 18.8691 -8.94971
678 1 7.86211 20.4415 20.4415 -8.94963
679 1 9.43453 18.8691 18.8691 -8.94963
680 1 11.007 20.4415 20.4415 -8.94963
681 1 12.5794 18.8691 18.8691 -8.94965
682 1 14.1518 20.4415 20.4415 -8.94964
683 1 15.7242 18.8691 18.8691 -8.94963
684 1 17.2966 20.4415 20.4415 -8.94963
685 1 18.8691 18.8691 18.8691 -8.94962
686 1 20.4415 20.4415 20.4415 -8.94963
687 2 10.2044 11.007 12.6039 0.8222
