ITEM: TIMESTEP
31
ITEM: NUMBER OF ATOMS
688
ITEM: BOX BOUNDS pp pp pp
0.0000000000000000e+00 2.2013900999999997e+01
0.0000000000000000e+00 2.2013900999999997e+01
0.0000000000000000e+00 2.2013900999999997e+01
ITEM: ATOMS id type x y z c_pot
1 1 7.27992e-12 7.25989e-16 2.32028e-16 -8.94963
2 1 1.57242 1.57242 1.57242 -8.94963
3 1 3.14484 4.37378e-16 7.82601e-17 -8.94963
4 1 4.71726 1.57242 1.57242 -8.94963
5 1 6.28969 3.7462e-16 -9.14693e-17 -8.94963
6 1 7.86211 1.57242 1.57242 -8.94963
7 1 9.43453 4.09061e-16 -2.80309e-18 -8.94963
8 1 11.007 1.57242 1.57242 -8.94963
9 1 12.5794 -4.40834e-16 -3.58142e-17 -8.94963
10 1 14.1518 1.57242 1.57242 -8.94963
11 1 15.7242 -8.30162e-17 3.33955e-16 -8.94963
12 1 17.2966 1.57242 1.57242 -8.94963
13 1 18.8691 1.64195e-16 1.54606e-16 -8.94963
14 1 20.4415 1.57242 1.57242 -8.94963
15 1 22.0139 3.14484 3.43156e-16 -8.94963
16 1 1.57242 4.71726 1.57242 -8.94963
17 1 3.14484 3.14484 2.22418e-16 -8.94963
18 1 4.71726 4.71726 1.57242 -8.94963
19 1 6.28969 3.14484 1.72445e-16 -8.94963
20 1 7.86211 4.71726 1.57242 -8.94963
21 1 9.43453 3.14484 2.68264e-16 -8.94963
22 1 11.007 4.71726 1.57242 -8.94963
23 1 12.5794 3.14484 1.37221e-16 -8.94963
24 1 14.1518 4.71726 1.57242 -8.94963
25 1 15.7242 3.14484 1.56998e-16 -8.94963
26 1 17.2966 4.71726 1.57242 -8.94963
27 1 18.8691 3.14484 4.1398e-16 -8.94963
28 1 20.4415 4.71726 1.57242 -8.94963
29 1 4.29698e-10 6.28969 6.92592e-17 -8.94963
30 1 1.57242 7.86211 1.57242 -8.94963
31 1 3.14484 6.28969 5.24035e-16 -8.94963
32 1 4.71726 7.86211 1.57242 -8.94963
33 1 6.28969 6.28969 4.65e-16 -8.94963
34 1 7.86211 7.86211 1.57242 -8.94963
35 1 9.43453 6.28969 6.88901e-16 -8.94963
36 1 11.007 7.86211 1.57242 -8.94964
37 1 12.5794 6.28969 3.9278e-16 -8.94963
38 1 14.1518 7.86211 1.57242 -8.94963
39 1 15.7242 6.28969 1.69408e-16 -8.94963
40 1 17.2966 7.86211 1.57242 -8.94963
41 1 18.8691 6.28969 -1.99747e-16 -8.94963
42 1 20.4415 7.86211 1.57242 -8.94963
43 1 22.0139 9.43453 2.55254e-16 -8.94963
44 1 3.14484 9.43453 3.53896e-16 -8.94963
45 1 6.28969 9.43453 5.31872e-16 -8.94963
46 1 9.43453 9.43453 4.21051e-16 -8.94963
47 1 12.5794 9.43453 2.75434e-16 -8.94963
48 1 15.7242 9.43453 6.2202e-16 -8.94963
49 1 18.8691 9.43453 2.54942e-16 -8.94963
50 1 22.0139 2.84561e-16 3.14484 -8.94963
51 1 1.57242 1.57242 4.71726 -8.94963
52 1 3.14484 1.30898e-16 3.14484 -8.94963
53 1 4.71726 1.57242 4.71726 -8.94963
54 1 6.28969 4.03838e-16 3.14484 -8.94963
55 1 7.86211 1.57242 4.71726 -8.94963
56 1 9.43453 2.68258e-16 3.14484 -8.94963
57 1 11.007 1.57242 4.71726 -8.94963
58 1 12.5794 4.29827e-16 3.14484 -8.94963
59 1 14.1518 1.57242 4.71726 -8.94963
60 1 15.7242 3.00487e-16 3.14484 -8.94963
61 1 17.2966 1.57242 4.71726 -8.94963
62 1 18.8691 2.07095e-16 3.14484 -8.94963
63 1 20.4415 1.57242 4.71726 -8.94963
64 1 8.05553e-10 3.14484 3.14484 -8.94963
65 1 1.57242 4.71726 4.71726 -8.94963
66 1 3.14484 3.14484 3.14484 -8.94963
67 1 4.71726 4.71726 4.71726 -8.94964
68 1 6.28969 3.14484 3.14484 -8.94963
69 1 7.86211 4.71726 4.71726 -8.94964
70 1 9.43453 3.14484 3.14484 -8.94963
71 1 11.007 4.71726 4.71726 -8.94963
72 1 12.5794 3.14484 3.14484 -8.94963
73 1 14.1518 4.71726 4.71726 -8.94963
74 1 15.7242 3.14484 3.14484 -8.94963
75 1 17.2966 4.71726 4.71726 -8.94963
76 1 18.8691 3.14484 3.14484 -8.94963
77 1 20.4415 4.71726 4.71726 -8.94963
78 1 22.0139 6.28969 3.14484 -8.94963
79 1 1.57242 7.86211 4.71726 -8.94963
80 1 3.14484 6.28969 3.14484 -8.94963
81 1 4.71726 7.8621 4.71726 -8.94959
82 1 6.28969 6.28969 3.14484 -8.94963
83 1 7.86211 7.86211 4.71726 -8.94967
84 1 9.43453 6.28969 3.14484 -8.94963
85 1 11.0069 7.86212 4.71728 -8.95001
86 1 12.5794 6.28969 3.14484 -8.94964
87 1 14.1518 7.86212 4.71727 -8.94971
88 1 15.7242 6.28969 3.14484 -8.94964
89 1 17.2966 7.86211 4.71727 -8.94964
90 1 18.8691 6.28969 3.14484 -8.94963
91 1 20.4415 7.86211 4.71726 -8.94963
92 1 7.28185e-09 9.43453 3.14484 -8.94963
93 1 3.14484 9.43453 3.14484 -8.94964
94 1 6.28968 9.43453 3.14484 -8.94965
95 1 9.43452 9.43452 3.14484 -8.94947
96 1 12.5794 9.43452 3.14485 -8.9494
97 1 15.7242 9.43453 3.14484 -8.94964
98 1 18.8691 9.43453 3.14484 -8.94963
99 1 7.65282e-11 8.11772e-17 6.28969 -8.94963
100 1 1.57242 1.57242 7.86211 -8.94963
101 1 3.14484 7.88611e-17 6.28969 -8.94963
102 1 4.71726 1.57242 7.86211 -8.94963
103 1 6.28969 -1.00738e-17 6.28969 -8.94963
104 1 7.86211 1.57242 7.86211 -8.94963
105 1 9.43453 1.38863e-16 6.28969 -8.94963
106 1 11.007 1.57242 7.86211 -8.94963
107 1 12.5794 4.58797e-16 6.28969 -8.94963
108 1 14.1518 1.57242 7.86211 -8.94963
109 1 15.7242 2.39459e-16 6.28969 -8.94963
110 1 17.2966 1.57242 7.86211 -8.94963
111 1 18.8691 3.33363e-16 6.28969 -8.94963
112 1 20.4415 1.57242 7.86211 -8.94963
113 1 22.0139 3.14484 6.28969 -8.94963
114 1 1.57242 4.71726 7.86211 -8.94963
115 1 3.14484 3.14484 6.28969 -8.94963
116 1 4.71726 4.71726 7.86211 -8.94964
117 1 6.28969 3.14484 6.28969 -8.94963
118 1 7.8621 4.71727 7.8621 -8.9494
119 1 9.43453 3.14484 6.28969 -8.94964
120 1 11.007 4.71726 7.8621 -8.94948
121 1 12.5794 3.14484 6.28969 -8.94963
122 1 14.1518 4.71726 7.86211 -8.94965
123 1 15.7242 3.14484 6.28969 -8.94963
124 1 17.2966 4.71726 7.86211 -8.94963
125 1 18.8691 3.14484 6.28969 -8.94963
126 1 20.4415 4.71726 7.86211 -8.94963
127 1 3.12535e-08 6.28969 6.28969 -8.94963
128 1 1.57242 7.86211 7.86211 -8.94963
129 1 3.14484 6.28969 6.28969 -8.94964
130 1 4.71729 7.86213 7.86212 -8.94977
131 1 6.2897 6.28969 6.2897 -8.94972
132 1 7.86227 7.86255 7.86197 -8.99047
133 1 9.43453 6.2897 6.2897 -8.95
134 1 11.0072 7.86224 7.86216 -9.00543
135 1 12.5794 6.28969 6.28969 -8.94967
136 1 14.1519 7.86204 7.86205 -8.9491
137 1 15.7242 6.28968 6.28968 -8.9496
138 1 17.2966 7.86211 7.86211 -8.94964
139 1 18.8691 6.28969 6.28969 -8.94963
140 1 20.4415 7.86211 7.86211 -8.94963
141 1 22.0139 9.43453 6.28969 -8.94963
142 1 3.14484 9.43453 6.28968 -8.94964
143 1 6.2896 9.43446 6.28961 -8.949
144 1 9.43431 9.43456 6.2898 -9.00498
145 1 12.5792 9.43438 6.29013 -8.99008
146 1 15.7242 9.43455 6.28971 -8.94981
147 1 18.8691 9.43453 6.28969 -8.94963
148 1 4.33797e-10 4.3172e-16 9.43453 -8.94963
149 1 3.14484 3.16813e-16 9.43453 -8.94963
150 1 6.28969 6.45588e-16 9.43453 -8.94963
151 1 9.43453 4.77142e-16 9.43453 -8.94964
152 1 12.5794 1.42991e-16 9.43453 -8.94963
153 1 15.7242 1.08613e-16 9.43453 -8.94963
154 1 18.8691 3.08884e-16 9.43453 -8.94963
155 1 -1.56909e-09 3.14484 9.43453 -8.94963
156 1 3.14484 3.14484 9.43453 -8.94963
157 1 6.28969 3.14484 9.43453 -8.94962
158 1 9.43453 3.14483 9.43453 -8.94982
159 1 12.5794 3.14484 9.43453 -8.94965
160 1 15.7242 3.14484 9.43453 -8.94963
161 1 18.8691 3.14484 9.43453 -8.94963
162 1 2.40619e-08 6.28969 9.43453 -8.94963
163 1 3.14484 6.28969 9.43453 -8.94962
164 1 6.28974 6.28974 9.43454 -8.95025
165 1 9.43457 6.28904 9.43454 -8.95522
166 1 12.5794 6.28963 9.43453 -8.95033
167 1 15.7242 6.28969 9.43453 -8.94964
168 1 18.8691 6.28969 9.43453 -8.94963
169 1 2.66946e-07 9.43453 9.43453 -8.94963
170 1 3.14486 9.43453 9.43453 -8.94942
171 1 6.29031 9.43497 9.43445 -8.997
172 1 9.42469 9.41527 9.43474 -9.29718
173 1 12.5821 9.43246 9.43502 -9.02554
174 1 15.7243 9.43455 9.43455 -8.95067
175 1 18.8691 9.43453 9.43453 -8.94965
176 1 1.57242 1.57242 11.007 -8.94963
177 1 4.71726 1.57242 11.007 -8.94963
178 1 7.86211 1.57242 11.007 -8.94963
179 1 11.007 1.57242 11.007 -8.94963
180 1 14.1518 1.57242 11.007 -8.94963
181 1 17.2966 1.57242 11.007 -8.94963
182 1 20.4415 1.57242 11.007 -8.94963
183 1 1.57242 4.71726 11.007 -8.94963
184 1 4.71726 4.71726 11.007 -8.94964
185 1 7.86209 4.71727 11.007 -8.94917
186 1 11.007 4.71725 11.007 -8.9493
187 1 14.1518 4.71726 11.007 -8.94966
188 1 17.2966 4.71726 11.007 -8.94964
189 1 20.4415 4.71726 11.007 -8.94963
190 1 1.57242 7.86211 11.007 -8.94963
191 1 4.71731 7.86215 11.007 -8.94998
192 1 7.86242 7.863 11.007 -9.03089
193 1 11.0074 7.8624 11.007 -9.06028
194 1 14.1519 7.86196 11.007 -8.9484
195 1 17.2966 7.8621 11.007 -8.94964
196 1 20.4415 7.86211 11.007 -8.94963
197 1 4.33797e-10 4.43292e-16 12.5794 -8.94963
198 1 1.57242 1.57242 14.1518 -8.94963
199 1 3.14484 3.17148e-16 12.5794 -8.94963
200 1 4.71726 1.57242 14.1518 -8.94963
201 1 6.28969 6.84446e-16 12.5794 -8.94963
202 1 7.86211 1.57242 14.1518 -8.94963
203 1 9.43453 4.92676e-16 12.5794 -8.94964
204 1 11.007 1.57242 14.1518 -8.94963
205 1 12.5794 1.48674e-16 12.5794 -8.94963
206 1 14.1518 1.57242 14.1518 -8.94963
207 1 15.7242 1.14559e-16 12.5794 -8.94963
208 1 17.2966 1.57242 14.1518 -8.94963
209 1 18.8691 2.9855e-16 12.5794 -8.94963
210 1 20.4415 1.57242 14.1518 -8.94963
211 1 -1.56909e-09 3.14484 12.5794 -8.94963
212 1 1.57242 4.71726 14.1518 -8.94963
213 1 3.14484 3.14484 12.5794 -8.94963
214 1 4.71726 4.71726 14.1518 -8.94964
215 1 6.28969 3.14484 12.5794 -8.94962
216 1 7.8621 4.71727 14.1518 -8.9494
217 1 9.43453 3.14483 12.5794 -8.94982
218 1 11.007 4.71726 14.1518 -8.94948
219 1 12.5794 3.14484 12.5794 -8.94965
220 1 14.1518 4.71726 14.1518 -8.94965
221 1 15.7242 3.14484 12.5794 -8.94963
222 1 17.2966 4.71726 14.1518 -8.94963
223 1 18.8691 3.14484 12.5794 -8.94963
224 1 20.4415 4.71726 14.1518 -8.94963
225 1 2.40619e-08 6.28969 12.5794 -8.94963
226 1 1.57242 7.86211 14.1518 -8.94963
227 1 3.14484 6.28969 12.5794 -8.94962
228 1 4.71729 7.86213 14.1518 -8.94977
229 1 6.28974 6.28974 12.5794 -8.95025
230 1 7.86227 7.86255 14.1519 -8.99047
231 1 9.43457 6.28904 12.5794 -8.95522
232 1 11.0072 7.86224 14.1517 -9.00543
233 1 12.5794 6.28963 12.5794 -8.95033
234 1 14.1519 7.86204 14.1518 -8.9491
235 1 15.7242 6.28969 12.5794 -8.94964
236 1 17.2966 7.86211 14.1518 -8.94964
237 1 18.8691 6.28969 12.5794 -8.94963
238 1 20.4415 7.86211 14.1518 -8.94963
239 1 2.66946e-07 9.43453 12.5794 -8.94963
240 1 3.14486 9.43453 12.5794 -8.94942
241 1 6.29031 9.43497 12.5794 -8.997
242 1 9.42469 9.41527 12.5792 -9.29718
243 1 12.5821 9.43246 12.5789 -9.02554
244 1 15.7243 9.43455 12.5794 -8.95067
245 1 18.8691 9.43453 12.5794 -8.94965
246 1 7.65281e-11 1.23645e-16 15.7242 -8.94963
247 1 1.57242 1.57242 17.2966 -8.94963
248 1 3.14484 7.26662e-17 15.7242 -8.94963
249 1 4.71726 1.57242 17.2966 -8.94963
250 1 6.28969 -2.82474e-17 15.7242 -8.94963
251 1 7.86211 1.57242 17.2966 -8.94963
252 1 9.43453 1.85235e-16 15.7242 -8.94963
253 1 11.007 1.57242 17.2966 -8.94963
254 1 12.5794 5.18559e-16 15.7242 -8.94963
255 1 14.1518 1.57242 17.2966 -8.94963
256 1 15.7242 2.63332e-16 15.7242 -8.94963
257 1 17.2966 1.57242 17.2966 -8.94963
258 1 18.8691 3.06753e-16 15.7242 -8.94963
259 1 20.4415 1.57242 17.2966 -8.94963
260 1 22.0139 3.14484 15.7242 -8.94963
261 1 1.57242 4.71726 17.2966 -8.94963
262 1 3.14484 3.14484 15.7242 -8.94963
263 1 4.71726 4.71726 17.2966 -8.94964
264 1 6.28969 3.14484 15.7242 -8.94963
265 1 7.86211 4.71726 17.2966 -8.94964
266 1 9.43453 3.14484 15.7242 -8.94964
267 1 11.007 4.71726 17.2966 -8.94963
268 1 12.5794 3.14484 15.7242 -8.94963
269 1 14.1518 4.71726 17.2966 -8.94963
270 1 15.7242 3.14484 15.7242 -8.94963
271 1 17.2966 4.71726 17.2966 -8.94963
272 1 18.8691 3.14484 15.7242 -8.94963
273 1 20.4415 4.71726 17.2966 -8.94963
274 1 3.12535e-08 6.28969 15.7242 -8.94963
275 1 1.57242 7.86211 17.2966 -8.94963
276 1 3.14484 6.28969 15.7242 -8.94964
277 1 4.71726 7.8621 17.2966 -8.94959
278 1 6.2897 6.28969 15.7242 -8.94972
279 1 7.86211 7.86211 17.2966 -8.94967
280 1 9.43453 6.2897 15.7242 -8.95
281 1 11.0069 7.86212 17.2966 -8.95001
282 1 12.5794 6.28969 15.7242 -8.94967
283 1 14.1518 7.86212 17.2966 -8.94971
284 1 15.7242 6.28968 15.7242 -8.9496
285 1 17.2966 7.86211 17.2966 -8.94964
286 1 18.8691 6.28969 15.7242 -8.94963
287 1 20.4415 7.86211 17.2966 -8.94963
288 1 22.0139 9.43453 15.7242 -8.94963
289 1 3.14484 9.43453 15.7242 -8.94964
290 1 6.2896 9.43446 15.7243 -8.949
291 1 9.43431 9.43456 15.7241 -9.00498
292 1 12.5792 9.43438 15.7238 -8.99008
293 1 15.7242 9.43455 15.7242 -8.94981
294 1 18.8691 9.43453 15.7242 -8.94963
295 1 22.0139 3.07212e-16 18.8691 -8.94963
296 1 1.57242 1.57242 20.4415 -8.94963
297 1 3.14484 1.37115e-16 18.8691 -8.94963
298 1 4.71726 1.57242 20.4415 -8.94963
299 1 6.28969 4.33625e-16 18.8691 -8.94963
300 1 7.86211 1.57242 20.4415 -8.94963
301 1 9.43453 2.3635e-16 18.8691 -8.94963
302 1 11.007 1.57242 20.4415 -8.94963
303 1 12.5794 4.02288e-16 18.8691 -8.94963
304 1 14.1518 1.57242 20.4415 -8.94963
305 1 15.7242 3.57175e-16 18.8691 -8.94963
306 1 17.2966 1.57242 20.4415 -8.94963
307 1 18.8691 2.67337e-16 18.8691 -8.94963
308 1 20.4415 1.57242 20.4415 -8.94963
309 1 8.05553e-10 3.14484 18.8691 -8.94963
310 1 1.57242 4.71726 20.4415 -8.94963
311 1 3.14484 3.14484 18.8691 -8.94963
312 1 4.71726 4.71726 20.4415 -8.94963
313 1 6.28969 3.14484 18.8691 -8.94963
314 1 7.86211 4.71726 20.4415 -8.94963
315 1 9.43453 3.14484 18.8691 -8.94963
316 1 11.007 4.71726 20.4415 -8.94963
317 1 12.5794 3.14484 18.8691 -8.94963
318 1 14.1518 4.71726 20.4415 -8.94963
319 1 15.7242 3.14484 18.8691 -8.94963
320 1 17.2966 4.71726 20.4415 -8.94963
321 1 18.8691 3.14484 18.8691 -8.94963
322 1 20.4415 4.71726 20.4415 -8.94963
323 1 22.0139 6.28969 18.8691 -8.94963
324 1 1.57242 7.86211 20.4415 -8.94963
325 1 3.14484 6.28969 18.8691 -8.94963
326 1 4.71726 7.86211 20.4415 -8.94963
327 1 6.28969 6.28969 18.8691 -8.94963
328 1 7.86211 7.86211 20.4415 -8.94963
329 1 9.43453 6.28969 18.8691 -8.94963
330 1 11.007 7.86211 20.4415 -8.94964
331 1 12.5794 6.28969 18.8691 -8.94964
332 1 14.1518 7.86211 20.4415 -8.94963
333 1 15.7242 6.28969 18.8691 -8.94964
334 1 17.2966 7.86211 20.4415 -8.94963
335 1 18.8691 6.28969 18.8691 -8.94963
336 1 20.4415 7.86211 20.4415 -8.94963
337 1 7.28185e-09 9.43453 18.8691 -8.94963
338 1 3.14484 9.43453 18.8691 -8.94964
339 1 6.28968 9.43453 18.8691 -8.94965
340 1 9.43452 9.43452 18.8691 -8.94947
341 1 12.5794 9.43452 18.8691 -8.9494
342 1 15.7242 9.43453 18.8691 -8.94964
343 1 18.8691 9.43453 18.8691 -8.94963
344 1 1.57242 11.007 1.57242 -8.94963
345 1 4.71726 11.007 1.57242 -8.94963
346 1 7.86211 11.007 1.57242 -8.94966
347 1 11.007 11.007 1.57241 -8.94982
348 1 14.1518 11.007 1.57242 -8.94963
349 1 17.2966 11.007 1.57242 -8.94963
350 1 20.4415 11.007 1.57242 -8.94963
351 1 22.0139 12.5794 1.55631e-16 -8.94963
352 1 1.57242 14.1518 1.57242 -8.94963
353 1 3.14484 12.5794 4.03088e-16 -8.94963
354 1 4.71726 14.1518 1.57242 -8.94963
355 1 6.28969 12.5794 5.95659e-16 -8.94963
356 1 7.86211 14.1518 1.57242 -8.94963
357 1 9.43453 12.5794 4.03792e-16 -8.94963
358 1 11.007 14.1518 1.57242 -8.94964
359 1 12.5794 12.5794 3.02144e-16 -8.94963
360 1 14.1518 14.1518 1.57242 -8.94963
361 1 15.7242 12.5794 6.66181e-16 -8.94963
362 1 17.2966 14.1518 1.57242 -8.94963
363 1 18.8691 12.5794 3.54122e-16 -8.94963
364 1 20.4415 14.1518 1.57242 -8.94963
365 1 4.29698e-10 15.7242 -3.4068e-17 -8.94963
366 1 1.57242 17.2966 1.57242 -8.94963
367 1 3.14484 15.7242 5.08801e-16 -8.94963
368 1 4.71726 17.2966 1.57242 -8.94963
369 1 6.28969 15.7242 3.11631e-16 -8.94963
370 1 7.86211 17.2966 1.57242 -8.94963
371 1 9.43453 15.7242 6.60529e-16 -8.94963
372 1 11.007 17.2966 1.57242 -8.94963
373 1 12.5794 15.7242 3.70544e-16 -8.94963
374 1 14.1518 17.2966 1.57242 -8.94963
375 1 15.7242 15.7242 1.38649e-16 -8.94963
376 1 17.2966 17.2966 1.57242 -8.94963
377 1 18.8691 15.7242 -1.16799e-16 -8.94963
378 1 20.4415 17.2966 1.57242 -8.94963
379 1 22.0139 18.8691 3.50332e-16 -8.94963
380 1 1.57242 20.4415 1.57242 -8.94963
381 1 3.14484 18.8691 2.16631e-16 -8.94963
382 1 4.71726 20.4415 1.57242 -8.94963
383 1 6.28969 18.8691 1.7199e-16 -8.94963
384 1 7.86211 20.4415 1.57242 -8.94963
385 1 9.43453 18.8691 2.62724e-16 -8.94963
386 1 11.007 20.4415 1.57242 -8.94963
387 1 12.5794 18.8691 1.43236e-16 -8.94963
388 1 14.1518 20.4415 1.57242 -8.94963
389 1 15.7242 18.8691 1.11595e-16 -8.94963
390 1 17.2966 20.4415 1.57242 -8.94963
391 1 18.8691 18.8691 3.71343e-16 -8.94963
392 1 20.4415 20.4415 1.57242 -8.94963
393 1 1.57242 11.007 4.71726 -8.94963
394 1 4.71727 11.007 4.71727 -8.94967
395 1 7.8621 11.007 4.71721 -8.95032
396 1 11.0069 11.007 4.71659 -8.95504
397 1 14.1518 11.007 4.71732 -8.95017
398 1 17.2966 11.007 4.71726 -8.94961
399 1 20.4415 11.007 4.71726 -8.94963
400 1 7.28185e-09 12.5794 3.14484 -8.94963
401 1 1.57242 14.1518 4.71726 -8.94963
402 1 3.14484 12.5794 3.14484 -8.94964
403 1 4.71726 14.1518 4.71726 -8.94959
404 1 6.28968 12.5794 3.14484 -8.94965
405 1 7.86211 14.1518 4.71726 -8.94967
406 1 9.43452 12.5794 3.14484 -8.94947
407 1 11.0069 14.1518 4.71728 -8.95001
408 1 12.5794 12.5794 3.14485 -8.9494
409 1 14.1518 14.1518 4.71727 -8.94971
410 1 15.7242 12.5794 3.14484 -8.94964
411 1 17.2966 14.1518 4.71727 -8.94964
412 1 18.8691 12.5794 3.14484 -8.94963
413 1 20.4415 14.1518 4.71726 -8.94963
414 1 22.0139 15.7242 3.14484 -8.94963
415 1 1.57242 17.2966 4.71726 -8.94963
416 1 3.14484 15.7242 3.14484 -8.94963
417 1 4.71726 17.2966 4.71726 -8.94964
418 1 6.28969 15.7242 3.14484 -8.94963
419 1 7.86211 17.2966 4.71726 -8.94964
420 1 9.43453 15.7242 3.14484 -8.94963
421 1 11.007 17.2966 4.71726 -8.94963
422 1 12.5794 15.7242 3.14484 -8.94964
423 1 14.1518 17.2966 4.71726 -8.94963
424 1 15.7242 15.7242 3.14484 -8.94964
425 1 17.2966 17.2966 4.71726 -8.94963
426 1 18.8691 15.7242 3.14484 -8.94963
427 1 20.4415 17.2966 4.71726 -8.94963
428 1 8.05552e-10 18.8691 3.14484 -8.94963
429 1 1.57242 20.4415 4.71726 -8.94963
430 1 3.14484 18.8691 3.14484 -8.94963
431 1 4.71726 20.4415 4.71726 -8.94963
432 1 6.28969 18.8691 3.14484 -8.94963
433 1 7.86211 20.4415 4.71726 -8.94963
434 1 9.43453 18.8691 3.14484 -8.94963
435 1 11.007 20.4415 4.71726 -8.94963
436 1 12.5794 18.8691 3.14484 -8.94963
437 1 14.1518 20.4415 4.71726 -8.94963
438 1 15.7242 18.8691 3.14484 -8.94963
439 1 17.2966 20.4415 4.71726 -8.94963
440 1 18.8691 18.8691 3.14484 -8.94963
441 1 20.4415 20.4415 4.71726 -8.94963
442 1 1.57242 11.007 7.86211 -8.94966
443 1 4.7172 11.007 7.86212 -8.95055
444 1 7.85918 11.007 7.86008 -8.9856
445 1 11.0167 11.007 7.84211 -9.24728
446 1 14.151 11.007 7.86267 -8.99816
447 1 17.2966 11.007 7.8621 -8.94939
448 1 20.4415 11.007 7.86211 -8.94963
449 1 22.0139 12.5794 6.28969 -8.94963
450 1 1.57242 14.1518 7.86211 -8.94963
451 1 3.14484 12.5794 6.28968 -8.94964
452 1 4.71729 14.1518 7.86212 -8.94977
453 1 6.2896 12.5794 6.28961 -8.949
454 1 7.86227 14.1513 7.86197 -8.99047
455 1 9.43431 12.5793 6.2898 -9.00498
456 1 11.0072 14.1517 7.86216 -9.00543
457 1 12.5792 12.5795 6.29013 -8.99008
458 1 14.1519 14.1519 7.86205 -8.9491
459 1 15.7242 12.5794 6.28971 -8.94981
460 1 17.2966 14.1518 7.86211 -8.94964
461 1 18.8691 12.5794 6.28969 -8.94963
462 1 20.4415 14.1518 7.86211 -8.94963
463 1 3.12535e-08 15.7242 6.28969 -8.94963
464 1 1.57242 17.2966 7.86211 -8.94963
465 1 3.14484 15.7242 6.28969 -8.94964
466 1 4.71726 17.2966 7.86211 -8.94964
467 1 6.2897 15.7242 6.2897 -8.94972
468 1 7.8621 17.2966 7.8621 -8.9494
469 1 9.43453 15.7242 6.2897 -8.95
470 1 11.007 17.2966 7.8621 -8.94948
471 1 12.5794 15.7242 6.28969 -8.94967
472 1 14.1518 17.2966 7.86211 -8.94965
473 1 15.7242 15.7242 6.28968 -8.9496
474 1 17.2966 17.2966 7.86211 -8.94963
475 1 18.8691 15.7242 6.28969 -8.94963
476 1 20.4415 17.2966 7.86211 -8.94963
477 1 22.0139 18.8691 6.28969 -8.94963
478 1 1.57242 20.4415 7.86211 -8.94963
479 1 3.14484 18.8691 6.28969 -8.94963
480 1 4.71726 20.4415 7.86211 -8.94963
481 1 6.28969 18.8691 6.28969 -8.94963
482 1 7.86211 20.4415 7.86211 -8.94963
483 1 9.43453 18.8691 6.28969 -8.94964
484 1 11.007 20.4415 7.86211 -8.94963
485 1 12.5794 18.8691 6.28969 -8.94963
486 1 14.1518 20.4415 7.86211 -8.94963
487 1 15.7242 18.8691 6.28969 -8.94963
488 1 17.2966 20.4415 7.86211 -8.94963
489 1 18.8691 18.8691 6.28969 -8.94963
490 1 20.4415 20.4415 7.86211 -8.94963
491 1 2.66946e-07 12.5794 9.43453 -8.94963
492 1 3.14486 12.5794 9.43453 -8.94942
493 1 6.29031 12.5789 9.43445 -8.997
494 1 9.42469 12.5986 9.43474 -9.29718
495 1 12.5821 12.5814 9.43502 -9.02554
496 1 15.7243 12.5793 9.43455 -8.95067
497 1 18.8691 12.5794 9.43453 -8.94965
498 1 2.40619e-08 15.7242 9.43453 -8.94963
499 1 3.14484 15.7242 9.43453 -8.94962
500 1 6.28974 15.7242 9.43454 -8.95025
501 1 9.43457 15.7249 9.43454 -8.95522
502 1 12.5794 15.7243 9.43453 -8.95033
503 1 15.7242 15.7242 9.43453 -8.94964
504 1 18.8691 15.7242 9.43453 -8.94963
505 1 -1.56909e-09 18.8691 9.43453 -8.94963
506 1 3.14484 18.8691 9.43453 -8.94963
507 1 6.28969 18.8691 9.43453 -8.94962
508 1 9.43453 18.8691 9.43453 -8.94982
509 1 12.5794 18.8691 9.43453 -8.94965
510 1 15.7242 18.8691 9.43453 -8.94963
511 1 18.8691 18.8691 9.43453 -8.94963
688 2 10.2192 11.007 9.43177 1.06834
512 1 1.57242 11.007 11.007 -8.94968
513 1 4.71712 11.007 11.007 -8.95134
514 1 7.85635 11.007 11.007 -9.0198
515 1 11.029 11.007 11.007 -9.4775
516 1 14.1504 11.007 11.007 -9.04568
517 1 17.2966 11.007 11.007 -8.94919
518 1 20.4415 11.007 11.007 -8.94962
519 1 1.57242 14.1518 11.007 -8.94963
520 1 4.71731 14.1518 11.007 -8.94998
521 1 7.86242 14.1509 11.007 -9.03089
522 1 11.0074 14.1515 11.007 -9.06028
523 1 14.1519 14.1519 11.007 -8.9484
524 1 17.2966 14.1518 11.007 -8.94964
525 1 20.4415 14.1518 11.007 -8.94963
526 1 1.57242 17.2966 11.007 -8.94963
527 1 4.71726 17.2966 11.007 -8.94964
528 1 7.86209 17.2966 11.007 -8.94917
529 1 11.007 17.2966 11.007 -8.9493
530 1 14.1518 17.2966 11.007 -8.94966
531 1 17.2966 17.2966 11.007 -8.94964
532 1 20.4415 17.2966 11.007 -8.94963
533 1 1.57242 20.4415 11.007 -8.94963
534 1 4.71726 20.4415 11.007 -8.94963
535 1 7.86211 20.4415 11.007 -8.94963
536 1 11.007 20.4415 11.007 -8.94963
537 1 14.1518 20.4415 11.007 -8.94963
538 1 17.2966 20.4415 11.007 -8.94963
539 1 20.4415 20.4415 11.007 -8.94963
540 1 1.57242 11.007 14.1518 -8.94966
541 1 4.7172 11.007 14.1518 -8.95055
542 1 7.85918 11.007 14.1538 -8.9856
543 1 11.0167 11.007 14.1718 -9.24728
544 1 14.151 11.007 14.1512 -8.99816
545 1 17.2966 11.007 14.1518 -8.94939
546 1 20.4415 11.007 14.1518 -8.94963
547 1 2.66946e-07 12.5794 12.5794 -8.94963
548 1 1.57242 14.1518 14.1518 -8.94963
549 1 3.14486 12.5794 12.5794 -8.94942
550 1 4.71729 14.1518 14.1518 -8.94977
551 1 6.29031 12.5789 12.5794 -8.997
552 1 7.86227 14.1513 14.1519 -8.99047
553 1 9.42469 12.5986 12.5792 -9.29718
554 1 11.0072 14.1517 14.1517 -9.00543
555 1 12.5821 12.5814 12.5789 -9.02554
556 1 14.1519 14.1519 14.1518 -8.9491
557 1 15.7243 12.5793 12.5794 -8.95067
558 1 17.2966 14.1518 14.1518 -8.94964
559 1 18.8691 12.5794 12.5794 -8.94965
560 1 20.4415 14.1518 14.1518 -8.94963
561 1 2.40619e-08 15.7242 12.5794 -8.94963
562 1 1.57242 17.2966 14.1518 -8.94963
563 1 3.14484 15.7242 12.5794 -8.94962
564 1 4.71726 17.2966 14.1518 -8.94964
565 1 6.28974 15.7242 12.5794 -8.95025
566 1 7.8621 17.2966 14.1518 -8.9494
567 1 9.43457 15.7249 12.5794 -8.95522
568 1 11.007 17.2966 14.1518 -8.94948
569 1 12.5794 15.7243 12.5794 -8.95033
570 1 14.1518 17.2966 14.1518 -8.94965
571 1 15.7242 15.7242 12.5794 -8.94964
572 1 17.2966 17.2966 14.1518 -8.94963
573 1 18.8691 15.7242 12.5794 -8.94963
574 1 20.4415 17.2966 14.1518 -8.94963
575 1 -1.56909e-09 18.8691 12.5794 -8.94963
576 1 1.57242 20.4415 14.1518 -8.94963
577 1 3.14484 18.8691 12.5794 -8.94963
578 1 4.71726 20.4415 14.1518 -8.94963
579 1 6.28969 18.8691 12.5794 -8.94962
580 1 7.86211 20.4415 14.1518 -8.94963
581 1 9.43453 18.8691 12.5794 -8.94982
582 1 11.007 20.4415 14.1518 -8.94963
583 1 12.5794 18.8691 12.5794 -8.94965
584 1 14.1518 20.4415 14.1518 -8.94963
585 1 15.7242 18.8691 12.5794 -8.94963
586 1 17.2966 20.4415 14.1518 -8.94963
587 1 18.8691 18.8691 12.5794 -8.94963
588 1 20.4415 20.4415 14.1518 -8.94963
589 1 1.57242 11.007 17.2966 -8.94963
590 1 4.71727 11.007 17.2966 -8.94967
591 1 7.8621 11.007 17.2967 -8.95032
592 1 11.0069 11.007 17.2973 -8.95504
593 1 14.1518 11.007 17.2966 -8.95017
594 1 17.2966 11.007 17.2966 -8.94961
595 1 20.4415 11.007 17.2966 -8.94963
596 1 22.0139 12.5794 15.7242 -8.94963
597 1 1.57242 14.1518 17.2966 -8.94963
598 1 3.14484 12.5794 15.7242 -8.94964
599 1 4.71726 14.1518 17.2966 -8.94959
600 1 6.2896 12.5794 15.7243 -8.949
601 1 7.86211 14.1518 17.2966 -8.94967
602 1 9.43431 12.5793 15.7241 -9.00498
603 1 11.0069 14.1518 17.2966 -8.95001
604 1 12.5792 12.5795 15.7238 -8.99008
605 1 14.1518 14.1518 17.2966 -8.94971
606 1 15.7242 12.5794 15.7242 -8.94981
607 1 17.2966 14.1518 17.2966 -8.94964
608 1 18.8691 12.5794 15.7242 -8.94963
609 1 20.4415 14.1518 17.2966 -8.94963
610 1 3.12535e-08 15.7242 15.7242 -8.94963
611 1 1.57242 17.2966 17.2966 -8.94963
612 1 3.14484 15.7242 15.7242 -8.94964
613 1 4.71726 17.2966 17.2966 -8.94964
614 1 6.2897 15.7242 15.7242 -8.94972
615 1 7.86211 17.2966 17.2966 -8.94964
616 1 9.43453 15.7242 15.7242 -8.95
617 1 11.007 17.2966 17.2966 -8.94963
618 1 12.5794 15.7242 15.7242 -8.94967
619 1 14.1518 17.2966 17.2966 -8.94963
620 1 15.7242 15.7242 15.7242 -8.9496
621 1 17.2966 17.2966 17.2966 -8.94963
622 1 18.8691 15.7242 15.7242 -8.94963
623 1 20.4415 17.2966 17.2966 -8.94963
624 1 22.0139 18.8691 15.7242 -8.94963
625 1 1.57242 20.4415 17.2966 -8.94963
626 1 3.14484 18.8691 15.7242 -8.94963
627 1 4.71726 20.4415 17.2966 -8.94963
628 1 6.28969 18.8691 15.7242 -8.94963
629 1 7.86211 20.4415 17.2966 -8.94963
630 1 9.43453 18.8691 15.7242 -8.94964
631 1 11.007 20.4415 17.2966 -8.94963
632 1 12.5794 18.8691 15.7242 -8.94963
633 1 14.1518 20.4415 17.2966 -8.94963
634 1 15.7242 18.8691 15.7242 -8.94963
635 1 17.2966 20.4415 17.2966 -8.94963
636 1 18.8691 18.8691 15.7242 -8.94963
637 1 20.4415 20.4415 17.2966 -8.94963
638 1 1.57242 11.007 20.4415 -8.94963
639 1 4.71726 11.007 20.4415 -8.94963
640 1 7.86211 11.007 20.4415 -8.94966
641 1 11.007 11.007 20.4415 -8.94982
642 1 14.1518 11.007 20.4415 -8.94963
643 1 17.2966 11.007 20.4415 -8.94963
644 1 20.4415 11.007 20.4415 -8.94963
645 1 7.28185e-09 12.5794 18.8691 -8.94963
646 1 1.57242 14.1518 20.4415 -8.94963
647 1 3.14484 12.5794 18.8691 -8.94964
648 1 4.71726 14.1518 20.4415 -8.94963
649 1 6.28968 12.5794 18.8691 -8.94965
650 1 7.86211 14.1518 20.4415 -8.94963
651 1 9.43452 12.5794 18.8691 -8.94947
652 1 11.007 14.1518 20.4415 -8.94964
653 1 12.5794 12.5794 18.8691 -8.9494
654 1 14.1518 14.1518 20.4415 -8.94963
655 1 15.7242 12.5794 18.8691 -8.94964
656 1 17.2966 14.1518 20.4415 -8.94963
657 1 18.8691 12.5794 18.8691 -8.94963
658 1 20.4415 14.1518 20.4415 -8.94963
659 1 22.0139 15.7242 18.8691 -8.94963
660 1 1.57242 17.2966 20.4415 -8.94963
661 1 3.14484 15.7242 18.8691 -8.94963
662 1 4.71726 17.2966 20.4415 -8.94963
663 1 6.28969 15.7242 18.8691 -8.94963
664 1 7.86211 17.2966 20.4415 -8.94963
665 1 9.43453 15.7242 18.8691 -8.94963
666 1 11.007 17.2966 20.4415 -8.94963
667 1 12.5794 15.7242 18.8691 -8.94964
668 1 14.1518 17.2966 20.4415 -8.94963
669 1 15.7242 15.7242 18.8691 -8.94964
670 1 17.2966 17.2966 20.4415 -8.94963
671 1 18.8691 15.7242 18.8691 -8.94963
672 1 20.4415 17.2966 20.4415 -8.94963
673 1 8.05553e-10 18.8691 18.8691 -8.94963
674 1 1.57242 20.4415 20.4415 -8.94963
675 1 3.14484 18.8691 18.8691 -8.94963
676 1 4.71726 20.4415 20.4415 -8.94963
677 1 6.28969 18.8691 18.8691 -8.94963
678 1 7.86211 20.4415 20.4415 -8.94963
679 1 9.43453 18.8691 18.8691 -8.94963
680 1 11.007 20.4415 20.4415 -8.94963
681 1 12.5794 18.8691 18.8691 -8.94963
682 1 14.1518 20.4415 20.4415 -8.94963
683 1 15.7242 18.8691 18.8691 -8.94963
684 1 17.2966 20.4415 20.4415 -8.94963
685 1 18.8691 18.8691 18.8691 -8.94963
686 1 20.4415 20.4415 20.4415 -8.94963
687 2 10.2192 11.007 12.5821 1.06834
