ITEM: TIMESTEP
75
ITEM: NUMBER OF ATOMS
688
ITEM: BOX BOUNDS pp pp pp
0.0000000000000000e+00 2.2013900999999997e+01
0.0000000000000000e+00 2.2013900999999997e+01
0.0000000000000000e+00 2.2013900999999997e+01
ITEM: ATOMS id type x y z c_pot
1 1 -9.12312e-05 -2.27286e-17 -3.54772e-16 -8.94948
2 1 1.57213 1.5723 1.57225 -8.94948
3 1 3.14453 6.57436e-16 -4.05498e-17 -8.94962
4 1 4.7169 1.57224 1.57218 -8.94964
5 1 6.28943 1.59958e-15 -3.59414e-16 -8.94961
6 1 7.86191 1.5722 1.57217 -8.94961
7 1 9.43446 -7.04e-16 3.37283e-16 -8.94961
8 1 11.007 1.57218 1.57216 -8.9496
9 1 12.5795 -1.41039e-15 1.69828e-15 -8.94961
10 1 14.1521 1.57218 1.57218 -8.94962
11 1 15.7245 1.8145e-16 8.57221e-16 -8.94962
12 1 17.297 1.57221 1.57223 -8.94957
13 1 18.8693 1.30484e-15 8.6421e-16 -8.94952
14 1 20.4416 1.57231 1.57232 -8.94952
15 1 22.0138 3.14471 5.61566e-16 -8.94958
16 1 1.57215 4.7171 1.57227 -8.94963
17 1 3.14444 3.14458 -1.13269e-15 -8.94957
18 1 4.71667 4.7168 1.57206 -8.9496
19 1 6.28935 3.14449 -7.40413e-16 -8.94964
20 1 7.86179 4.71667 1.57205 -8.94963
21 1 9.43444 3.14444 2.63115e-16 -8.94961
22 1 11.007 4.71664 1.57202 -8.94961
23 1 12.5796 3.14443 9.25955e-16 -8.94962
24 1 14.1523 4.71662 1.57205 -8.94973
25 1 15.7246 3.14444 1.25564e-15 -8.94967
26 1 17.2973 4.71672 1.57214 -8.94934
27 1 18.8694 3.14457 2.07864e-15 -8.94945
28 1 20.4417 4.71708 1.5723 -8.94962
29 1 -2.63134e-05 6.28958 -3.52817e-16 -8.94961
30 1 1.5722 7.86202 1.5723 -8.94961
31 1 3.14444 6.2895 -1.09418e-16 -8.94965
32 1 4.71673 7.86191 1.57215 -8.94967
33 1 6.28906 6.28913 4.8625e-16 -8.94968
34 1 7.86143 7.86137 1.5717 -8.94969
35 1 9.43432 6.28904 1.84299e-15 -8.94958
36 1 11.007 7.86141 1.57166 -8.9495
37 1 12.5797 6.28902 1.62174e-15 -8.9496
38 1 14.1529 7.86116 1.57151 -8.94969
39 1 15.7251 6.28895 1.68511e-15 -8.9495
40 1 17.2973 7.86183 1.5722 -8.94961
41 1 18.8695 6.28945 1.51795e-15 -8.94963
42 1 20.4417 7.86201 1.57232 -8.9496
43 1 22.0139 9.43449 2.92889e-16 -8.94961
44 1 3.14447 9.43447 7.23612e-16 -8.94958
45 1 6.28917 9.43438 6.88318e-16 -8.94962
46 1 9.43408 9.43401 -5.42138e-16 -8.94973
47 1 12.5801 9.43397 1.82704e-15 -8.95026
48 1 15.725 9.43429 1.34681e-15 -8.94941
49 1 18.8695 9.43445 1.35807e-15 -8.94959
50 1 22.0138 -4.85835e-16 3.14465 -8.94954
51 1 1.57202 1.57227 4.71692 -8.94953
52 1 3.14437 5.39796e-16 3.14443 -8.94951
53 1 4.71655 1.57202 4.71655 -8.94953
54 1 6.28934 3.52558e-16 3.14438 -8.9496
55 1 7.8618 1.57199 4.71656 -8.94956
56 1 9.43447 1.08777e-15 3.14437 -8.9496
57 1 11.0071 1.57197 4.71655 -8.94956
58 1 12.5796 1.58097e-15 3.14438 -8.9496
59 1 14.1524 1.57197 4.7166 -8.94962
60 1 15.7247 1.35288e-15 3.14444 -8.94959
61 1 17.2972 1.57218 4.71689 -8.94956
62 1 18.8694 9.2427e-16 3.14463 -8.94956
63 1 20.4416 1.5723 4.71705 -8.94958
64 1 -0.000114579 3.14467 3.14462 -8.94959
65 1 1.57195 4.71697 4.71688 -8.94966
66 1 3.14425 3.14446 3.14436 -8.94936
67 1 4.71609 4.71621 4.7161 -8.94882
68 1 6.28924 3.14433 3.14425 -8.94971
69 1 7.86168 4.71611 4.71619 -8.94991
70 1 9.43444 3.14425 3.14426 -8.94959
71 1 11.0072 4.71605 4.7161 -8.94949
72 1 12.5797 3.14424 3.14423 -8.94962
73 1 14.1528 4.71591 4.71617 -8.94969
74 1 15.7249 3.14426 3.14433 -8.94958
75 1 17.2975 4.71666 4.71673 -8.94942
76 1 18.8695 3.14456 3.1446 -8.94953
77 1 20.4417 4.71704 4.71702 -8.94965
78 1 22.0139 6.28956 3.14466 -8.94964
79 1 1.5721 7.862 4.71698 -8.94963
80 1 3.14431 6.28943 3.14445 -8.94966
81 1 4.71646 7.86169 4.71651 -8.94958
82 1 6.28883 6.28884 3.14374 -8.94978
83 1 7.86098 7.86045 4.71486 -8.95083
84 1 9.43435 6.28867 3.14389 -8.94947
85 1 11.007 7.8609 4.71505 -8.95002
86 1 12.5798 6.28871 3.14383 -8.94993
87 1 14.1545 7.85957 4.71439 -8.94714
88 1 15.7255 6.28861 3.14383 -8.9489
89 1 17.2976 7.86176 4.71679 -8.95009
90 1 18.8696 6.28941 3.14458 -8.94971
91 1 20.4417 7.86201 4.71706 -8.9497
92 1 -1.61477e-05 9.43449 3.14467 -8.94961
93 1 3.14445 9.43446 3.14454 -8.94957
94 1 6.28912 9.43437 3.14416 -8.94988
95 1 9.4337 9.43337 3.14264 -8.94816
96 1 12.581 9.43317 3.14178 -8.94984
97 1 15.7252 9.43428 3.1442 -8.94956
98 1 18.8695 9.43445 3.14461 -8.94958
99 1 -0.000154993 7.78669e-16 6.28947 -8.94959
100 1 1.57197 1.57225 7.86187 -8.9496
101 1 3.14418 1.83834e-16 6.2892 -8.94948
102 1 4.71628 1.57186 7.86149 -8.94944
103 1 6.28897 7.73707e-16 6.28889 -8.94973
104 1 7.86146 1.57126 7.86127 -8.95
105 1 9.43446 4.11643e-16 6.28891 -8.94958
106 1 11.0074 1.57132 7.86127 -8.94973
107 1 12.5799 -1.42661e-15 6.28893 -8.94968
108 1 14.1527 1.57177 7.86151 -8.9496
109 1 15.7249 1.33973e-15 6.2892 -8.94957
110 1 17.2973 1.57214 7.86183 -8.94959
111 1 18.8694 9.00877e-16 6.28945 -8.94959
112 1 20.4416 1.57229 7.86196 -8.94961
113 1 22.0137 3.14463 6.28944 -8.94961
114 1 1.57186 4.71689 7.86182 -8.94966
115 1 3.14403 3.14433 6.28911 -8.94947
116 1 4.71577 4.71584 7.86114 -8.94909
117 1 6.28857 3.1434 6.28846 -8.94955
118 1 7.86039 4.71313 7.86008 -8.94964
119 1 9.43448 3.14341 6.2887 -8.9494
120 1 11.0081 4.71369 7.86024 -8.94797
121 1 12.5802 3.14342 6.28858 -8.94959
122 1 14.1533 4.71529 7.86113 -8.94967
123 1 15.7251 3.14407 6.28906 -8.94953
124 1 17.2976 4.71657 7.8617 -8.9495
125 1 18.8695 3.14453 6.28941 -8.94959
126 1 20.4417 4.717 7.86192 -8.94965
127 1 -0.000134061 6.28951 6.28945 -8.94976
128 1 1.57194 7.86193 7.86187 -8.94986
129 1 3.14384 6.28913 6.28905 -8.94993
130 1 4.71557 7.86108 7.86126 -8.95113
131 1 6.28709 6.28677 6.2868 -8.94687
132 1 7.85569 7.85362 7.85456 -8.98267
133 1 9.43467 6.28704 6.28831 -8.94971
134 1 11.01 7.85776 7.85805 -9.00099
135 1 12.581 6.28674 6.28756 -8.95063
136 1 14.1552 7.85867 7.85987 -8.94691
137 1 15.7258 6.28837 6.28854 -8.94883
138 1 17.2978 7.86159 7.86178 -8.95021
139 1 18.8697 6.28935 6.28938 -8.94973
140 1 20.4417 7.86199 7.86197 -8.9498
141 1 22.0139 9.4345 6.28949 -8.94964
142 1 3.1443 9.43444 6.28925 -8.94969
143 1 6.2885 9.43409 6.28823 -8.94958
144 1 9.43236 9.43102 6.28673 -9.00245
145 1 12.5859 9.42751 6.28189 -8.97952
146 1 15.7256 9.43434 6.28915 -8.95174
147 1 18.8696 9.43448 6.28947 -8.94974
148 1 -0.000161034 8.61794e-16 9.43445 -8.94959
149 1 3.14413 1.81925e-16 9.43434 -8.94954
150 1 6.28872 8.36237e-16 9.43409 -8.9497
151 1 9.43445 9.11339e-16 9.43411 -8.95058
152 1 12.5801 1.23264e-15 9.4341 -8.94972
153 1 15.725 3.37649e-15 9.43433 -8.94964
154 1 18.8694 6.98984e-16 9.43443 -8.94959
155 1 -0.000162548 3.14462 9.43444 -8.94961
156 1 3.14401 3.14429 9.43431 -8.94961
157 1 6.28825 3.14274 9.43379 -8.94915
158 1 9.4344 3.14088 9.43398 -8.95263
159 1 12.5804 3.14266 9.43383 -8.94953
160 1 15.7252 3.14394 9.43426 -8.94958
161 1 18.8695 3.14452 9.43442 -8.94962
162 1 -0.000132585 6.28947 9.43443 -8.94977
163 1 3.14373 6.28894 9.43423 -8.94974
164 1 6.28701 6.28577 9.43269 -8.94688
165 1 9.434 6.27503 9.43383 -8.96578
166 1 12.5811 6.28487 9.43309 -8.95066
167 1 15.7259 6.28809 9.43397 -8.94865
168 1 18.8698 6.28926 9.43438 -8.94965
169 1 -6.28917e-05 9.43451 9.43444 -8.94966
170 1 3.14418 9.43436 9.43425 -8.94962
171 1 6.2881 9.43355 9.4332 -9.00231
172 1 9.41235 9.37548 9.43396 -9.26375
173 1 12.5878 9.42368 9.43184 -9.01376
174 1 15.7258 9.43409 9.43449 -8.95244
175 1 18.8696 9.4345 9.43446 -8.94989
176 1 1.57196 1.57224 11.007 -8.94958
177 1 4.71629 1.57187 11.007 -8.94945
178 1 7.86123 1.57075 11.007 -8.95033
179 1 11.0076 1.57079 11.007 -8.95008
180 1 14.1527 1.57173 11.007 -8.9497
181 1 17.2973 1.57213 11.007 -8.94957
182 1 20.4416 1.57229 11.007 -8.94961
183 1 1.57188 4.71688 11.007 -8.94961
184 1 4.71585 4.7159 11.007 -8.94977
185 1 7.85932 4.71094 11.007 -8.94853
186 1 11.0089 4.71141 11.007 -8.94712
187 1 14.1533 4.71507 11.007 -8.95029
188 1 17.2976 4.71655 11.007 -8.94958
189 1 20.4417 4.71699 11.007 -8.94963
190 1 1.57193 7.86192 11.007 -8.95002
191 1 4.71523 7.86095 11.007 -8.95262
192 1 7.85209 7.84966 11.007 -9.00956
193 1 11.0128 7.85305 11.007 -9.04668
194 1 14.1559 7.85782 11.007 -8.94723
195 1 17.298 7.8614 11.007 -8.95027
196 1 20.4418 7.86197 11.007 -8.94987
197 1 -0.000161034 4.25487e-16 12.5795 -8.94959
198 1 1.57197 1.57225 14.152 -8.9496
199 1 3.14413 4.90694e-16 12.5796 -8.94954
200 1 4.71628 1.57186 14.1524 -8.94944
201 1 6.28872 4.46206e-16 12.5798 -8.9497
202 1 7.86146 1.57126 14.1526 -8.95
203 1 9.43445 3.35176e-16 12.5798 -8.95058
204 1 11.0074 1.57132 14.1526 -8.94973
205 1 12.5801 8.88501e-16 12.5798 -8.94972
206 1 14.1527 1.57177 14.1524 -8.9496
207 1 15.725 1.31973e-15 12.5796 -8.94964
208 1 17.2973 1.57214 14.1521 -8.94959
209 1 18.8694 1.08065e-16 12.5795 -8.94959
210 1 20.4416 1.57229 14.1519 -8.94961
211 1 -0.000162548 3.14462 12.5795 -8.94961
212 1 1.57186 4.71689 14.1521 -8.94966
213 1 3.14401 3.14429 12.5796 -8.94961
214 1 4.71577 4.71584 14.1528 -8.94909
215 1 6.28825 3.14274 12.5801 -8.94915
216 1 7.86039 4.71313 14.1538 -8.94964
217 1 9.4344 3.14088 12.5799 -8.95263
218 1 11.0081 4.71369 14.1537 -8.94797
219 1 12.5804 3.14266 12.5801 -8.94953
220 1 14.1533 4.71529 14.1528 -8.94967
221 1 15.7252 3.14394 12.5796 -8.94958
222 1 17.2976 4.71657 14.1522 -8.9495
223 1 18.8695 3.14452 12.5795 -8.94962
224 1 20.4417 4.717 14.152 -8.94965
225 1 -0.000132585 6.28947 12.5795 -8.94977
226 1 1.57194 7.86193 14.152 -8.94986
227 1 3.14373 6.28894 12.5797 -8.94974
228 1 4.71557 7.86108 14.1526 -8.95113
229 1 6.28701 6.28577 12.5812 -8.94688
230 1 7.85569 7.85362 14.1593 -8.98267
231 1 9.434 6.27503 12.5801 -8.96578
232 1 11.01 7.85776 14.1558 -9.00099
233 1 12.5811 6.28487 12.5808 -8.95066
234 1 14.1552 7.85867 14.154 -8.94691
235 1 15.7259 6.28809 12.5799 -8.94865
236 1 17.2978 7.86159 14.1521 -8.95021
237 1 18.8698 6.28926 12.5795 -8.94965
238 1 20.4417 7.86199 14.1519 -8.9498
239 1 -6.28917e-05 9.43451 12.5795 -8.94966
240 1 3.14418 9.43436 12.5796 -8.94962
241 1 6.2881 9.43355 12.5807 -9.00231
242 1 9.41235 9.37548 12.5799 -9.26375
243 1 12.5878 9.42368 12.5821 -9.01376
244 1 15.7258 9.43409 12.5794 -8.95244
245 1 18.8696 9.4345 12.5794 -8.94989
246 1 -0.000154993 1.66076e-16 15.7244 -8.94959
247 1 1.57202 1.57227 17.297 -8.94953
248 1 3.14418 9.16696e-17 15.7247 -8.94948
249 1 4.71655 1.57202 17.2973 -8.94953
250 1 6.28897 9.9532e-16 15.725 -8.94973
251 1 7.8618 1.57199 17.2973 -8.94956
252 1 9.43446 9.67589e-16 15.725 -8.94958
253 1 11.0071 1.57197 17.2974 -8.94956
254 1 12.5799 9.93498e-16 15.725 -8.94968
255 1 14.1524 1.57197 17.2973 -8.94962
256 1 15.7249 9.64717e-16 15.7247 -8.94957
257 1 17.2972 1.57218 17.297 -8.94956
258 1 18.8694 7.19985e-16 15.7245 -8.94959
259 1 20.4416 1.5723 17.2969 -8.94958
260 1 22.0137 3.14463 15.7245 -8.94961
261 1 1.57195 4.71697 17.297 -8.94966
262 1 3.14403 3.14433 15.7248 -8.94947
263 1 4.71609 4.71621 17.2978 -8.94882
264 1 6.28857 3.1434 15.7254 -8.94955
265 1 7.86168 4.71611 17.2977 -8.94991
266 1 9.43448 3.14341 15.7252 -8.9494
267 1 11.0072 4.71605 17.2978 -8.94949
268 1 12.5802 3.14342 15.7253 -8.94959
269 1 14.1528 4.71591 17.2977 -8.94969
270 1 15.7251 3.14407 15.7248 -8.94953
271 1 17.2975 4.71666 17.2972 -8.94942
272 1 18.8695 3.14453 15.7245 -8.94959
273 1 20.4417 4.71704 17.2969 -8.94965
274 1 -0.000134061 6.28951 15.7244 -8.94976
275 1 1.5721 7.862 17.2969 -8.94963
276 1 3.14384 6.28913 15.7249 -8.94993
277 1 4.71646 7.86169 17.2974 -8.94958
278 1 6.28709 6.28677 15.7271 -8.94687
279 1 7.86098 7.86045 17.299 -8.95083
280 1 9.43467 6.28704 15.7256 -8.94971
281 1 11.007 7.8609 17.2989 -8.95002
282 1 12.581 6.28674 15.7263 -8.95063
283 1 14.1545 7.85957 17.2995 -8.94714
284 1 15.7258 6.28837 15.7254 -8.94883
285 1 17.2976 7.86176 17.2971 -8.95009
286 1 18.8697 6.28935 15.7245 -8.94973
287 1 20.4417 7.86201 17.2968 -8.9497
288 1 22.0139 9.4345 15.7244 -8.94964
289 1 3.1443 9.43444 15.7247 -8.94969
290 1 6.2885 9.43409 15.7257 -8.94958
291 1 9.43236 9.43102 15.7272 -9.00245
292 1 12.5859 9.42751 15.732 -8.97952
293 1 15.7256 9.43434 15.7248 -8.95174
294 1 18.8696 9.43448 15.7244 -8.94974
295 1 22.0138 1.4356e-15 18.8693 -8.94954
296 1 1.57213 1.5723 20.4417 -8.94948
297 1 3.14437 6.04375e-16 18.8695 -8.94951
298 1 4.7169 1.57224 20.4417 -8.94964
299 1 6.28934 1.544e-15 18.8695 -8.9496
300 1 7.86191 1.5722 20.4417 -8.94961
301 1 9.43447 1.59418e-15 18.8695 -8.9496
302 1 11.007 1.57218 20.4417 -8.9496
303 1 12.5796 1.43511e-15 18.8695 -8.9496
304 1 14.1521 1.57218 20.4417 -8.94962
305 1 15.7247 8.74366e-16 18.8695 -8.94959
306 1 17.297 1.57221 20.4417 -8.94957
307 1 18.8694 2.58576e-15 18.8693 -8.94956
308 1 20.4416 1.57231 20.4416 -8.94952
309 1 -0.000114579 3.14467 18.8693 -8.94959
310 1 1.57215 4.7171 20.4416 -8.94963
311 1 3.14425 3.14446 18.8695 -8.94936
312 1 4.71667 4.7168 20.4418 -8.9496
313 1 6.28924 3.14433 18.8696 -8.94971
314 1 7.86179 4.71667 20.4419 -8.94963
315 1 9.43444 3.14425 18.8696 -8.94959
316 1 11.007 4.71664 20.4419 -8.94961
317 1 12.5797 3.14424 18.8697 -8.94962
318 1 14.1523 4.71662 20.4419 -8.94973
319 1 15.7249 3.14426 18.8696 -8.94958
320 1 17.2973 4.71672 20.4418 -8.94934
321 1 18.8695 3.14456 18.8693 -8.94953
322 1 20.4417 4.71708 20.4416 -8.94962
323 1 22.0139 6.28956 18.8692 -8.94964
324 1 1.5722 7.86202 20.4416 -8.94961
325 1 3.14431 6.28943 18.8695 -8.94966
326 1 4.71673 7.86191 20.4417 -8.94967
327 1 6.28883 6.28884 18.8702 -8.94978
328 1 7.86143 7.86137 20.4422 -8.94969
329 1 9.43435 6.28867 18.87 -8.94947
330 1 11.007 7.86141 20.4422 -8.9495
331 1 12.5798 6.28871 18.8701 -8.94993
332 1 14.1529 7.86116 20.4424 -8.94969
333 1 15.7255 6.28861 18.8701 -8.9489
334 1 17.2973 7.86183 20.4417 -8.94961
335 1 18.8696 6.28941 18.8693 -8.94971
336 1 20.4417 7.86201 20.4416 -8.9496
337 1 -1.61477e-05 9.43449 18.8692 -8.94961
338 1 3.14445 9.43446 18.8694 -8.94957
339 1 6.28912 9.43437 18.8697 -8.94988
340 1 9.4337 9.43337 18.8713 -8.94816
341 1 12.581 9.43317 18.8721 -8.94984
342 1 15.7252 9.43428 18.8697 -8.94956
343 1 18.8695 9.43445 18.8693 -8.94958
344 1 1.57222 11.007 1.57231 -8.9496
345 1 4.71679 11.007 1.57217 -8.94958
346 1 7.86169 11.007 1.5719 -8.94938
347 1 11.0071 11.007 1.57033 -8.95291
348 1 14.1527 11.007 1.57169 -8.94921
349 1 17.2973 11.007 1.57221 -8.94956
350 1 20.4417 11.007 1.57232 -8.94959
351 1 22.0139 12.5794 1.66863e-15 -8.94961
352 1 1.5722 14.1519 1.5723 -8.94961
353 1 3.14447 12.5794 1.26587e-15 -8.94958
354 1 4.71673 14.152 1.57215 -8.94967
355 1 6.28917 12.5795 1.05566e-15 -8.94962
356 1 7.86143 14.1525 1.5717 -8.94969
357 1 9.43408 12.5799 1.60763e-15 -8.94973
358 1 11.007 14.1525 1.57166 -8.9495
359 1 12.5801 12.5799 1.4665e-15 -8.95026
360 1 14.1529 14.1527 1.57151 -8.94969
361 1 15.725 12.5796 8.07935e-16 -8.94941
362 1 17.2973 14.1521 1.5722 -8.94961
363 1 18.8695 12.5795 -1.95771e-17 -8.94959
364 1 20.4417 14.1519 1.57232 -8.9496
365 1 -2.63134e-05 15.7243 7.30282e-16 -8.94961
366 1 1.57215 17.2968 1.57227 -8.94963
367 1 3.14444 15.7244 2.06176e-16 -8.94965
368 1 4.71667 17.2971 1.57206 -8.9496
369 1 6.28906 15.7248 1.28083e-16 -8.94968
370 1 7.86179 17.2972 1.57205 -8.94963
371 1 9.43432 15.7249 2.18753e-15 -8.94958
372 1 11.007 17.2973 1.57202 -8.94961
373 1 12.5797 15.7249 -8.45628e-16 -8.9496
374 1 14.1523 17.2973 1.57205 -8.94973
375 1 15.7251 15.725 6.80699e-16 -8.9495
376 1 17.2973 17.2972 1.57214 -8.94934
377 1 18.8695 15.7244 1.04715e-15 -8.94963
378 1 20.4417 17.2968 1.5723 -8.94962
379 1 22.0138 18.8692 6.8327e-16 -8.94958
380 1 1.57213 20.4416 1.57225 -8.94948
381 1 3.14444 18.8693 4.18626e-18 -8.94957
382 1 4.7169 20.4417 1.57218 -8.94964
383 1 6.28935 18.8694 1.3294e-15 -8.94964
384 1 7.86191 20.4417 1.57217 -8.94961
385 1 9.43444 18.8695 8.97486e-16 -8.94961
386 1 11.007 20.4417 1.57216 -8.9496
387 1 12.5796 18.8695 -5.17283e-17 -8.94962
388 1 14.1521 20.4417 1.57218 -8.94962
389 1 15.7246 18.8695 2.96341e-15 -8.94967
390 1 17.297 20.4417 1.57223 -8.94957
391 1 18.8694 18.8693 8.56147e-16 -8.94945
392 1 20.4416 20.4416 1.57232 -8.94952
393 1 1.57219 11.007 4.71699 -8.94958
394 1 4.71674 11.007 4.71658 -8.9491
395 1 7.86225 11.007 4.71594 -8.95008
396 1 11.0077 11.007 4.7058 -8.96688
397 1 14.153 11.007 4.71562 -8.94862
398 1 17.2974 11.007 4.71679 -8.94945
399 1 20.4417 11.007 4.71706 -8.94963
400 1 -1.61477e-05 12.5794 3.14467 -8.94961
401 1 1.5721 14.1519 4.71698 -8.94963
402 1 3.14445 12.5794 3.14454 -8.94957
403 1 4.71646 14.1522 4.71651 -8.94958
404 1 6.28912 12.5795 3.14416 -8.94988
405 1 7.86098 14.1535 4.71486 -8.95083
406 1 9.4337 12.5805 3.14264 -8.94816
407 1 11.007 14.153 4.71505 -8.95002
408 1 12.581 12.5807 3.14178 -8.94984
409 1 14.1545 14.1543 4.71439 -8.94714
410 1 15.7252 12.5796 3.1442 -8.94956
411 1 17.2976 14.1521 4.71679 -8.95009
412 1 18.8695 12.5795 3.14461 -8.94958
413 1 20.4417 14.1519 4.71706 -8.9497
414 1 22.0139 15.7243 3.14466 -8.94964
415 1 1.57195 17.2969 4.71688 -8.94966
416 1 3.14431 15.7245 3.14445 -8.94966
417 1 4.71609 17.2977 4.7161 -8.94882
418 1 6.28883 15.7251 3.14374 -8.94978
419 1 7.86168 17.2978 4.71619 -8.94991
420 1 9.43435 15.7252 3.14389 -8.94947
421 1 11.0072 17.2979 4.7161 -8.94949
422 1 12.5798 15.7252 3.14383 -8.94993
423 1 14.1528 17.298 4.71617 -8.94969
424 1 15.7255 15.7253 3.14383 -8.9489
425 1 17.2975 17.2972 4.71673 -8.94942
426 1 18.8696 15.7245 3.14458 -8.94971
427 1 20.4417 17.2969 4.71702 -8.94965
428 1 -0.000114579 18.8692 3.14462 -8.94959
429 1 1.57202 20.4416 4.71692 -8.94953
430 1 3.14425 18.8694 3.14436 -8.94936
431 1 4.71655 20.4419 4.71655 -8.94953
432 1 6.28924 18.8696 3.14425 -8.94971
433 1 7.8618 20.4419 4.71656 -8.94956
434 1 9.43444 18.8697 3.14426 -8.94959
435 1 11.0071 20.4419 4.71655 -8.94956
436 1 12.5797 18.8697 3.14423 -8.94962
437 1 14.1524 20.4419 4.7166 -8.94962
438 1 15.7249 18.8696 3.14433 -8.94958
439 1 17.2972 20.4417 4.71689 -8.94956
440 1 18.8695 18.8693 3.1446 -8.94953
441 1 20.4416 20.4416 4.71705 -8.94958
442 1 1.57218 11.007 7.86189 -8.94953
443 1 4.71667 11.007 7.86148 -8.94904
444 1 7.86149 11.007 7.85942 -8.98167
445 1 11.0333 11.007 7.80397 -9.23566
446 1 14.151 11.007 7.86272 -9.00211
447 1 17.2971 11.007 7.86186 -8.9487
448 1 20.4417 11.007 7.86196 -8.9495
449 1 22.0139 12.5794 6.28949 -8.94964
450 1 1.57194 14.152 7.86187 -8.94986
451 1 3.1443 12.5795 6.28925 -8.94969
452 1 4.71557 14.1528 7.86126 -8.95113
453 1 6.2885 12.5798 6.28823 -8.94958
454 1 7.85569 14.1603 7.85456 -8.98267
455 1 9.43236 12.5829 6.28673 -9.00245
456 1 11.01 14.1561 7.85805 -9.00099
457 1 12.5859 12.5864 6.28189 -8.97952
458 1 14.1552 14.1552 7.85987 -8.94691
459 1 15.7256 12.5796 6.28915 -8.95174
460 1 17.2978 14.1523 7.86178 -8.95021
461 1 18.8696 12.5794 6.28947 -8.94974
462 1 20.4417 14.1519 7.86197 -8.9498
463 1 -0.000134061 15.7244 6.28945 -8.94976
464 1 1.57186 17.297 7.86182 -8.94966
465 1 3.14384 15.7248 6.28905 -8.94993
466 1 4.71577 17.2981 7.86114 -8.94909
467 1 6.28709 15.7271 6.2868 -8.94687
468 1 7.86039 17.3008 7.86008 -8.94964
469 1 9.43467 15.7269 6.28831 -8.94971
470 1 11.0081 17.3002 7.86024 -8.94797
471 1 12.581 15.7272 6.28756 -8.95063
472 1 14.1533 17.2986 7.86113 -8.94967
473 1 15.7258 15.7255 6.28854 -8.94883
474 1 17.2976 17.2973 7.8617 -8.9495
475 1 18.8697 15.7246 6.28938 -8.94973
476 1 20.4417 17.2969 7.86192 -8.94965
477 1 22.0137 18.8693 6.28944 -8.94961
478 1 1.57197 20.4417 7.86187 -8.9496
479 1 3.14403 18.8696 6.28911 -8.94947
480 1 4.71628 20.442 7.86149 -8.94944
481 1 6.28857 18.8705 6.28846 -8.94955
482 1 7.86146 20.4426 7.86127 -8.95
483 1 9.43448 18.8705 6.2887 -8.9494
484 1 11.0074 20.4426 7.86127 -8.94973
485 1 12.5802 18.8705 6.28858 -8.94959
486 1 14.1527 20.4421 7.86151 -8.9496
487 1 15.7251 18.8698 6.28906 -8.94953
488 1 17.2973 20.4418 7.86183 -8.94959
489 1 18.8695 18.8694 6.28941 -8.94959
490 1 20.4416 20.4416 7.86196 -8.94961
491 1 -6.28917e-05 12.5794 9.43444 -8.94966
492 1 3.14418 12.5795 9.43425 -8.94962
493 1 6.2881 12.5804 9.4332 -9.00231
494 1 9.41235 12.6384 9.43396 -9.26375
495 1 12.5878 12.5902 9.43184 -9.01376
496 1 15.7258 12.5798 9.43449 -8.95244
497 1 18.8696 12.5794 9.43446 -8.94989
498 1 -0.000132585 15.7244 9.43443 -8.94977
499 1 3.14373 15.725 9.43423 -8.94974
500 1 6.28701 15.7281 9.43269 -8.94688
501 1 9.434 15.7389 9.43383 -8.96578
502 1 12.5811 15.729 9.43309 -8.95066
503 1 15.7259 15.7258 9.43397 -8.94865
504 1 18.8698 15.7246 9.43438 -8.94965
505 1 -0.000162548 18.8693 9.43444 -8.94961
506 1 3.14401 18.8696 9.43431 -8.94961
507 1 6.28825 18.8712 9.43379 -8.94915
508 1 9.4344 18.873 9.43398 -8.95263
509 1 12.5804 18.8712 9.43383 -8.94953
510 1 15.7252 18.87 9.43426 -8.94958
511 1 18.8695 18.8694 9.43442 -8.94962
688 2 10.1843 11.007 9.39078 0.806224
512 1 1.57211 11.007 11.007 -8.94975
513 1 4.71607 11.007 11.007 -8.95103
514 1 7.85614 11.007 11.007 -9.01827
515 1 11.0555 11.007 11.007 -9.44048
516 1 14.1491 11.007 11.007 -9.04585
517 1 17.2968 11.007 11.007 -8.94799
518 1 20.4416 11.007 11.007 -8.94942
519 1 1.57193 14.152 11.007 -8.95002
520 1 4.71523 14.153 11.007 -8.95262
521 1 7.85209 14.1642 11.007 -9.00956
522 1 11.0128 14.1609 11.007 -9.04668
523 1 14.1559 14.1561 11.007 -8.94723
524 1 17.298 14.1525 11.007 -8.95027
525 1 20.4418 14.1519 11.007 -8.94987
526 1 1.57188 17.297 11.007 -8.94961
527 1 4.71585 17.298 11.007 -8.94977
528 1 7.85932 17.303 11.007 -8.94853
529 1 11.0089 17.3025 11.007 -8.94712
530 1 14.1533 17.2988 11.007 -8.95029
531 1 17.2976 17.2974 11.007 -8.94958
532 1 20.4417 17.2969 11.007 -8.94963
533 1 1.57196 20.4417 11.007 -8.94958
534 1 4.71629 20.442 11.007 -8.94945
535 1 7.86123 20.4432 11.007 -8.95033
536 1 11.0076 20.4431 11.007 -8.95008
537 1 14.1527 20.4422 11.007 -8.9497
538 1 17.2973 20.4418 11.007 -8.94957
539 1 20.4416 20.4416 11.007 -8.94961
540 1 1.57218 11.007 14.152 -8.94953
541 1 4.71667 11.007 14.1524 -8.94904
542 1 7.86149 11.007 14.1545 -8.98167
543 1 11.0333 11.007 14.2099 -9.23566
544 1 14.151 11.007 14.1512 -9.00211
545 1 17.2971 11.007 14.152 -8.9487
546 1 20.4417 11.007 14.1519 -8.9495
547 1 -6.28917e-05 12.5794 12.5795 -8.94966
548 1 1.57194 14.152 14.152 -8.94986
549 1 3.14418 12.5795 12.5796 -8.94962
550 1 4.71557 14.1528 14.1526 -8.95113
551 1 6.2881 12.5804 12.5807 -9.00231
552 1 7.85569 14.1603 14.1593 -8.98267
553 1 9.41235 12.6384 12.5799 -9.26375
554 1 11.01 14.1561 14.1558 -9.00099
555 1 12.5878 12.5902 12.5821 -9.01376
556 1 14.1552 14.1552 14.154 -8.94691
557 1 15.7258 12.5798 12.5794 -8.95244
558 1 17.2978 14.1523 14.1521 -8.95021
559 1 18.8696 12.5794 12.5794 -8.94989
560 1 20.4417 14.1519 14.1519 -8.9498
561 1 -0.000132585 15.7244 12.5795 -8.94977
562 1 1.57186 17.297 14.1521 -8.94966
563 1 3.14373 15.725 12.5797 -8.94974
564 1 4.71577 17.2981 14.1528 -8.94909
565 1 6.28701 15.7281 12.5812 -8.94688
566 1 7.86039 17.3008 14.1538 -8.94964
567 1 9.434 15.7389 12.5801 -8.96578
568 1 11.0081 17.3002 14.1537 -8.94797
569 1 12.5811 15.729 12.5808 -8.95066
570 1 14.1533 17.2986 14.1528 -8.94967
571 1 15.7259 15.7258 12.5799 -8.94865
572 1 17.2976 17.2973 14.1522 -8.9495
573 1 18.8698 15.7246 12.5795 -8.94965
574 1 20.4417 17.2969 14.152 -8.94965
575 1 -0.000162548 18.8693 12.5795 -8.94961
576 1 1.57197 20.4417 14.152 -8.9496
577 1 3.14401 18.8696 12.5796 -8.94961
578 1 4.71628 20.442 14.1524 -8.94944
579 1 6.28825 18.8712 12.5801 -8.94915
580 1 7.86146 20.4426 14.1526 -8.95
581 1 9.4344 18.873 12.5799 -8.95263
582 1 11.0074 20.4426 14.1526 -8.94973
583 1 12.5804 18.8712 12.5801 -8.94953
584 1 14.1527 20.4421 14.1524 -8.9496
585 1 15.7252 18.87 12.5796 -8.94958
586 1 17.2973 20.4418 14.1521 -8.94959
587 1 18.8695 18.8694 12.5795 -8.94962
588 1 20.4416 20.4416 14.1519 -8.94961
589 1 1.57219 11.007 17.2969 -8.94958
590 1 4.71674 11.007 17.2973 -8.9491
591 1 7.86225 11.007 17.298 -8.95008
592 1 11.0077 11.007 17.3081 -8.96688
593 1 14.153 11.007 17.2983 -8.94862
594 1 17.2974 11.007 17.2971 -8.94945
595 1 20.4417 11.007 17.2968 -8.94963
596 1 22.0139 12.5794 15.7244 -8.94964
597 1 1.5721 14.1519 17.2969 -8.94963
598 1 3.1443 12.5795 15.7247 -8.94969
599 1 4.71646 14.1522 17.2974 -8.94958
600 1 6.2885 12.5798 15.7257 -8.94958
601 1 7.86098 14.1535 17.299 -8.95083
602 1 9.43236 12.5829 15.7272 -9.00245
603 1 11.007 14.153 17.2989 -8.95002
604 1 12.5859 12.5864 15.732 -8.97952
605 1 14.1545 14.1543 17.2995 -8.94714
606 1 15.7256 12.5796 15.7248 -8.95174
607 1 17.2976 14.1521 17.2971 -8.95009
608 1 18.8696 12.5794 15.7244 -8.94974
609 1 20.4417 14.1519 17.2968 -8.9497
610 1 -0.000134061 15.7244 15.7244 -8.94976
611 1 1.57195 17.2969 17.297 -8.94966
612 1 3.14384 15.7248 15.7249 -8.94993
613 1 4.71609 17.2977 17.2978 -8.94882
614 1 6.28709 15.7271 15.7271 -8.94687
615 1 7.86168 17.2978 17.2977 -8.94991
616 1 9.43467 15.7269 15.7256 -8.94971
617 1 11.0072 17.2979 17.2978 -8.94949
618 1 12.581 15.7272 15.7263 -8.95063
619 1 14.1528 17.298 17.2977 -8.94969
620 1 15.7258 15.7255 15.7254 -8.94883
621 1 17.2975 17.2972 17.2972 -8.94942
622 1 18.8697 15.7246 15.7245 -8.94973
623 1 20.4417 17.2969 17.2969 -8.94965
624 1 22.0137 18.8693 15.7245 -8.94961
625 1 1.57202 20.4416 17.297 -8.94953
626 1 3.14403 18.8696 15.7248 -8.94947
627 1 4.71655 20.4419 17.2973 -8.94953
628 1 6.28857 18.8705 15.7254 -8.94955
629 1 7.8618 20.4419 17.2973 -8.94956
630 1 9.43448 18.8705 15.7252 -8.9494
631 1 11.0071 20.4419 17.2974 -8.94956
632 1 12.5802 18.8705 15.7253 -8.94959
633 1 14.1524 20.4419 17.2973 -8.94962
634 1 15.7251 18.8698 15.7248 -8.94953
635 1 17.2972 20.4417 17.297 -8.94956
636 1 18.8695 18.8694 15.7245 -8.94959
637 1 20.4416 20.4416 17.2969 -8.94958
638 1 1.57222 11.007 20.4416 -8.9496
639 1 4.71679 11.007 20.4417 -8.94958
640 1 7.86169 11.007 20.442 -8.94938
641 1 11.0071 11.007 20.4436 -8.95291
642 1 14.1527 11.007 20.4422 -8.94921
643 1 17.2973 11.007 20.4417 -8.94956
644 1 20.4417 11.007 20.4416 -8.94959
645 1 -1.61477e-05 12.5794 18.8692 -8.94961
646 1 1.5722 14.1519 20.4416 -8.94961
647 1 3.14445 12.5794 18.8694 -8.94957
648 1 4.71673 14.152 20.4417 -8.94967
649 1 6.28912 12.5795 18.8697 -8.94988
650 1 7.86143 14.1525 20.4422 -8.94969
651 1 9.4337 12.5805 18.8713 -8.94816
652 1 11.007 14.1525 20.4422 -8.9495
653 1 12.581 12.5807 18.8721 -8.94984
654 1 14.1529 14.1527 20.4424 -8.94969
655 1 15.7252 12.5796 18.8697 -8.94956
656 1 17.2973 14.1521 20.4417 -8.94961
657 1 18.8695 12.5795 18.8693 -8.94958
658 1 20.4417 14.1519 20.4416 -8.9496
659 1 22.0139 15.7243 18.8692 -8.94964
660 1 1.57215 17.2968 20.4416 -8.94963
661 1 3.14431 15.7245 18.8695 -8.94966
662 1 4.71667 17.2971 20.4418 -8.9496
663 1 6.28883 15.7251 18.8702 -8.94978
664 1 7.86179 17.2972 20.4419 -8.94963
665 1 9.43435 15.7252 18.87 -8.94947
666 1 11.007 17.2973 20.4419 -8.94961
667 1 12.5798 15.7252 18.8701 -8.94993
668 1 14.1523 17.2973 20.4419 -8.94973
669 1 15.7255 15.7253 18.8701 -8.9489
670 1 17.2973 17.2972 20.4418 -8.94934
671 1 18.8696 15.7245 18.8693 -8.94971
672 1 20.4417 17.2968 20.4416 -8.94962
673 1 -0.000114579 18.8692 18.8693 -8.94959
674 1 1.57213 20.4416 20.4417 -8.94948
675 1 3.14425 18.8694 18.8695 -8.94936
676 1 4.7169 20.4417 20.4417 -8.94964
677 1 6.28924 18.8696 18.8696 -8.94971
678 1 7.86191 20.4417 20.4417 -8.94961
679 1 9.43444 18.8697 18.8696 -8.94959
680 1 11.007 20.4417 20.4417 -8.9496
681 1 12.5797 18.8697 18.8697 -8.94962
682 1 14.1521 20.4417 20.4417 -8.94962
683 1 15.7249 18.8696 18.8696 -8.94958
684 1 17.297 20.4417 20.4417 -8.94957
685 1 18.8695 18.8693 18.8693 -8.94953
686 1 20.4416 20.4416 20.4416 -8.94952
687 2 10.1843 11.007 12.6231 0.806224
