ITEM: TIMESTEP
43
ITEM: NUMBER OF ATOMS
688
ITEM: BOX BOUNDS pp pp pp
0.0000000000000000e+00 2.2013900999999997e+01
0.0000000000000000e+00 2.2013900999999997e+01
0.0000000000000000e+00 2.2013900999999997e+01
ITEM: ATOMS id type x y z c_pot
1 1 2.09572e-09 1.48146e-15 -7.92036e-16 -8.94963
2 1 1.57242 1.57242 1.57242 -8.94963
3 1 3.14484 1.65884e-15 -8.97319e-16 -8.94963
4 1 4.71726 1.57242 1.57242 -8.94964
5 1 6.28969 1.99804e-15 -2.22216e-16 -8.94963
6 1 7.86211 1.57242 1.57242 -8.94963
7 1 9.43453 1.4308e-15 3.77275e-16 -8.94963
8 1 11.007 1.57242 1.57242 -8.94963
9 1 12.5794 -1.86421e-15 -3.37668e-16 -8.94963
10 1 14.1518 1.57242 1.57242 -8.94963
11 1 15.7242 -1.85815e-15 8.00332e-16 -8.94963
12 1 17.2966 1.57242 1.57242 -8.94963
13 1 18.8691 1.03721e-15 -2.56698e-16 -8.94963
14 1 20.4415 1.57242 1.57242 -8.94963
15 1 22.0139 3.14484 3.12526e-16 -8.94963
16 1 1.57242 4.71726 1.57242 -8.94963
17 1 3.14484 3.14484 5.69105e-16 -8.94963
18 1 4.71726 4.71726 1.57242 -8.94963
19 1 6.28969 3.14484 4.1628e-16 -8.94964
20 1 7.86211 4.71726 1.57242 -8.94965
21 1 9.43453 3.14484 5.22595e-16 -8.94963
22 1 11.007 4.71726 1.57242 -8.94963
23 1 12.5794 3.14484 5.43335e-17 -8.94963
24 1 14.1518 4.71727 1.57242 -8.94966
25 1 15.7242 3.14484 1.3734e-16 -8.94964
26 1 17.2966 4.71726 1.57242 -8.94962
27 1 18.8691 3.14484 1.12982e-15 -8.94963
28 1 20.4415 4.71726 1.57242 -8.94963
29 1 7.83699e-08 6.28969 4.87946e-16 -8.94963
30 1 1.57242 7.86211 1.57242 -8.94964
31 1 3.14484 6.28968 1.92239e-15 -8.94963
32 1 4.71726 7.8621 1.57241 -8.94964
33 1 6.28968 6.28968 1.74515e-15 -8.94961
34 1 7.86207 7.86206 1.57236 -8.94961
35 1 9.43453 6.28969 1.89315e-15 -8.94964
36 1 11.0069 7.86211 1.57242 -8.94958
37 1 12.5794 6.28969 1.52018e-15 -8.94964
38 1 14.1518 7.86206 1.57236 -8.94958
39 1 15.7242 6.28968 7.30081e-17 -8.9496
40 1 17.2966 7.86211 1.57243 -8.94966
41 1 18.8691 6.28969 -7.4941e-16 -8.94964
42 1 20.4415 7.86211 1.57242 -8.94963
43 1 22.0139 9.43453 4.09308e-16 -8.94963
44 1 3.14484 9.43453 1.96455e-15 -8.94963
45 1 6.28968 9.43453 1.73999e-15 -8.94969
46 1 9.43449 9.43448 1.34096e-15 -8.94965
47 1 12.5794 9.43449 1.4726e-15 -8.94973
48 1 15.7242 9.43454 1.69867e-15 -8.94963
49 1 18.8691 9.43453 9.83805e-17 -8.94963
50 1 22.0139 6.10707e-16 3.14484 -8.94963
51 1 1.57242 1.57242 4.71726 -8.94964
52 1 3.14484 3.13704e-16 3.14484 -8.94963
53 1 4.71726 1.57242 4.71726 -8.94962
54 1 6.28969 1.5096e-15 3.14484 -8.94964
55 1 7.86211 1.57242 4.71727 -8.94964
56 1 9.43453 2.56945e-16 3.14484 -8.94963
57 1 11.0069 1.57242 4.71727 -8.94964
58 1 12.5794 3.00178e-16 3.14484 -8.94964
59 1 14.1518 1.57242 4.71726 -8.94962
60 1 15.7242 2.60493e-16 3.14484 -8.94963
61 1 17.2966 1.57242 4.71726 -8.94963
62 1 18.8691 1.01554e-15 3.14484 -8.94963
63 1 20.4415 1.57242 4.71726 -8.94963
64 1 2.62606e-07 3.14484 3.14484 -8.94963
65 1 1.57242 4.71727 4.71727 -8.94964
66 1 3.14484 3.14484 3.14484 -8.94962
67 1 4.71724 4.71723 4.71724 -8.94948
68 1 6.28969 3.14484 3.14484 -8.94966
69 1 7.86213 4.71728 4.71727 -8.94984
70 1 9.43453 3.14484 3.14484 -8.94963
71 1 11.0069 4.71727 4.71724 -8.94962
72 1 12.5794 3.14484 3.14484 -8.94964
73 1 14.1518 4.71722 4.71724 -8.94965
74 1 15.7242 3.14484 3.14484 -8.94963
75 1 17.2966 4.71726 4.71725 -8.94959
76 1 18.8691 3.14484 3.14484 -8.94963
77 1 20.4415 4.71726 4.71726 -8.94963
78 1 22.0139 6.28969 3.14484 -8.94963
79 1 1.57241 7.8621 4.71726 -8.94963
80 1 3.14483 6.28968 3.14484 -8.9496
81 1 4.71716 7.862 4.71717 -8.94935
82 1 6.28966 6.28966 3.1448 -8.94961
83 1 7.86192 7.86191 4.71676 -8.95015
84 1 9.43455 6.28966 3.14485 -8.94962
85 1 11.0068 7.8622 4.71723 -8.95019
86 1 12.5793 6.28969 3.14486 -8.94983
87 1 14.1522 7.8617 4.71683 -8.94828
88 1 15.7242 6.28966 3.1448 -8.94946
89 1 17.2966 7.86213 4.71728 -8.94979
90 1 18.8691 6.28969 3.14485 -8.94965
91 1 20.4415 7.86211 4.71727 -8.94964
92 1 -2.27467e-09 9.43453 3.14484 -8.94963
93 1 3.14484 9.43453 3.14484 -8.94966
94 1 6.28962 9.43451 3.14472 -8.94984
95 1 9.43422 9.4342 3.14441 -8.94853
96 1 12.5797 9.43419 3.14434 -8.94923
97 1 15.7242 9.43457 3.1449 -8.94978
98 1 18.8691 9.43453 3.14484 -8.94963
99 1 -1.78794e-08 -3.63801e-16 6.28969 -8.94963
100 1 1.57242 1.57242 7.86211 -8.94963
101 1 3.14484 -4.89232e-16 6.28969 -8.94963
102 1 4.71726 1.57242 7.86211 -8.94962
103 1 6.28968 1.222e-16 6.28968 -8.94964
104 1 7.86209 1.57238 7.86209 -8.94969
105 1 9.43453 5.5473e-16 6.28969 -8.94962
106 1 11.007 1.57238 7.86208 -8.94965
107 1 12.5794 1.03901e-15 6.28968 -8.94964
108 1 14.1518 1.57241 7.8621 -8.94965
109 1 15.7242 1.24759e-15 6.28969 -8.94964
110 1 17.2966 1.57242 7.86211 -8.94963
111 1 18.8691 1.15187e-15 6.28969 -8.94963
112 1 20.4415 1.57242 7.86211 -8.94963
113 1 22.0139 3.14484 6.28969 -8.94963
114 1 1.57242 4.71727 7.86211 -8.94964
115 1 3.14485 3.14485 6.28969 -8.94965
116 1 4.71726 4.71728 7.86212 -8.94964
117 1 6.28965 3.14479 6.28965 -8.9496
118 1 7.86181 4.71681 7.86179 -8.94935
119 1 9.43453 3.14484 6.28969 -8.94958
120 1 11.0072 4.71687 7.86177 -8.94852
121 1 12.5794 3.14478 6.28965 -8.94961
122 1 14.1519 4.71711 7.86206 -8.94979
123 1 15.7242 3.14483 6.28968 -8.94963
124 1 17.2966 4.71726 7.8621 -8.94962
125 1 18.8691 3.14484 6.28969 -8.94964
126 1 20.4415 4.71726 7.86211 -8.94963
127 1 1.31793e-06 6.28969 6.28969 -8.94963
128 1 1.57241 7.8621 7.86211 -8.94964
129 1 3.14483 6.28969 6.28969 -8.94972
130 1 4.71705 7.86212 7.86213 -8.95035
131 1 6.28931 6.28929 6.28928 -8.94834
132 1 7.85905 7.85966 7.8581 -8.98283
133 1 9.43469 6.28963 6.28979 -8.95021
134 1 11.0085 7.86163 7.86111 -9.00271
135 1 12.5795 6.28923 6.28953 -8.95035
136 1 14.1531 7.86093 7.86133 -8.94694
137 1 15.7243 6.28958 6.28955 -8.94919
138 1 17.2968 7.86206 7.86208 -8.94985
139 1 18.8691 6.28968 6.28968 -8.94964
140 1 20.4415 7.86211 7.86211 -8.94966
141 1 22.0139 9.43453 6.28968 -8.94966
142 1 3.14471 9.43449 6.28963 -8.94977
143 1 6.28867 9.43411 6.28877 -8.94848
144 1 9.43261 9.43329 6.28883 -9.00181
145 1 12.5826 9.4306 6.28695 -8.98108
146 1 15.7243 9.43468 6.28985 -8.95086
147 1 18.8691 9.43454 6.28969 -8.94965
148 1 -3.12953e-08 1.03212e-15 9.43453 -8.94963
149 1 3.14484 5.95095e-16 9.43453 -8.94964
150 1 6.28968 1.31408e-15 9.43452 -8.94961
151 1 9.43453 1.2438e-15 9.43453 -8.94991
152 1 12.5794 1.04194e-15 9.43452 -8.94965
153 1 15.7242 6.34603e-16 9.43453 -8.94964
154 1 18.8691 1.08608e-15 9.43453 -8.94963
155 1 -7.29864e-08 3.14484 9.43453 -8.94963
156 1 3.14485 3.14485 9.43453 -8.94966
157 1 6.28965 3.14482 9.43449 -8.94943
158 1 9.43453 3.14429 9.43453 -8.95139
159 1 12.5794 3.14472 9.43449 -8.94973
160 1 15.7242 3.14482 9.43452 -8.94961
161 1 18.8691 3.14484 9.43453 -8.94964
162 1 5.73051e-06 6.28969 9.43453 -8.94964
163 1 3.14485 6.28969 9.43454 -8.94964
164 1 6.28956 6.2896 9.43417 -8.94873
165 1 9.43458 6.28334 9.43465 -8.96328
166 1 12.5796 6.28863 9.43436 -8.95145
167 1 15.7244 6.28954 9.43443 -8.94912
168 1 18.8691 6.28967 9.43452 -8.94961
169 1 -7.46613e-06 9.43452 9.43453 -8.94966
170 1 3.1447 9.43445 9.43448 -8.94938
171 1 6.28893 9.43516 9.43371 -9
172 1 9.41157 9.3869 9.4346 -9.27032
173 1 12.5877 9.42643 9.43255 -9.01376
174 1 15.7252 9.43446 9.43459 -8.95173
175 1 18.8691 9.43455 9.43453 -8.94987
176 1 1.57242 1.57242 11.007 -8.94963
177 1 4.71727 1.57243 11.007 -8.94963
178 1 7.86206 1.57234 11.007 -8.94973
179 1 11.007 1.57233 11.007 -8.94965
180 1 14.1518 1.57241 11.007 -8.9497
181 1 17.2966 1.57242 11.007 -8.94963
182 1 20.4415 1.57242 11.007 -8.94963
183 1 1.57242 4.71726 11.007 -8.94962
184 1 4.7173 4.71736 11.007 -8.94994
185 1 7.86146 4.71634 11.007 -8.9486
186 1 11.0075 4.71646 11.007 -8.94748
187 1 14.1519 4.71704 11.007 -8.95
188 1 17.2966 4.71726 11.007 -8.94968
189 1 20.4415 4.71726 11.007 -8.94963
190 1 1.57243 7.86211 11.007 -8.94967
191 1 4.71704 7.86232 11.007 -8.95159
192 1 7.85645 7.85778 11.007 -9.01297
193 1 11.0105 7.86073 11.007 -9.05338
194 1 14.1538 7.86045 11.007 -8.94698
195 1 17.2969 7.862 11.007 -8.94987
196 1 20.4415 7.8621 11.007 -8.94969
197 1 -3.12953e-08 7.01854e-16 12.5794 -8.94963
198 1 1.57242 1.57242 14.1518 -8.94963
199 1 3.14484 6.11829e-16 12.5794 -8.94964
200 1 4.71726 1.57242 14.1518 -8.94962
201 1 6.28968 1.11797e-15 12.5794 -8.94961
202 1 7.86209 1.57238 14.1518 -8.94969
203 1 9.43453 1.16383e-15 12.5794 -8.94991
204 1 11.007 1.57238 14.1518 -8.94965
205 1 12.5794 1.34061e-15 12.5794 -8.94965
206 1 14.1518 1.57241 14.1518 -8.94965
207 1 15.7242 7.60294e-16 12.5794 -8.94964
208 1 17.2966 1.57242 14.1518 -8.94963
209 1 18.8691 1.11789e-15 12.5794 -8.94963
210 1 20.4415 1.57242 14.1518 -8.94963
211 1 -7.29864e-08 3.14484 12.5794 -8.94963
212 1 1.57242 4.71727 14.1518 -8.94964
213 1 3.14485 3.14485 12.5794 -8.94966
214 1 4.71726 4.71728 14.1518 -8.94964
215 1 6.28965 3.14482 12.5794 -8.94943
216 1 7.86181 4.71681 14.1521 -8.94935
217 1 9.43453 3.14429 12.5794 -8.95139
218 1 11.0072 4.71687 14.1521 -8.94852
219 1 12.5794 3.14472 12.5794 -8.94973
220 1 14.1519 4.71711 14.1518 -8.94979
221 1 15.7242 3.14482 12.5794 -8.94961
222 1 17.2966 4.71726 14.1518 -8.94962
223 1 18.8691 3.14484 12.5794 -8.94964
224 1 20.4415 4.71726 14.1518 -8.94963
225 1 5.73051e-06 6.28969 12.5794 -8.94964
226 1 1.57241 7.8621 14.1518 -8.94964
227 1 3.14485 6.28969 12.5794 -8.94964
228 1 4.71705 7.86212 14.1518 -8.95035
229 1 6.28956 6.2896 12.5797 -8.94873
230 1 7.85905 7.85966 14.1558 -8.98283
231 1 9.43458 6.28334 12.5793 -8.96328
232 1 11.0085 7.86163 14.1528 -9.00271
233 1 12.5796 6.28863 12.5795 -8.95145
234 1 14.1531 7.86093 14.1526 -8.94694
235 1 15.7244 6.28954 12.5795 -8.94912
236 1 17.2968 7.86206 14.1518 -8.94985
237 1 18.8691 6.28967 12.5794 -8.94961
238 1 20.4415 7.86211 14.1518 -8.94966
239 1 -7.46613e-06 9.43452 12.5794 -8.94966
240 1 3.1447 9.43445 12.5794 -8.94938
241 1 6.28893 9.43516 12.5802 -9
242 1 9.41157 9.3869 12.5793 -9.27032
243 1 12.5877 9.42643 12.5814 -9.01376
244 1 15.7252 9.43446 12.5793 -8.95173
245 1 18.8691 9.43455 12.5794 -8.94987
246 1 -1.78794e-08 -6.37682e-16 15.7242 -8.94963
247 1 1.57242 1.57242 17.2966 -8.94964
248 1 3.14484 -4.57744e-16 15.7242 -8.94963
249 1 4.71726 1.57242 17.2966 -8.94962
250 1 6.28968 2.24599e-16 15.7242 -8.94964
251 1 7.86211 1.57242 17.2966 -8.94964
252 1 9.43453 3.13233e-16 15.7242 -8.94962
253 1 11.0069 1.57242 17.2966 -8.94964
254 1 12.5794 1.3502e-15 15.7242 -8.94964
255 1 14.1518 1.57242 17.2966 -8.94962
256 1 15.7242 1.7946e-15 15.7242 -8.94964
257 1 17.2966 1.57242 17.2966 -8.94963
258 1 18.8691 1.66733e-15 15.7242 -8.94963
259 1 20.4415 1.57242 17.2966 -8.94963
260 1 22.0139 3.14484 15.7242 -8.94963
261 1 1.57242 4.71727 17.2966 -8.94964
262 1 3.14485 3.14485 15.7242 -8.94965
263 1 4.71724 4.71723 17.2967 -8.94948
264 1 6.28965 3.14479 15.7243 -8.9496
265 1 7.86213 4.71728 17.2966 -8.94984
266 1 9.43453 3.14484 15.7242 -8.94958
267 1 11.0069 4.71727 17.2967 -8.94962
268 1 12.5794 3.14478 15.7243 -8.94961
269 1 14.1518 4.71722 17.2967 -8.94965
270 1 15.7242 3.14483 15.7242 -8.94963
271 1 17.2966 4.71726 17.2966 -8.94959
272 1 18.8691 3.14484 15.7242 -8.94964
273 1 20.4415 4.71726 17.2966 -8.94963
274 1 1.31793e-06 6.28969 15.7242 -8.94963
275 1 1.57241 7.8621 17.2966 -8.94963
276 1 3.14483 6.28969 15.7242 -8.94972
277 1 4.71716 7.862 17.2967 -8.94935
278 1 6.28931 6.28929 15.7246 -8.94834
279 1 7.86192 7.86191 17.2971 -8.95015
280 1 9.43469 6.28963 15.7241 -8.95021
281 1 11.0068 7.8622 17.2967 -8.95019
282 1 12.5795 6.28923 15.7244 -8.95035
283 1 14.1522 7.8617 17.2971 -8.94828
284 1 15.7243 6.28958 15.7243 -8.94919
285 1 17.2966 7.86213 17.2966 -8.94979
286 1 18.8691 6.28968 15.7242 -8.94964
287 1 20.4415 7.86211 17.2966 -8.94964
288 1 22.0139 9.43453 15.7242 -8.94966
289 1 3.14471 9.43449 15.7243 -8.94977
290 1 6.28867 9.43411 15.7251 -8.94848
291 1 9.43261 9.43329 15.7251 -9.00181
292 1 12.5826 9.4306 15.727 -8.98108
293 1 15.7243 9.43468 15.724 -8.95086
294 1 18.8691 9.43454 15.7242 -8.94965
295 1 22.0139 5.3611e-16 18.8691 -8.94963
296 1 1.57242 1.57242 20.4415 -8.94963
297 1 3.14484 -5.40745e-17 18.8691 -8.94963
298 1 4.71726 1.57242 20.4415 -8.94964
299 1 6.28969 1.88194e-15 18.8691 -8.94964
300 1 7.86211 1.57242 20.4415 -8.94963
301 1 9.43453 -7.66398e-18 18.8691 -8.94963
302 1 11.007 1.57242 20.4415 -8.94963
303 1 12.5794 7.22442e-16 18.8691 -8.94964
304 1 14.1518 1.57242 20.4415 -8.94963
305 1 15.7242 9.73651e-16 18.8691 -8.94963
306 1 17.2966 1.57242 20.4415 -8.94963
307 1 18.8691 1.58446e-15 18.8691 -8.94963
308 1 20.4415 1.57242 20.4415 -8.94963
309 1 2.62606e-07 3.14484 18.8691 -8.94963
310 1 1.57242 4.71726 20.4415 -8.94963
311 1 3.14484 3.14484 18.8691 -8.94962
312 1 4.71726 4.71726 20.4415 -8.94963
313 1 6.28969 3.14484 18.8691 -8.94966
314 1 7.86211 4.71726 20.4415 -8.94965
315 1 9.43453 3.14484 18.8691 -8.94963
316 1 11.007 4.71726 20.4415 -8.94963
317 1 12.5794 3.14484 18.8691 -8.94964
318 1 14.1518 4.71727 20.4415 -8.94966
319 1 15.7242 3.14484 18.8691 -8.94963
320 1 17.2966 4.71726 20.4415 -8.94962
321 1 18.8691 3.14484 18.8691 -8.94963
322 1 20.4415 4.71726 20.4415 -8.94963
323 1 22.0139 6.28969 18.8691 -8.94963
324 1 1.57242 7.86211 20.4415 -8.94964
325 1 3.14483 6.28968 18.8691 -8.9496
326 1 4.71726 7.8621 20.4415 -8.94964
327 1 6.28966 6.28966 18.8691 -8.94961
328 1 7.86207 7.86206 20.4415 -8.94961
329 1 9.43455 6.28966 18.8691 -8.94962
330 1 11.0069 7.86211 20.4415 -8.94958
331 1 12.5793 6.28969 18.869 -8.94983
332 1 14.1518 7.86206 20.4415 -8.94958
333 1 15.7242 6.28966 18.8691 -8.94946
334 1 17.2966 7.86211 20.4415 -8.94966
335 1 18.8691 6.28969 18.8691 -8.94965
336 1 20.4415 7.86211 20.4415 -8.94963
337 1 -2.27467e-09 9.43453 18.8691 -8.94963
338 1 3.14484 9.43453 18.8691 -8.94966
339 1 6.28962 9.43451 18.8692 -8.94984
340 1 9.43422 9.4342 18.8695 -8.94853
341 1 12.5797 9.43419 18.8696 -8.94923
342 1 15.7242 9.43457 18.869 -8.94978
343 1 18.8691 9.43453 18.8691 -8.94963
344 1 1.57242 11.007 1.57242 -8.94964
345 1 4.71726 11.007 1.57241 -8.94961
346 1 7.86211 11.007 1.57237 -8.94977
347 1 11.0069 11.007 1.57187 -8.95168
348 1 14.1518 11.007 1.57245 -8.94946
349 1 17.2966 11.007 1.57242 -8.94964
350 1 20.4415 11.007 1.57242 -8.94963
351 1 22.0139 12.5794 2.81058e-16 -8.94963
352 1 1.57242 14.1518 1.57242 -8.94964
353 1 3.14484 12.5794 2.07479e-15 -8.94963
354 1 4.71726 14.1518 1.57241 -8.94964
355 1 6.28968 12.5794 1.83214e-15 -8.94969
356 1 7.86207 14.1518 1.57236 -8.94961
357 1 9.43449 12.5794 1.77288e-15 -8.94965
358 1 11.0069 14.1518 1.57242 -8.94958
359 1 12.5794 12.5794 1.63219e-15 -8.94973
360 1 14.1518 14.1518 1.57236 -8.94958
361 1 15.7242 12.5794 2.03e-15 -8.94963
362 1 17.2966 14.1518 1.57243 -8.94966
363 1 18.8691 12.5794 5.60095e-16 -8.94963
364 1 20.4415 14.1518 1.57242 -8.94963
365 1 7.83699e-08 15.7242 -1.01704e-16 -8.94963
366 1 1.57242 17.2966 1.57242 -8.94963
367 1 3.14484 15.7242 1.40239e-15 -8.94963
368 1 4.71726 17.2966 1.57242 -8.94963
369 1 6.28968 15.7242 2.05709e-15 -8.94961
370 1 7.86211 17.2966 1.57242 -8.94965
371 1 9.43453 15.7242 1.79742e-15 -8.94964
372 1 11.007 17.2966 1.57242 -8.94963
373 1 12.5794 15.7242 1.17682e-15 -8.94964
374 1 14.1518 17.2966 1.57242 -8.94966
375 1 15.7242 15.7242 1.95308e-16 -8.9496
376 1 17.2966 17.2966 1.57242 -8.94962
377 1 18.8691 15.7242 -7.0307e-16 -8.94964
378 1 20.4415 17.2966 1.57242 -8.94963
379 1 22.0139 18.8691 -7.88823e-18 -8.94963
380 1 1.57242 20.4415 1.57242 -8.94963
381 1 3.14484 18.8691 3.90392e-16 -8.94963
382 1 4.71726 20.4415 1.57242 -8.94964
383 1 6.28969 18.8691 8.16956e-16 -8.94964
384 1 7.86211 20.4415 1.57242 -8.94963
385 1 9.43453 18.8691 7.65207e-16 -8.94963
386 1 11.007 20.4415 1.57242 -8.94963
387 1 12.5794 18.8691 1.98366e-16 -8.94963
388 1 14.1518 20.4415 1.57242 -8.94963
389 1 15.7242 18.8691 1.17813e-16 -8.94964
390 1 17.2966 20.4415 1.57242 -8.94963
391 1 18.8691 18.8691 7.85898e-16 -8.94963
392 1 20.4415 20.4415 1.57242 -8.94963
393 1 1.57241 11.007 4.71726 -8.94962
394 1 4.71719 11.007 4.7172 -8.94936
395 1 7.86201 11.007 4.71663 -8.95104
396 1 11.007 11.007 4.71055 -8.96388
397 1 14.1516 11.007 4.71758 -8.94978
398 1 17.2966 11.007 4.71726 -8.94951
399 1 20.4415 11.007 4.71726 -8.94963
400 1 -2.27467e-09 12.5794 3.14484 -8.94963
401 1 1.57241 14.1518 4.71726 -8.94963
402 1 3.14484 12.5794 3.14484 -8.94966
403 1 4.71716 14.1519 4.71717 -8.94935
404 1 6.28962 12.5794 3.14472 -8.94984
405 1 7.86192 14.152 4.71676 -8.95015
406 1 9.43422 12.5797 3.14441 -8.94853
407 1 11.0068 14.1517 4.71723 -8.95019
408 1 12.5797 12.5797 3.14434 -8.94923
409 1 14.1522 14.1522 4.71683 -8.94828
410 1 15.7242 12.5793 3.1449 -8.94978
411 1 17.2966 14.1518 4.71728 -8.94979
412 1 18.8691 12.5794 3.14484 -8.94963
413 1 20.4415 14.1518 4.71727 -8.94964
414 1 22.0139 15.7242 3.14484 -8.94963
415 1 1.57242 17.2966 4.71727 -8.94964
416 1 3.14483 15.7242 3.14484 -8.9496
417 1 4.71724 17.2967 4.71724 -8.94948
418 1 6.28966 15.7242 3.1448 -8.94961
419 1 7.86213 17.2966 4.71727 -8.94984
420 1 9.43455 15.7242 3.14485 -8.94962
421 1 11.0069 17.2966 4.71724 -8.94962
422 1 12.5793 15.7242 3.14486 -8.94983
423 1 14.1518 17.2967 4.71724 -8.94965
424 1 15.7242 15.7242 3.1448 -8.94946
425 1 17.2966 17.2966 4.71725 -8.94959
426 1 18.8691 15.7242 3.14485 -8.94965
427 1 20.4415 17.2966 4.71726 -8.94963
428 1 2.62606e-07 18.8691 3.14484 -8.94963
429 1 1.57242 20.4415 4.71726 -8.94964
430 1 3.14484 18.8691 3.14484 -8.94962
431 1 4.71726 20.4415 4.71726 -8.94962
432 1 6.28969 18.8691 3.14484 -8.94966
433 1 7.86211 20.4415 4.71727 -8.94964
434 1 9.43453 18.8691 3.14484 -8.94963
435 1 11.0069 20.4415 4.71727 -8.94964
436 1 12.5794 18.8691 3.14484 -8.94964
437 1 14.1518 20.4415 4.71726 -8.94962
438 1 15.7242 18.8691 3.14484 -8.94963
439 1 17.2966 20.4415 4.71726 -8.94963
440 1 18.8691 18.8691 3.14484 -8.94963
441 1 20.4415 20.4415 4.71726 -8.94963
442 1 1.57235 11.007 7.86212 -8.94982
443 1 4.71644 11.007 7.86193 -8.95061
444 1 7.85694 11.007 7.85739 -8.98317
445 1 11.0299 11.007 7.81068 -9.23237
446 1 14.1512 11.007 7.86363 -9.00161
447 1 17.2966 11.007 7.86207 -8.94908
448 1 20.4415 11.007 7.8621 -8.94962
449 1 22.0139 12.5794 6.28968 -8.94966
450 1 1.57241 14.1518 7.86211 -8.94964
451 1 3.14471 12.5794 6.28963 -8.94977
452 1 4.71705 14.1518 7.86213 -8.95035
453 1 6.28867 12.5798 6.28877 -8.94848
454 1 7.85905 14.1542 7.8581 -8.98283
455 1 9.43261 12.5806 6.28883 -9.00181
456 1 11.0085 14.1523 7.86111 -9.00271
457 1 12.5826 12.5833 6.28695 -8.98108
458 1 14.1531 14.153 7.86133 -8.94694
459 1 15.7243 12.5792 6.28985 -8.95086
460 1 17.2968 14.1518 7.86208 -8.94985
461 1 18.8691 12.5794 6.28969 -8.94965
462 1 20.4415 14.1518 7.86211 -8.94966
463 1 1.31793e-06 15.7242 6.28969 -8.94963
464 1 1.57242 17.2966 7.86211 -8.94964
465 1 3.14483 15.7242 6.28969 -8.94972
466 1 4.71726 17.2966 7.86212 -8.94964
467 1 6.28931 15.7246 6.28928 -8.94834
468 1 7.86181 17.2971 7.86179 -8.94935
469 1 9.43469 15.7243 6.28979 -8.95021
470 1 11.0072 17.297 7.86177 -8.94852
471 1 12.5795 15.7247 6.28953 -8.95035
472 1 14.1519 17.2968 7.86206 -8.94979
473 1 15.7243 15.7243 6.28955 -8.94919
474 1 17.2966 17.2966 7.8621 -8.94962
475 1 18.8691 15.7242 6.28968 -8.94964
476 1 20.4415 17.2966 7.86211 -8.94963
477 1 22.0139 18.8691 6.28969 -8.94963
478 1 1.57242 20.4415 7.86211 -8.94963
479 1 3.14485 18.8691 6.28969 -8.94965
480 1 4.71726 20.4415 7.86211 -8.94962
481 1 6.28965 18.8691 6.28965 -8.9496
482 1 7.86209 20.4415 7.86209 -8.94969
483 1 9.43453 18.8691 6.28969 -8.94958
484 1 11.007 20.4415 7.86208 -8.94965
485 1 12.5794 18.8691 6.28965 -8.94961
486 1 14.1518 20.4415 7.8621 -8.94965
487 1 15.7242 18.8691 6.28968 -8.94963
488 1 17.2966 20.4415 7.86211 -8.94963
489 1 18.8691 18.8691 6.28969 -8.94964
490 1 20.4415 20.4415 7.86211 -8.94963
491 1 -7.46613e-06 12.5794 9.43453 -8.94966
492 1 3.1447 12.5794 9.43448 -8.94938
493 1 6.28893 12.5787 9.43371 -9
494 1 9.41157 12.627 9.4346 -9.27032
495 1 12.5877 12.5875 9.43255 -9.01376
496 1 15.7252 12.5794 9.43459 -8.95173
497 1 18.8691 12.5794 9.43453 -8.94987
498 1 5.73051e-06 15.7242 9.43453 -8.94964
499 1 3.14485 15.7242 9.43454 -8.94964
500 1 6.28956 15.7243 9.43417 -8.94873
501 1 9.43458 15.7306 9.43465 -8.96328
502 1 12.5796 15.7253 9.43436 -8.95145
503 1 15.7244 15.7244 9.43443 -8.94912
504 1 18.8691 15.7242 9.43452 -8.94961
505 1 -7.29864e-08 18.8691 9.43453 -8.94963
506 1 3.14485 18.8691 9.43453 -8.94966
507 1 6.28965 18.8691 9.43449 -8.94943
508 1 9.43453 18.8696 9.43453 -8.95139
509 1 12.5794 18.8692 9.43449 -8.94973
510 1 15.7242 18.8691 9.43452 -8.94961
511 1 18.8691 18.8691 9.43453 -8.94964
688 2 10.2109 11.007 9.41874 0.846984
512 1 1.5723 11.007 11.007 -8.95006
513 1 4.71575 11.007 11.007 -8.9521
514 1 7.85179 11.007 11.007 -9.01218
515 1 11.0628 11.007 11.007 -9.45477
516 1 14.1525 11.007 11.007 -9.05165
517 1 17.2967 11.007 11.007 -8.94921
518 1 20.4415 11.007 11.007 -8.94964
519 1 1.57243 14.1518 11.007 -8.94967
520 1 4.71704 14.1516 11.007 -8.95159
521 1 7.85645 14.1561 11.007 -9.01297
522 1 11.0105 14.1532 11.007 -9.05338
523 1 14.1538 14.1535 11.007 -8.94698
524 1 17.2969 14.1519 11.007 -8.94987
525 1 20.4415 14.1518 11.007 -8.94969
526 1 1.57242 17.2966 11.007 -8.94962
527 1 4.7173 17.2965 11.007 -8.94994
528 1 7.86146 17.2976 11.007 -8.9486
529 1 11.0075 17.2974 11.007 -8.94748
530 1 14.1519 17.2969 11.007 -8.95
531 1 17.2966 17.2966 11.007 -8.94968
532 1 20.4415 17.2966 11.007 -8.94963
533 1 1.57242 20.4415 11.007 -8.94963
534 1 4.71727 20.4415 11.007 -8.94963
535 1 7.86206 20.4416 11.007 -8.94973
536 1 11.007 20.4416 11.007 -8.94965
537 1 14.1518 20.4415 11.007 -8.9497
538 1 17.2966 20.4415 11.007 -8.94963
539 1 20.4415 20.4415 11.007 -8.94963
540 1 1.57235 11.007 14.1518 -8.94982
541 1 4.71644 11.007 14.152 -8.95061
542 1 7.85694 11.007 14.1565 -8.98317
543 1 11.0299 11.007 14.2032 -9.23237
544 1 14.1512 11.007 14.1503 -9.00161
545 1 17.2966 11.007 14.1518 -8.94908
546 1 20.4415 11.007 14.1518 -8.94962
547 1 -7.46613e-06 12.5794 12.5794 -8.94966
548 1 1.57241 14.1518 14.1518 -8.94964
549 1 3.1447 12.5794 12.5794 -8.94938
550 1 4.71705 14.1518 14.1518 -8.95035
551 1 6.28893 12.5787 12.5802 -9
552 1 7.85905 14.1542 14.1558 -8.98283
553 1 9.41157 12.627 12.5793 -9.27032
554 1 11.0085 14.1523 14.1528 -9.00271
555 1 12.5877 12.5875 12.5814 -9.01376
556 1 14.1531 14.153 14.1526 -8.94694
557 1 15.7252 12.5794 12.5793 -8.95173
558 1 17.2968 14.1518 14.1518 -8.94985
559 1 18.8691 12.5794 12.5794 -8.94987
560 1 20.4415 14.1518 14.1518 -8.94966
561 1 5.73051e-06 15.7242 12.5794 -8.94964
562 1 1.57242 17.2966 14.1518 -8.94964
563 1 3.14485 15.7242 12.5794 -8.94964
564 1 4.71726 17.2966 14.1518 -8.94964
565 1 6.28956 15.7243 12.5797 -8.94873
566 1 7.86181 17.2971 14.1521 -8.94935
567 1 9.43458 15.7306 12.5793 -8.96328
568 1 11.0072 17.297 14.1521 -8.94852
569 1 12.5796 15.7253 12.5795 -8.95145
570 1 14.1519 17.2968 14.1518 -8.94979
571 1 15.7244 15.7244 12.5795 -8.94912
572 1 17.2966 17.2966 14.1518 -8.94962
573 1 18.8691 15.7242 12.5794 -8.94961
574 1 20.4415 17.2966 14.1518 -8.94963
575 1 -7.29864e-08 18.8691 12.5794 -8.94963
576 1 1.57242 20.4415 14.1518 -8.94963
577 1 3.14485 18.8691 12.5794 -8.94966
578 1 4.71726 20.4415 14.1518 -8.94962
579 1 6.28965 18.8691 12.5794 -8.94943
580 1 7.86209 20.4415 14.1518 -8.94969
581 1 9.43453 18.8696 12.5794 -8.95139
582 1 11.007 20.4415 14.1518 -8.94965
583 1 12.5794 18.8692 12.5794 -8.94973
584 1 14.1518 20.4415 14.1518 -8.94965
585 1 15.7242 18.8691 12.5794 -8.94961
586 1 17.2966 20.4415 14.1518 -8.94963
587 1 18.8691 18.8691 12.5794 -8.94964
588 1 20.4415 20.4415 14.1518 -8.94963
589 1 1.57241 11.007 17.2966 -8.94962
590 1 4.71719 11.007 17.2967 -8.94936
591 1 7.86201 11.007 17.2973 -8.95104
592 1 11.007 11.007 17.3034 -8.96388
593 1 14.1516 11.007 17.2963 -8.94978
594 1 17.2966 11.007 17.2966 -8.94951
595 1 20.4415 11.007 17.2966 -8.94963
596 1 22.0139 12.5794 15.7242 -8.94966
597 1 1.57241 14.1518 17.2966 -8.94963
598 1 3.14471 12.5794 15.7243 -8.94977
599 1 4.71716 14.1519 17.2967 -8.94935
600 1 6.28867 12.5798 15.7251 -8.94848
601 1 7.86192 14.152 17.2971 -8.95015
602 1 9.43261 12.5806 15.7251 -9.00181
603 1 11.0068 14.1517 17.2967 -8.95019
604 1 12.5826 12.5833 15.727 -8.98108
605 1 14.1522 14.1522 17.2971 -8.94828
606 1 15.7243 12.5792 15.724 -8.95086
607 1 17.2966 14.1518 17.2966 -8.94979
608 1 18.8691 12.5794 15.7242 -8.94965
609 1 20.4415 14.1518 17.2966 -8.94964
610 1 1.31793e-06 15.7242 15.7242 -8.94963
611 1 1.57242 17.2966 17.2966 -8.94964
612 1 3.14483 15.7242 15.7242 -8.94972
613 1 4.71724 17.2967 17.2967 -8.94948
614 1 6.28931 15.7246 15.7246 -8.94834
615 1 7.86213 17.2966 17.2966 -8.94984
616 1 9.43469 15.7243 15.7241 -8.95021
617 1 11.0069 17.2966 17.2967 -8.94962
618 1 12.5795 15.7247 15.7244 -8.95035
619 1 14.1518 17.2967 17.2967 -8.94965
620 1 15.7243 15.7243 15.7243 -8.94919
621 1 17.2966 17.2966 17.2966 -8.94959
622 1 18.8691 15.7242 15.7242 -8.94964
623 1 20.4415 17.2966 17.2966 -8.94963
624 1 22.0139 18.8691 15.7242 -8.94963
625 1 1.57242 20.4415 17.2966 -8.94964
626 1 3.14485 18.8691 15.7242 -8.94965
627 1 4.71726 20.4415 17.2966 -8.94962
628 1 6.28965 18.8691 15.7243 -8.9496
629 1 7.86211 20.4415 17.2966 -8.94964
630 1 9.43453 18.8691 15.7242 -8.94958
631 1 11.0069 20.4415 17.2966 -8.94964
632 1 12.5794 18.8691 15.7243 -8.94961
633 1 14.1518 20.4415 17.2966 -8.94962
634 1 15.7242 18.8691 15.7242 -8.94963
635 1 17.2966 20.4415 17.2966 -8.94963
636 1 18.8691 18.8691 15.7242 -8.94964
637 1 20.4415 20.4415 17.2966 -8.94963
638 1 1.57242 11.007 20.4415 -8.94964
639 1 4.71726 11.007 20.4415 -8.94961
640 1 7.86211 11.007 20.4415 -8.94977
641 1 11.0069 11.007 20.442 -8.95168
642 1 14.1518 11.007 20.4414 -8.94946
643 1 17.2966 11.007 20.4415 -8.94964
644 1 20.4415 11.007 20.4415 -8.94963
645 1 -2.27467e-09 12.5794 18.8691 -8.94963
646 1 1.57242 14.1518 20.4415 -8.94964
647 1 3.14484 12.5794 18.8691 -8.94966
648 1 4.71726 14.1518 20.4415 -8.94964
649 1 6.28962 12.5794 18.8692 -8.94984
650 1 7.86207 14.1518 20.4415 -8.94961
651 1 9.43422 12.5797 18.8695 -8.94853
652 1 11.0069 14.1518 20.4415 -8.94958
653 1 12.5797 12.5797 18.8696 -8.94923
654 1 14.1518 14.1518 20.4415 -8.94958
655 1 15.7242 12.5793 18.869 -8.94978
656 1 17.2966 14.1518 20.4415 -8.94966
657 1 18.8691 12.5794 18.8691 -8.94963
658 1 20.4415 14.1518 20.4415 -8.94963
659 1 22.0139 15.7242 18.8691 -8.94963
660 1 1.57242 17.2966 20.4415 -8.94963
661 1 3.14483 15.7242 18.8691 -8.9496
662 1 4.71726 17.2966 20.4415 -8.94963
663 1 6.28966 15.7242 18.8691 -8.94961
664 1 7.86211 17.2966 20.4415 -8.94965
665 1 9.43455 15.7242 18.8691 -8.94962
666 1 11.007 17.2966 20.4415 -8.94963
667 1 12.5793 15.7242 18.869 -8.94983
668 1 14.1518 17.2966 20.4415 -8.94966
669 1 15.7242 15.7242 18.8691 -8.94946
670 1 17.2966 17.2966 20.4415 -8.94962
671 1 18.8691 15.7242 18.8691 -8.94965
672 1 20.4415 17.2966 20.4415 -8.94963
673 1 2.62606e-07 18.8691 18.8691 -8.94963
674 1 1.57242 20.4415 20.4415 -8.94963
675 1 3.14484 18.8691 18.8691 -8.94962
676 1 4.71726 20.4415 20.4415 -8.94964
677 1 6.28969 18.8691 18.8691 -8.94966
678 1 7.86211 20.4415 20.4415 -8.94963
679 1 9.43453 18.8691 18.8691 -8.94963
680 1 11.007 20.4415 20.4415 -8.94963
681 1 12.5794 18.8691 18.8691 -8.94964
682 1 14.1518 20.4415 20.4415 -8.94963
683 1 15.7242 18.8691 18.8691 -8.94963
684 1 17.2966 20.4415 20.4415 -8.94963
685 1 18.8691 18.8691 18.8691 -8.94963
686 1 20.4415 20.4415 20.4415 -8.94963
687 2 10.2109 11.007 12.5952 0.846984
