ITEM: TIMESTEP
72
ITEM: NUMBER OF ATOMS
688
ITEM: BOX BOUNDS pp pp pp
0.0000000000000000e+00 2.2013900999999997e+01
0.0000000000000000e+00 2.2013900999999997e+01
0.0000000000000000e+00 2.2013900999999997e+01
ITEM: ATOMS id type x y z c_pot
1 1 -8.01751e-05 8.78201e-16 -3.99239e-16 -8.94948
2 1 1.57217 1.5723 1.57227 -8.94949
3 1 3.14459 1.19838e-15 -6.91673e-16 -8.94962
4 1 4.71697 1.57224 1.57221 -8.94965
5 1 6.2895 1.00759e-15 2.82921e-16 -8.94962
6 1 7.86196 1.57221 1.5722 -8.94961
7 1 9.43448 1.41731e-15 2.89329e-16 -8.94961
8 1 11.007 1.5722 1.57219 -8.94961
9 1 12.5795 2.03297e-15 7.99243e-16 -8.94962
10 1 14.152 1.5722 1.5722 -8.94963
11 1 15.7245 1.95039e-15 1.34165e-15 -8.94963
12 1 17.297 1.57222 1.57225 -8.94958
13 1 18.8693 1.15257e-15 6.06886e-17 -8.94953
14 1 20.4416 1.57231 1.57233 -8.94953
15 1 22.0138 3.1447 -9.10162e-18 -8.94958
16 1 1.57217 4.71708 1.57227 -8.94963
17 1 3.14449 3.14458 -5.93189e-16 -8.94957
18 1 4.71671 4.71681 1.57207 -8.9496
19 1 6.2894 3.1445 -3.89296e-16 -8.94964
20 1 7.86181 4.7167 1.57207 -8.94963
21 1 9.43445 3.14447 2.79908e-16 -8.94961
22 1 11.007 4.71668 1.57205 -8.94961
23 1 12.5795 3.14445 8.64004e-17 -8.94962
24 1 14.1522 4.71665 1.57207 -8.94973
25 1 15.7246 3.14445 6.52563e-16 -8.94967
26 1 17.2973 4.71673 1.57215 -8.94935
27 1 18.8694 3.14457 6.22554e-16 -8.94945
28 1 20.4416 4.71707 1.57231 -8.94962
29 1 -4.44024e-05 6.28956 -3.17049e-16 -8.94961
30 1 1.57218 7.86201 1.57229 -8.94961
31 1 3.14445 6.28948 -6.95943e-16 -8.94964
32 1 4.71672 7.8619 1.57215 -8.94967
33 1 6.28908 6.28914 5.23712e-16 -8.94967
34 1 7.86141 7.86138 1.5717 -8.94969
35 1 9.43431 6.28906 6.30867e-16 -8.94958
36 1 11.007 7.86144 1.57167 -8.9495
37 1 12.5796 6.28904 4.26537e-16 -8.9496
38 1 14.1528 7.86117 1.57152 -8.94969
39 1 15.725 6.28896 1.70397e-15 -8.94951
40 1 17.2973 7.86183 1.5722 -8.94961
41 1 18.8694 6.28945 8.5969e-16 -8.94963
42 1 20.4416 7.862 1.57232 -8.9496
43 1 22.0139 9.43448 7.15836e-16 -8.94961
44 1 3.14445 9.43446 9.5645e-16 -8.94958
45 1 6.28915 9.43438 7.62374e-16 -8.94962
46 1 9.43405 9.43401 1.31896e-15 -8.94973
47 1 12.58 9.43398 7.56209e-16 -8.95027
48 1 15.725 9.4343 9.37961e-16 -8.94942
49 1 18.8694 9.43445 2.78867e-16 -8.94959
50 1 22.0138 4.66448e-16 3.14467 -8.94954
51 1 1.57207 1.57227 4.71697 -8.94954
52 1 3.14444 4.65376e-16 3.14448 -8.94951
53 1 4.71663 1.57204 4.71662 -8.94954
54 1 6.28941 -3.79309e-17 3.14444 -8.94961
55 1 7.86185 1.57202 4.71664 -8.94956
56 1 9.43448 1.11928e-15 3.14444 -8.9496
57 1 11.0071 1.57201 4.71662 -8.94956
58 1 12.5796 9.10741e-16 3.14444 -8.94961
59 1 14.1523 1.57199 4.71666 -8.94962
60 1 15.7246 1.38495e-16 3.14449 -8.9496
61 1 17.2971 1.57218 4.71693 -8.94957
62 1 18.8693 4.4498e-16 3.14465 -8.94957
63 1 20.4416 1.5723 4.71708 -8.94958
64 1 -0.000105769 3.14466 3.14464 -8.94959
65 1 1.57197 4.71697 4.7169 -8.94966
66 1 3.14431 3.14446 3.14439 -8.94937
67 1 4.71613 4.71625 4.71615 -8.94883
68 1 6.28929 3.14436 3.14431 -8.94971
69 1 7.8617 4.71619 4.71626 -8.94991
70 1 9.43445 3.14429 3.14432 -8.94959
71 1 11.0072 4.71614 4.71617 -8.94949
72 1 12.5796 3.14428 3.14429 -8.94962
73 1 14.1528 4.71596 4.71622 -8.9497
74 1 15.7248 3.14428 3.14436 -8.94959
75 1 17.2974 4.71666 4.71675 -8.94942
76 1 18.8694 3.14456 3.14462 -8.94953
77 1 20.4417 4.71702 4.71703 -8.94965
78 1 22.0138 6.28954 3.14466 -8.94964
79 1 1.57208 7.86199 4.71696 -8.94963
80 1 3.14432 6.28942 3.14446 -8.94965
81 1 4.71642 7.8617 4.7165 -8.94957
82 1 6.28883 6.28887 3.14377 -8.94977
83 1 7.86095 7.86052 4.71487 -8.95081
84 1 9.43433 6.28872 3.14392 -8.94947
85 1 11.007 7.86097 4.71506 -8.95001
86 1 12.5798 6.28875 3.14386 -8.94992
87 1 14.1545 7.85959 4.71439 -8.94713
88 1 15.7254 6.28862 3.14384 -8.9489
89 1 17.2976 7.86175 4.71678 -8.95009
90 1 18.8695 6.2894 3.14458 -8.9497
91 1 20.4417 7.86199 4.71705 -8.9497
92 1 -5.27728e-05 9.43448 3.14466 -8.94961
93 1 3.1444 9.43446 3.14452 -8.94957
94 1 6.28907 9.43438 3.14413 -8.94989
95 1 9.43366 9.43339 3.14262 -8.94816
96 1 12.5809 9.43319 3.14177 -8.94984
97 1 15.7252 9.43428 3.14419 -8.94956
98 1 18.8695 9.43444 3.14459 -8.94958
99 1 -0.000129966 5.64801e-16 6.28951 -8.9496
100 1 1.57202 1.57225 7.86191 -8.9496
101 1 3.14426 4.28708e-16 6.28926 -8.94949
102 1 4.71637 1.57189 7.86154 -8.94944
103 1 6.28905 4.65742e-16 6.28897 -8.94973
104 1 7.86151 1.57133 7.86134 -8.94999
105 1 9.43447 1.29758e-15 6.289 -8.94958
106 1 11.0074 1.57139 7.86134 -8.94972
107 1 12.5799 2.01802e-15 6.289 -8.94968
108 1 14.1526 1.57181 7.86156 -8.9496
109 1 15.7248 9.63332e-16 6.28925 -8.94958
110 1 17.2972 1.57215 7.86186 -8.94959
111 1 18.8694 5.98536e-16 6.28948 -8.94959
112 1 20.4416 1.57229 7.86198 -8.94961
113 1 22.0138 3.14463 6.28947 -8.94961
114 1 1.57189 4.7169 7.86184 -8.94966
115 1 3.1441 3.14435 6.28916 -8.94947
116 1 4.71582 4.71593 7.86118 -8.9491
117 1 6.28864 3.14347 6.28854 -8.94956
118 1 7.86042 4.71331 7.86015 -8.94965
119 1 9.43448 3.14351 6.28878 -8.9494
120 1 11.0081 4.71387 7.8603 -8.94797
121 1 12.5801 3.1435 6.28865 -8.94959
122 1 14.1532 4.71537 7.86117 -8.94968
123 1 15.7251 3.1441 6.2891 -8.94954
124 1 17.2975 4.71658 7.86172 -8.9495
125 1 18.8695 3.14453 6.28943 -8.94959
126 1 20.4417 4.71698 7.86193 -8.94965
127 1 -0.000137096 6.28949 6.28945 -8.94976
128 1 1.57192 7.86193 7.86186 -8.94985
129 1 3.14384 6.28916 6.28907 -8.94993
130 1 4.71555 7.86115 7.86127 -8.95112
131 1 6.28711 6.28688 6.28685 -8.9469
132 1 7.85572 7.85383 7.8546 -8.98268
133 1 9.43466 6.28719 6.28837 -8.94972
134 1 11.01 7.85795 7.85809 -9.00105
135 1 12.5809 6.28685 6.28761 -8.95064
136 1 14.1553 7.85873 7.85985 -8.94688
137 1 15.7258 6.28839 6.28855 -8.94882
138 1 17.2979 7.86158 7.86176 -8.9502
139 1 18.8697 6.28932 6.28937 -8.94972
140 1 20.4417 7.86196 7.86195 -8.9498
141 1 22.0138 9.43449 6.28947 -8.94965
142 1 3.14424 9.43444 6.28922 -8.94969
143 1 6.28841 9.43412 6.28818 -8.94955
144 1 9.43234 9.4311 6.28669 -9.00239
145 1 12.586 9.42755 6.28184 -8.97954
146 1 15.7256 9.43433 6.28911 -8.95173
147 1 18.8696 9.43447 6.28945 -8.94974
148 1 -0.000132051 1.01566e-15 9.43446 -8.9496
149 1 3.14422 9.39749e-16 9.43437 -8.94954
150 1 6.2888 1.11297e-15 9.43413 -8.94969
151 1 9.43445 1.16314e-15 9.43414 -8.95057
152 1 12.5801 2.20458e-15 9.43413 -8.94972
153 1 15.7249 1.33708e-15 9.43436 -8.94965
154 1 18.8694 1.67433e-15 9.43445 -8.94959
155 1 -0.000140323 3.14462 9.43445 -8.94961
156 1 3.14407 3.14433 9.43433 -8.94962
157 1 6.28831 3.14286 9.43382 -8.94915
158 1 9.43441 3.14104 9.43403 -8.95262
159 1 12.5804 3.14278 9.43387 -8.94953
160 1 15.7251 3.14398 9.43428 -8.94958
161 1 18.8695 3.14451 9.43443 -8.94962
162 1 -0.000125394 6.28946 9.43443 -8.94977
163 1 3.14375 6.289 9.43424 -8.94974
164 1 6.28705 6.28596 9.43272 -8.9469
165 1 9.43404 6.27533 9.43386 -8.96575
166 1 12.5812 6.28505 9.43311 -8.95069
167 1 15.726 6.28813 9.43397 -8.94865
168 1 18.8698 6.28924 9.43438 -8.94964
169 1 -7.0394e-05 9.43449 9.43443 -8.94966
170 1 3.14413 9.43438 9.43424 -8.9496
171 1 6.2881 9.43365 9.43318 -9.00224
172 1 9.4124 9.37583 9.43395 -9.2639
173 1 12.588 9.42377 9.43176 -9.01369
174 1 15.726 9.43409 9.43446 -8.95243
175 1 18.8696 9.43449 9.43444 -8.9499
176 1 1.57202 1.57225 11.007 -8.94958
177 1 4.71638 1.57191 11.007 -8.94945
178 1 7.86128 1.57083 11.007 -8.95032
179 1 11.0075 1.57087 11.007 -8.95006
180 1 14.1526 1.57177 11.007 -8.9497
181 1 17.2972 1.57214 11.007 -8.94957
182 1 20.4416 1.57229 11.007 -8.94961
183 1 1.57191 4.7169 11.007 -8.94961
184 1 4.71591 4.71602 11.007 -8.94978
185 1 7.85937 4.71117 11.007 -8.94853
186 1 11.0089 4.71164 11.007 -8.9471
187 1 14.1533 4.71518 11.007 -8.95029
188 1 17.2975 4.71656 11.007 -8.94958
189 1 20.4417 4.71697 11.007 -8.94963
190 1 1.57192 7.86193 11.007 -8.95001
191 1 4.71523 7.86106 11.007 -8.95262
192 1 7.85217 7.84993 11.007 -9.0096
193 1 11.0129 7.85336 11.007 -9.04687
194 1 14.156 7.85792 11.007 -8.94723
195 1 17.2981 7.86139 11.007 -8.95025
196 1 20.4418 7.86195 11.007 -8.94987
197 1 -0.000132051 9.60154e-16 12.5794 -8.9496
198 1 1.57202 1.57225 14.152 -8.9496
199 1 3.14422 6.41732e-16 12.5795 -8.94954
200 1 4.71637 1.57189 14.1524 -8.94944
201 1 6.2888 4.28615e-16 12.5798 -8.94969
202 1 7.86151 1.57133 14.1526 -8.94999
203 1 9.43445 5.16146e-16 12.5798 -8.95057
204 1 11.0074 1.57139 14.1526 -8.94972
205 1 12.5801 -1.99672e-16 12.5798 -8.94972
206 1 14.1526 1.57181 14.1523 -8.9496
207 1 15.7249 2.1823e-16 12.5795 -8.94965
208 1 17.2972 1.57215 14.152 -8.94959
209 1 18.8694 1.41071e-15 12.5795 -8.94959
210 1 20.4416 1.57229 14.1519 -8.94961
211 1 -0.000140323 3.14462 12.5795 -8.94961
212 1 1.57189 4.7169 14.1521 -8.94966
213 1 3.14407 3.14433 12.5796 -8.94962
214 1 4.71582 4.71593 14.1527 -8.9491
215 1 6.28831 3.14286 12.5801 -8.94915
216 1 7.86042 4.71331 14.1537 -8.94965
217 1 9.43441 3.14104 12.5799 -8.95262
218 1 11.0081 4.71387 14.1536 -8.94797
219 1 12.5804 3.14278 12.58 -8.94953
220 1 14.1532 4.71537 14.1527 -8.94968
221 1 15.7251 3.14398 12.5796 -8.94958
222 1 17.2975 4.71658 14.1522 -8.9495
223 1 18.8695 3.14451 12.5795 -8.94962
224 1 20.4417 4.71698 14.152 -8.94965
225 1 -0.000125394 6.28946 12.5795 -8.94977
226 1 1.57192 7.86193 14.152 -8.94985
227 1 3.14375 6.289 12.5797 -8.94974
228 1 4.71555 7.86115 14.1526 -8.95112
229 1 6.28705 6.28596 12.5812 -8.9469
230 1 7.85572 7.85383 14.1593 -8.98268
231 1 9.43404 6.27533 12.58 -8.96575
232 1 11.01 7.85795 14.1558 -9.00105
233 1 12.5812 6.28505 12.5808 -8.95069
234 1 14.1553 7.85873 14.1541 -8.94688
235 1 15.726 6.28813 12.5799 -8.94865
236 1 17.2979 7.86158 14.1521 -8.9502
237 1 18.8698 6.28924 12.5795 -8.94964
238 1 20.4417 7.86196 14.1519 -8.9498
239 1 -7.0394e-05 9.43449 12.5795 -8.94966
240 1 3.14413 9.43438 12.5797 -8.9496
241 1 6.2881 9.43365 12.5807 -9.00224
242 1 9.4124 9.37583 12.5799 -9.2639
243 1 12.588 9.42377 12.5821 -9.01369
244 1 15.726 9.43409 12.5794 -8.95243
245 1 18.8696 9.43449 12.5795 -8.9499
246 1 -0.000129966 8.84905e-16 15.7244 -8.9496
247 1 1.57207 1.57227 17.2969 -8.94954
248 1 3.14426 4.93934e-16 15.7246 -8.94949
249 1 4.71663 1.57204 17.2973 -8.94954
250 1 6.28905 1.61913e-16 15.7249 -8.94973
251 1 7.86185 1.57202 17.2973 -8.94956
252 1 9.43447 9.03791e-16 15.7249 -8.94958
253 1 11.0071 1.57201 17.2973 -8.94956
254 1 12.5799 7.55433e-16 15.7249 -8.94968
255 1 14.1523 1.57199 17.2972 -8.94962
256 1 15.7248 5.79101e-16 15.7246 -8.94958
257 1 17.2971 1.57218 17.297 -8.94957
258 1 18.8694 1.3071e-15 15.7244 -8.94959
259 1 20.4416 1.5723 17.2968 -8.94958
260 1 22.0138 3.14463 15.7244 -8.94961
261 1 1.57197 4.71697 17.297 -8.94966
262 1 3.1441 3.14435 15.7247 -8.94947
263 1 4.71613 4.71625 17.2978 -8.94883
264 1 6.28864 3.14347 15.7254 -8.94956
265 1 7.8617 4.71619 17.2976 -8.94991
266 1 9.43448 3.14351 15.7251 -8.9494
267 1 11.0072 4.71614 17.2977 -8.94949
268 1 12.5801 3.1435 15.7253 -8.94959
269 1 14.1528 4.71596 17.2977 -8.9497
270 1 15.7251 3.1441 15.7248 -8.94954
271 1 17.2974 4.71666 17.2972 -8.94942
272 1 18.8695 3.14453 15.7245 -8.94959
273 1 20.4417 4.71702 17.2969 -8.94965
274 1 -0.000137096 6.28949 15.7244 -8.94976
275 1 1.57208 7.86199 17.2969 -8.94963
276 1 3.14384 6.28916 15.7248 -8.94993
277 1 4.71642 7.8617 17.2974 -8.94957
278 1 6.28711 6.28688 15.727 -8.9469
279 1 7.86095 7.86052 17.299 -8.95081
280 1 9.43466 6.28719 15.7255 -8.94972
281 1 11.007 7.86097 17.2988 -8.95001
282 1 12.5809 6.28685 15.7263 -8.95064
283 1 14.1545 7.85959 17.2995 -8.94713
284 1 15.7258 6.28839 15.7254 -8.94882
285 1 17.2976 7.86175 17.2971 -8.95009
286 1 18.8697 6.28932 15.7245 -8.94972
287 1 20.4417 7.86199 17.2969 -8.9497
288 1 22.0138 9.43449 15.7244 -8.94965
289 1 3.14424 9.43444 15.7247 -8.94969
290 1 6.28841 9.43412 15.7257 -8.94955
291 1 9.43234 9.4311 15.7272 -9.00239
292 1 12.586 9.42755 15.7321 -8.97954
293 1 15.7256 9.43433 15.7248 -8.95173
294 1 18.8696 9.43447 15.7245 -8.94974
295 1 22.0138 5.03387e-16 18.8692 -8.94954
296 1 1.57217 1.5723 20.4416 -8.94949
297 1 3.14444 1.40007e-15 18.8694 -8.94951
298 1 4.71697 1.57224 20.4417 -8.94965
299 1 6.28941 1.16268e-15 18.8695 -8.94961
300 1 7.86196 1.57221 20.4417 -8.94961
301 1 9.43448 5.39501e-16 18.8695 -8.9496
302 1 11.007 1.5722 20.4417 -8.94961
303 1 12.5796 1.11741e-15 18.8695 -8.94961
304 1 14.152 1.5722 20.4417 -8.94963
305 1 15.7246 1.41279e-15 18.8694 -8.9496
306 1 17.297 1.57222 20.4417 -8.94958
307 1 18.8693 1.20227e-15 18.8692 -8.94957
308 1 20.4416 1.57231 20.4416 -8.94953
309 1 -0.000105769 3.14466 18.8693 -8.94959
310 1 1.57217 4.71708 20.4416 -8.94963
311 1 3.14431 3.14446 18.8695 -8.94937
312 1 4.71671 4.71681 20.4418 -8.9496
313 1 6.28929 3.14436 18.8696 -8.94971
314 1 7.86181 4.7167 20.4418 -8.94963
315 1 9.43445 3.14429 18.8696 -8.94959
316 1 11.007 4.71668 20.4418 -8.94961
317 1 12.5796 3.14428 18.8696 -8.94962
318 1 14.1522 4.71665 20.4418 -8.94973
319 1 15.7248 3.14428 18.8695 -8.94959
320 1 17.2973 4.71673 20.4417 -8.94935
321 1 18.8694 3.14456 18.8693 -8.94953
322 1 20.4416 4.71707 20.4416 -8.94962
323 1 22.0138 6.28954 18.8692 -8.94964
324 1 1.57218 7.86201 20.4416 -8.94961
325 1 3.14432 6.28942 18.8694 -8.94965
326 1 4.71672 7.8619 20.4418 -8.94967
327 1 6.28883 6.28887 18.8701 -8.94977
328 1 7.86141 7.86138 20.4422 -8.94969
329 1 9.43433 6.28872 18.87 -8.94947
330 1 11.007 7.86144 20.4422 -8.9495
331 1 12.5798 6.28875 18.87 -8.94992
332 1 14.1528 7.86117 20.4424 -8.94969
333 1 15.7254 6.28862 18.8701 -8.9489
334 1 17.2973 7.86183 20.4417 -8.94961
335 1 18.8695 6.2894 18.8693 -8.9497
336 1 20.4416 7.862 20.4416 -8.9496
337 1 -5.27728e-05 9.43448 18.8692 -8.94961
338 1 3.1444 9.43446 18.8694 -8.94957
339 1 6.28907 9.43438 18.8698 -8.94989
340 1 9.43366 9.43339 18.8713 -8.94816
341 1 12.5809 9.43319 18.8721 -8.94984
342 1 15.7252 9.43428 18.8697 -8.94956
343 1 18.8695 9.43444 18.8693 -8.94958
344 1 1.57218 11.007 1.5723 -8.9496
345 1 4.71676 11.007 1.57215 -8.94958
346 1 7.86165 11.007 1.57189 -8.94939
347 1 11.007 11.007 1.57032 -8.95293
348 1 14.1527 11.007 1.57168 -8.94921
349 1 17.2972 11.007 1.5722 -8.94956
350 1 20.4416 11.007 1.57231 -8.9496
351 1 22.0139 12.5794 1.0756e-15 -8.94961
352 1 1.57218 14.1519 1.57229 -8.94961
353 1 3.14445 12.5794 1.29083e-15 -8.94958
354 1 4.71672 14.152 1.57215 -8.94967
355 1 6.28915 12.5795 1.5141e-15 -8.94962
356 1 7.86141 14.1525 1.5717 -8.94969
357 1 9.43405 12.5799 5.03962e-16 -8.94973
358 1 11.007 14.1525 1.57167 -8.9495
359 1 12.58 12.5799 6.19473e-16 -8.95027
360 1 14.1528 14.1527 1.57152 -8.94969
361 1 15.725 12.5796 -3.46287e-16 -8.94942
362 1 17.2973 14.1521 1.5722 -8.94961
363 1 18.8694 12.5795 -2.85225e-16 -8.94959
364 1 20.4416 14.1519 1.57232 -8.9496
365 1 -4.44024e-05 15.7243 2.18088e-16 -8.94961
366 1 1.57217 17.2968 1.57227 -8.94963
367 1 3.14445 15.7244 -5.50382e-17 -8.94964
368 1 4.71671 17.2971 1.57207 -8.9496
369 1 6.28908 15.7248 5.98778e-16 -8.94967
370 1 7.86181 17.2972 1.57207 -8.94963
371 1 9.43431 15.7248 1.50103e-15 -8.94958
372 1 11.007 17.2972 1.57205 -8.94961
373 1 12.5796 15.7249 9.21839e-16 -8.9496
374 1 14.1522 17.2973 1.57207 -8.94973
375 1 15.725 15.7249 7.91341e-16 -8.94951
376 1 17.2973 17.2972 1.57215 -8.94935
377 1 18.8694 15.7244 6.09993e-16 -8.94963
378 1 20.4416 17.2968 1.57231 -8.94962
379 1 22.0138 18.8692 3.77799e-17 -8.94958
380 1 1.57217 20.4416 1.57227 -8.94949
381 1 3.14449 18.8693 -1.46133e-15 -8.94957
382 1 4.71697 20.4417 1.57221 -8.94965
383 1 6.2894 18.8694 7.03306e-16 -8.94964
384 1 7.86196 20.4417 1.5722 -8.94961
385 1 9.43445 18.8694 1.80125e-15 -8.94961
386 1 11.007 20.4417 1.57219 -8.94961
387 1 12.5795 18.8694 1.39675e-15 -8.94962
388 1 14.152 20.4417 1.5722 -8.94963
389 1 15.7246 18.8694 5.50631e-16 -8.94967
390 1 17.297 20.4417 1.57225 -8.94958
391 1 18.8694 18.8693 -1.58008e-16 -8.94945
392 1 20.4416 20.4416 1.57233 -8.94953
393 1 1.57213 11.007 4.71696 -8.94958
394 1 4.71666 11.007 4.71655 -8.9491
395 1 7.86217 11.007 4.71588 -8.9501
396 1 11.0077 11.007 4.70574 -8.96688
397 1 14.153 11.007 4.71559 -8.94862
398 1 17.2974 11.007 4.71676 -8.94944
399 1 20.4417 11.007 4.71703 -8.94963
400 1 -5.27728e-05 12.5794 3.14466 -8.94961
401 1 1.57208 14.1519 4.71696 -8.94963
402 1 3.1444 12.5794 3.14452 -8.94957
403 1 4.71642 14.1522 4.7165 -8.94957
404 1 6.28907 12.5795 3.14413 -8.94989
405 1 7.86095 14.1534 4.71487 -8.95081
406 1 9.43366 12.5805 3.14262 -8.94816
407 1 11.007 14.1529 4.71506 -8.95001
408 1 12.5809 12.5807 3.14177 -8.94984
409 1 14.1545 14.1543 4.71439 -8.94713
410 1 15.7252 12.5796 3.14419 -8.94956
411 1 17.2976 14.1522 4.71678 -8.95009
412 1 18.8695 12.5795 3.14459 -8.94958
413 1 20.4417 14.1519 4.71705 -8.9497
414 1 22.0138 15.7244 3.14466 -8.94964
415 1 1.57197 17.2969 4.7169 -8.94966
416 1 3.14432 15.7245 3.14446 -8.94965
417 1 4.71613 17.2977 4.71615 -8.94883
418 1 6.28883 15.725 3.14377 -8.94977
419 1 7.8617 17.2977 4.71626 -8.94991
420 1 9.43433 15.7252 3.14392 -8.94947
421 1 11.0072 17.2978 4.71617 -8.94949
422 1 12.5798 15.7251 3.14386 -8.94992
423 1 14.1528 17.2979 4.71622 -8.9497
424 1 15.7254 15.7253 3.14384 -8.9489
425 1 17.2974 17.2972 4.71675 -8.94942
426 1 18.8695 15.7245 3.14458 -8.9497
427 1 20.4417 17.2969 4.71703 -8.94965
428 1 -0.000105769 18.8692 3.14464 -8.94959
429 1 1.57207 20.4416 4.71697 -8.94954
430 1 3.14431 18.8694 3.14439 -8.94937
431 1 4.71663 20.4419 4.71662 -8.94954
432 1 6.28929 18.8695 3.14431 -8.94971
433 1 7.86185 20.4419 4.71664 -8.94956
434 1 9.43445 18.8696 3.14432 -8.94959
435 1 11.0071 20.4419 4.71662 -8.94956
436 1 12.5796 18.8696 3.14429 -8.94962
437 1 14.1523 20.4419 4.71666 -8.94962
438 1 15.7248 18.8696 3.14436 -8.94959
439 1 17.2971 20.4417 4.71693 -8.94957
440 1 18.8694 18.8693 3.14462 -8.94953
441 1 20.4416 20.4416 4.71708 -8.94958
442 1 1.57212 11.007 7.86186 -8.94954
443 1 4.71658 11.007 7.86145 -8.94908
444 1 7.86136 11.007 7.85928 -8.98166
445 1 11.0333 11.007 7.80385 -9.2356
446 1 14.1512 11.007 7.86264 -9.00213
447 1 17.2972 11.007 7.86183 -8.9487
448 1 20.4417 11.007 7.86194 -8.94951
449 1 22.0138 12.5794 6.28947 -8.94965
450 1 1.57192 14.152 7.86186 -8.94985
451 1 3.14424 12.5795 6.28922 -8.94969
452 1 4.71555 14.1527 7.86127 -8.95112
453 1 6.28841 12.5798 6.28818 -8.94955
454 1 7.85572 14.1601 7.8546 -8.98268
455 1 9.43234 12.5828 6.28669 -9.00239
456 1 11.01 14.1559 7.85809 -9.00105
457 1 12.586 12.5864 6.28184 -8.97954
458 1 14.1553 14.1552 7.85985 -8.94688
459 1 15.7256 12.5796 6.28911 -8.95173
460 1 17.2979 14.1523 7.86176 -8.9502
461 1 18.8696 12.5794 6.28945 -8.94974
462 1 20.4417 14.1519 7.86195 -8.9498
463 1 -0.000137096 15.7244 6.28945 -8.94976
464 1 1.57189 17.297 7.86184 -8.94966
465 1 3.14384 15.7247 6.28907 -8.94993
466 1 4.71582 17.298 7.86118 -8.9491
467 1 6.28711 15.727 6.28685 -8.9469
468 1 7.86042 17.3006 7.86015 -8.94965
469 1 9.43466 15.7267 6.28837 -8.94972
470 1 11.0081 17.3 7.8603 -8.94797
471 1 12.5809 15.7271 6.28761 -8.95064
472 1 14.1532 17.2985 7.86117 -8.94968
473 1 15.7258 15.7255 6.28855 -8.94882
474 1 17.2975 17.2973 7.86172 -8.9495
475 1 18.8697 15.7246 6.28937 -8.94972
476 1 20.4417 17.2969 7.86193 -8.94965
477 1 22.0138 18.8693 6.28947 -8.94961
478 1 1.57202 20.4416 7.86191 -8.9496
479 1 3.1441 18.8695 6.28916 -8.94947
480 1 4.71637 20.442 7.86154 -8.94944
481 1 6.28864 18.8704 6.28854 -8.94956
482 1 7.86151 20.4426 7.86134 -8.94999
483 1 9.43448 18.8704 6.28878 -8.9494
484 1 11.0074 20.4425 7.86134 -8.94972
485 1 12.5801 18.8704 6.28865 -8.94959
486 1 14.1526 20.4421 7.86156 -8.9496
487 1 15.7251 18.8698 6.2891 -8.94954
488 1 17.2972 20.4418 7.86186 -8.94959
489 1 18.8695 18.8694 6.28943 -8.94959
490 1 20.4416 20.4416 7.86198 -8.94961
491 1 -7.0394e-05 12.5794 9.43443 -8.94966
492 1 3.14413 12.5795 9.43424 -8.9496
493 1 6.2881 12.5802 9.43318 -9.00224
494 1 9.4124 12.6381 9.43395 -9.2639
495 1 12.588 12.5901 9.43176 -9.01369
496 1 15.726 12.5798 9.43446 -8.95243
497 1 18.8696 12.5794 9.43444 -8.9499
498 1 -0.000125394 15.7244 9.43443 -8.94977
499 1 3.14375 15.7249 9.43424 -8.94974
500 1 6.28705 15.7279 9.43272 -8.9469
501 1 9.43404 15.7386 9.43386 -8.96575
502 1 12.5812 15.7288 9.43311 -8.95069
503 1 15.726 15.7258 9.43397 -8.94865
504 1 18.8698 15.7247 9.43438 -8.94964
505 1 -0.000140323 18.8693 9.43445 -8.94961
506 1 3.14407 18.8696 9.43433 -8.94962
507 1 6.28831 18.871 9.43382 -8.94915
508 1 9.43441 18.8729 9.43403 -8.95262
509 1 12.5804 18.8711 9.43387 -8.94953
510 1 15.7251 18.8699 9.43428 -8.94958
511 1 18.8695 18.8694 9.43443 -8.94962
688 2 10.1854 11.007 9.3912 0.806713
512 1 1.57206 11.007 11.007 -8.94976
513 1 4.716 11.007 11.007 -8.95106
514 1 7.85606 11.007 11.007 -9.01808
515 1 11.056 11.007 11.007 -9.44064
516 1 14.1495 11.007 11.007 -9.04607
517 1 17.297 11.007 11.007 -8.94804
518 1 20.4417 11.007 11.007 -8.94944
519 1 1.57192 14.152 11.007 -8.95001
520 1 4.71523 14.1528 11.007 -8.95262
521 1 7.85217 14.164 11.007 -9.0096
522 1 11.0129 14.1605 11.007 -9.04687
523 1 14.156 14.156 11.007 -8.94723
524 1 17.2981 14.1525 11.007 -8.95025
525 1 20.4418 14.152 11.007 -8.94987
526 1 1.57191 17.297 11.007 -8.94961
527 1 4.71591 17.2979 11.007 -8.94978
528 1 7.85937 17.3027 11.007 -8.94853
529 1 11.0089 17.3023 11.007 -8.9471
530 1 14.1533 17.2987 11.007 -8.95029
531 1 17.2975 17.2973 11.007 -8.94958
532 1 20.4417 17.2969 11.007 -8.94963
533 1 1.57202 20.4416 11.007 -8.94958
534 1 4.71638 20.442 11.007 -8.94945
535 1 7.86128 20.4431 11.007 -8.95032
536 1 11.0075 20.443 11.007 -8.95006
537 1 14.1526 20.4421 11.007 -8.9497
538 1 17.2972 20.4418 11.007 -8.94957
539 1 20.4416 20.4416 11.007 -8.94961
540 1 1.57212 11.007 14.152 -8.94954
541 1 4.71658 11.007 14.1525 -8.94908
542 1 7.86136 11.007 14.1546 -8.98166
543 1 11.0333 11.007 14.2101 -9.2356
544 1 14.1512 11.007 14.1513 -9.00213
545 1 17.2972 11.007 14.1521 -8.9487
546 1 20.4417 11.007 14.152 -8.94951
547 1 -7.0394e-05 12.5794 12.5795 -8.94966
548 1 1.57192 14.152 14.152 -8.94985
549 1 3.14413 12.5795 12.5797 -8.9496
550 1 4.71555 14.1527 14.1526 -8.95112
551 1 6.2881 12.5802 12.5807 -9.00224
552 1 7.85572 14.1601 14.1593 -8.98268
553 1 9.4124 12.6381 12.5799 -9.2639
554 1 11.01 14.1559 14.1558 -9.00105
555 1 12.588 12.5901 12.5821 -9.01369
556 1 14.1553 14.1552 14.1541 -8.94688
557 1 15.726 12.5798 12.5794 -8.95243
558 1 17.2979 14.1523 14.1521 -8.9502
559 1 18.8696 12.5794 12.5795 -8.9499
560 1 20.4417 14.1519 14.1519 -8.9498
561 1 -0.000125394 15.7244 12.5795 -8.94977
562 1 1.57189 17.297 14.1521 -8.94966
563 1 3.14375 15.7249 12.5797 -8.94974
564 1 4.71582 17.298 14.1527 -8.9491
565 1 6.28705 15.7279 12.5812 -8.9469
566 1 7.86042 17.3006 14.1537 -8.94965
567 1 9.43404 15.7386 12.58 -8.96575
568 1 11.0081 17.3 14.1536 -8.94797
569 1 12.5812 15.7288 12.5808 -8.95069
570 1 14.1532 17.2985 14.1527 -8.94968
571 1 15.726 15.7258 12.5799 -8.94865
572 1 17.2975 17.2973 14.1522 -8.9495
573 1 18.8698 15.7247 12.5795 -8.94964
574 1 20.4417 17.2969 14.152 -8.94965
575 1 -0.000140323 18.8693 12.5795 -8.94961
576 1 1.57202 20.4416 14.152 -8.9496
577 1 3.14407 18.8696 12.5796 -8.94962
578 1 4.71637 20.442 14.1524 -8.94944
579 1 6.28831 18.871 12.5801 -8.94915
580 1 7.86151 20.4426 14.1526 -8.94999
581 1 9.43441 18.8729 12.5799 -8.95262
582 1 11.0074 20.4425 14.1526 -8.94972
583 1 12.5804 18.8711 12.58 -8.94953
584 1 14.1526 20.4421 14.1523 -8.9496
585 1 15.7251 18.8699 12.5796 -8.94958
586 1 17.2972 20.4418 14.152 -8.94959
587 1 18.8695 18.8694 12.5795 -8.94962
588 1 20.4416 20.4416 14.1519 -8.94961
589 1 1.57213 11.007 17.2969 -8.94958
590 1 4.71666 11.007 17.2974 -8.9491
591 1 7.86217 11.007 17.298 -8.9501
592 1 11.0077 11.007 17.3082 -8.96688
593 1 14.153 11.007 17.2983 -8.94862
594 1 17.2974 11.007 17.2971 -8.94944
595 1 20.4417 11.007 17.2969 -8.94963
596 1 22.0138 12.5794 15.7244 -8.94965
597 1 1.57208 14.1519 17.2969 -8.94963
598 1 3.14424 12.5795 15.7247 -8.94969
599 1 4.71642 14.1522 17.2974 -8.94957
600 1 6.28841 12.5798 15.7257 -8.94955
601 1 7.86095 14.1534 17.299 -8.95081
602 1 9.43234 12.5828 15.7272 -9.00239
603 1 11.007 14.1529 17.2988 -8.95001
604 1 12.586 12.5864 15.7321 -8.97954
605 1 14.1545 14.1543 17.2995 -8.94713
606 1 15.7256 12.5796 15.7248 -8.95173
607 1 17.2976 14.1522 17.2971 -8.95009
608 1 18.8696 12.5794 15.7245 -8.94974
609 1 20.4417 14.1519 17.2969 -8.9497
610 1 -0.000137096 15.7244 15.7244 -8.94976
611 1 1.57197 17.2969 17.297 -8.94966
612 1 3.14384 15.7247 15.7248 -8.94993
613 1 4.71613 17.2977 17.2978 -8.94883
614 1 6.28711 15.727 15.727 -8.9469
615 1 7.8617 17.2977 17.2976 -8.94991
616 1 9.43466 15.7267 15.7255 -8.94972
617 1 11.0072 17.2978 17.2977 -8.94949
618 1 12.5809 15.7271 15.7263 -8.95064
619 1 14.1528 17.2979 17.2977 -8.9497
620 1 15.7258 15.7255 15.7254 -8.94882
621 1 17.2974 17.2972 17.2972 -8.94942
622 1 18.8697 15.7246 15.7245 -8.94972
623 1 20.4417 17.2969 17.2969 -8.94965
624 1 22.0138 18.8693 15.7244 -8.94961
625 1 1.57207 20.4416 17.2969 -8.94954
626 1 3.1441 18.8695 15.7247 -8.94947
627 1 4.71663 20.4419 17.2973 -8.94954
628 1 6.28864 18.8704 15.7254 -8.94956
629 1 7.86185 20.4419 17.2973 -8.94956
630 1 9.43448 18.8704 15.7251 -8.9494
631 1 11.0071 20.4419 17.2973 -8.94956
632 1 12.5801 18.8704 15.7253 -8.94959
633 1 14.1523 20.4419 17.2972 -8.94962
634 1 15.7251 18.8698 15.7248 -8.94954
635 1 17.2971 20.4417 17.297 -8.94957
636 1 18.8695 18.8694 15.7245 -8.94959
637 1 20.4416 20.4416 17.2968 -8.94958
638 1 1.57218 11.007 20.4416 -8.9496
639 1 4.71676 11.007 20.4417 -8.94958
640 1 7.86165 11.007 20.442 -8.94939
641 1 11.007 11.007 20.4436 -8.95293
642 1 14.1527 11.007 20.4422 -8.94921
643 1 17.2972 11.007 20.4417 -8.94956
644 1 20.4416 11.007 20.4416 -8.9496
645 1 -5.27728e-05 12.5794 18.8692 -8.94961
646 1 1.57218 14.1519 20.4416 -8.94961
647 1 3.1444 12.5794 18.8694 -8.94957
648 1 4.71672 14.152 20.4418 -8.94967
649 1 6.28907 12.5795 18.8698 -8.94989
650 1 7.86141 14.1525 20.4422 -8.94969
651 1 9.43366 12.5805 18.8713 -8.94816
652 1 11.007 14.1525 20.4422 -8.9495
653 1 12.5809 12.5807 18.8721 -8.94984
654 1 14.1528 14.1527 20.4424 -8.94969
655 1 15.7252 12.5796 18.8697 -8.94956
656 1 17.2973 14.1521 20.4417 -8.94961
657 1 18.8695 12.5795 18.8693 -8.94958
658 1 20.4416 14.1519 20.4416 -8.9496
659 1 22.0138 15.7244 18.8692 -8.94964
660 1 1.57217 17.2968 20.4416 -8.94963
661 1 3.14432 15.7245 18.8694 -8.94965
662 1 4.71671 17.2971 20.4418 -8.9496
663 1 6.28883 15.725 18.8701 -8.94977
664 1 7.86181 17.2972 20.4418 -8.94963
665 1 9.43433 15.7252 18.87 -8.94947
666 1 11.007 17.2972 20.4418 -8.94961
667 1 12.5798 15.7251 18.87 -8.94992
668 1 14.1522 17.2973 20.4418 -8.94973
669 1 15.7254 15.7253 18.8701 -8.9489
670 1 17.2973 17.2972 20.4417 -8.94935
671 1 18.8695 15.7245 18.8693 -8.9497
672 1 20.4416 17.2968 20.4416 -8.94962
673 1 -0.000105769 18.8692 18.8693 -8.94959
674 1 1.57217 20.4416 20.4416 -8.94949
675 1 3.14431 18.8694 18.8695 -8.94937
676 1 4.71697 20.4417 20.4417 -8.94965
677 1 6.28929 18.8695 18.8696 -8.94971
678 1 7.86196 20.4417 20.4417 -8.94961
679 1 9.43445 18.8696 18.8696 -8.94959
680 1 11.007 20.4417 20.4417 -8.94961
681 1 12.5796 18.8696 18.8696 -8.94962
682 1 14.152 20.4417 20.4417 -8.94963
683 1 15.7248 18.8696 18.8695 -8.94959
684 1 17.297 20.4417 20.4417 -8.94958
685 1 18.8694 18.8693 18.8693 -8.94953
686 1 20.4416 20.4416 20.4416 -8.94953
687 2 10.1854 11.007 12.6227 0.806713
