ITEM: TIMESTEP
107
ITEM: NUMBER OF ATOMS
688
ITEM: BOX BOUNDS pp pp pp
0.0000000000000000e+00 2.2013900999999997e+01
0.0000000000000000e+00 2.2013900999999997e+01
0.0000000000000000e+00 2.2013900999999997e+01
ITEM: ATOMS id type x y z c_pot
1 1 -9.81893e-05 1.65751e-15 1.30387e-15 -8.94947
2 1 1.57208 1.57234 1.57222 -8.94948
3 1 3.14443 1.49113e-15 1.50687e-15 -8.94961
4 1 4.7168 1.57225 1.57213 -8.94964
5 1 6.28934 1.30305e-15 1.09763e-15 -8.94961
6 1 7.86188 1.57218 1.5721 -8.94961
7 1 9.43448 6.9319e-16 1.77044e-15 -8.94961
8 1 11.0071 1.57216 1.5721 -8.9496
9 1 12.5797 1.80499e-15 1.34565e-15 -8.94961
10 1 14.1523 1.57218 1.57213 -8.94962
11 1 15.7247 1.54957e-15 1.29141e-15 -8.94962
12 1 17.2972 1.57224 1.5722 -8.94957
13 1 18.8694 2.22586e-15 1.56094e-15 -8.94952
14 1 20.4417 1.57236 1.5723 -8.94952
15 1 22.0139 3.1448 1.38715e-15 -8.94958
16 1 1.57216 4.71719 1.57226 -8.94963
17 1 3.14438 3.14464 8.75873e-16 -8.94957
18 1 4.71666 4.71683 1.57203 -8.9496
19 1 6.2893 3.14449 1.49054e-15 -8.94964
20 1 7.86181 4.71664 1.57201 -8.94963
21 1 9.43447 3.14441 2.34004e-16 -8.94961
22 1 11.0071 4.7166 1.57199 -8.94961
23 1 12.5797 3.14441 7.16475e-16 -8.94962
24 1 14.1524 4.71662 1.57202 -8.94973
25 1 15.7248 3.14447 -8.08184e-16 -8.94966
26 1 17.2975 4.71679 1.57214 -8.94934
27 1 18.8696 3.14465 2.81214e-16 -8.94945
28 1 20.4417 4.71719 1.57231 -8.94962
29 1 4.91146e-05 6.28969 -5.1684e-16 -8.94961
30 1 1.5723 7.8621 1.57232 -8.94961
31 1 3.14449 6.28958 -2.95588e-16 -8.94965
32 1 4.71684 7.86195 1.57217 -8.94967
33 1 6.28911 6.28914 9.05363e-16 -8.94968
34 1 7.86153 7.86135 1.5717 -8.9497
35 1 9.43441 6.28901 -2.8823e-16 -8.94958
36 1 11.0071 7.86139 1.57167 -8.94951
37 1 12.5798 6.289 3.77283e-17 -8.94961
38 1 14.153 7.86117 1.57153 -8.94969
39 1 15.7252 6.289 -9.24417e-16 -8.9495
40 1 17.2974 7.86189 1.57223 -8.94961
41 1 18.8696 6.28955 -5.52389e-16 -8.94963
42 1 20.4418 7.86209 1.57235 -8.9496
43 1 22.014 9.43454 2.79901e-16 -8.94961
44 1 3.14462 9.43451 3.51361e-16 -8.94958
45 1 6.28932 9.43439 5.94822e-16 -8.94962
46 1 9.4342 9.434 8.6053e-16 -8.94972
47 1 12.5802 9.43397 1.28138e-15 -8.95026
48 1 15.7251 9.43432 1.71616e-15 -8.94941
49 1 18.8696 9.43449 9.53764e-16 -8.94958
50 1 22.0138 7.51045e-16 3.1446 -8.94953
51 1 1.57194 1.57229 4.71685 -8.94953
52 1 3.14425 1.85568e-15 3.14436 -8.9495
53 1 4.71642 1.572 4.71644 -8.94952
54 1 6.28924 1.30764e-15 3.14427 -8.9496
55 1 7.86175 1.57193 4.71641 -8.94955
56 1 9.43448 6.52051e-16 3.14425 -8.9496
57 1 11.0072 1.57191 4.7164 -8.94956
58 1 12.5798 5.71542e-16 3.14427 -8.9496
59 1 14.1526 1.57195 4.71649 -8.94961
60 1 15.7249 4.57742e-16 3.14437 -8.94958
61 1 17.2973 1.5722 4.71682 -8.94956
62 1 18.8695 1.23008e-15 3.14458 -8.94955
63 1 20.4416 1.57234 4.717 -8.94957
64 1 -0.000112775 3.14475 3.14459 -8.94958
65 1 1.57193 4.71703 4.71685 -8.94966
66 1 3.14418 3.14449 3.1443 -8.94936
67 1 4.71605 4.71617 4.71603 -8.94881
68 1 6.28918 3.1443 3.14416 -8.94971
69 1 7.86168 4.71598 4.7161 -8.9499
70 1 9.43447 3.14417 3.14416 -8.94958
71 1 11.0073 4.71591 4.71601 -8.94949
72 1 12.5798 3.1442 3.14415 -8.94961
73 1 14.1529 4.71586 4.71611 -8.94969
74 1 15.725 3.14428 3.14427 -8.94958
75 1 17.2975 4.71671 4.71672 -8.94943
76 1 18.8695 3.14463 3.14457 -8.94953
77 1 20.4417 4.71713 4.71702 -8.94966
78 1 22.0139 6.28966 3.14468 -8.94964
79 1 1.57218 7.86205 4.71702 -8.94963
80 1 3.14436 6.28948 3.14445 -8.94966
81 1 4.71656 7.86168 4.71654 -8.9496
82 1 6.28887 6.28881 3.14372 -8.94979
83 1 7.86105 7.86035 4.71488 -8.95085
84 1 9.43441 6.28859 3.14385 -8.94948
85 1 11.007 7.86079 4.71507 -8.95004
86 1 12.5799 6.28866 3.1438 -8.94994
87 1 14.1544 7.85955 4.71444 -8.94716
88 1 15.7255 6.28865 3.14384 -8.94891
89 1 17.2976 7.86181 4.71686 -8.9501
90 1 18.8697 6.2895 3.1446 -8.94971
91 1 20.4418 7.86209 4.71712 -8.9497
92 1 8.52792e-05 9.43454 3.14473 -8.94961
93 1 3.14459 9.43449 3.1446 -8.94957
94 1 6.28927 9.43436 3.14422 -8.94988
95 1 9.43379 9.43334 3.1427 -8.94816
96 1 12.581 9.43316 3.14184 -8.94984
97 1 15.7252 9.43429 3.14427 -8.94956
98 1 18.8696 9.43449 3.14467 -8.94957
99 1 -0.000198695 7.03138e-16 6.28941 -8.94959
100 1 1.57186 1.57225 7.86182 -8.9496
101 1 3.14404 1.10245e-15 6.2891 -8.94947
102 1 4.71614 1.57179 7.86139 -8.94943
103 1 6.28885 1.51988e-16 6.28875 -8.94973
104 1 7.86139 1.57114 7.86115 -8.95
105 1 9.43447 6.36487e-16 6.28875 -8.94958
106 1 11.0075 1.5712 7.86116 -8.94973
107 1 12.5801 4.27165e-16 6.28879 -8.94968
108 1 14.1528 1.57171 7.86142 -8.94959
109 1 15.7251 1.37641e-15 6.28911 -8.94956
110 1 17.2974 1.57215 7.86178 -8.94958
111 1 18.8695 2.37028e-15 6.28939 -8.94958
112 1 20.4416 1.57232 7.86192 -8.94961
113 1 22.0137 3.14468 6.2894 -8.94961
114 1 1.5718 4.71689 7.86179 -8.94966
115 1 3.14393 3.1443 6.28904 -8.94946
116 1 4.71569 4.71569 7.86107 -8.94907
117 1 6.28848 3.14326 6.28834 -8.94955
118 1 7.86032 4.71282 7.85999 -8.94964
119 1 9.43448 3.14322 6.28857 -8.9494
120 1 11.0081 4.7134 7.86015 -8.94796
121 1 12.5803 3.14329 6.28847 -8.94959
122 1 14.1533 4.71516 7.86108 -8.94966
123 1 15.7253 3.14405 6.28899 -8.94952
124 1 17.2976 4.71659 7.86169 -8.9495
125 1 18.8696 3.14459 6.28938 -8.94959
126 1 20.4417 4.71706 7.86192 -8.94966
127 1 -0.000131028 6.28958 6.28948 -8.94976
128 1 1.57196 7.86194 7.8619 -8.94986
129 1 3.14384 6.28911 6.28904 -8.94993
130 1 4.71559 7.86096 7.86128 -8.95114
131 1 6.28707 6.28659 6.28674 -8.94683
132 1 7.8556 7.85329 7.85454 -8.98265
133 1 9.43466 6.28679 6.28826 -8.94969
134 1 11.0099 7.85745 7.85805 -9.0009
135 1 12.581 6.28657 6.28753 -8.9506
136 1 14.155 7.85858 7.85993 -8.94695
137 1 15.7258 6.28837 6.28856 -8.94885
138 1 17.2977 7.86162 7.86184 -8.95022
139 1 18.8697 6.28942 6.28941 -8.94974
140 1 20.4417 7.86206 7.86202 -8.9498
141 1 22.0139 9.43453 6.28956 -8.94964
142 1 3.14442 9.43443 6.28931 -8.94968
143 1 6.28863 9.43405 6.28833 -8.94962
144 1 9.43236 9.43091 6.28685 -9.00253
145 1 12.5858 9.42746 6.28205 -8.97952
146 1 15.7254 9.43435 6.28926 -8.95176
147 1 18.8695 9.43452 6.28956 -8.94974
148 1 -0.00022156 1.22313e-16 9.43442 -8.94959
149 1 3.14398 5.85306e-16 9.4343 -8.94954
150 1 6.28859 5.0489e-16 9.43403 -8.9497
151 1 9.43444 -4.42208e-16 9.43404 -8.9506
152 1 12.5803 2.16528e-16 9.43404 -8.94973
153 1 15.7251 9.41466e-16 9.43429 -8.94964
154 1 18.8695 1.41847e-15 9.43441 -8.94958
155 1 -0.000216836 3.14465 9.43442 -8.94961
156 1 3.14389 3.14422 9.43427 -8.94961
157 1 6.28813 3.14252 9.43372 -8.94915
158 1 9.43437 3.14059 9.43392 -8.95265
159 1 12.5805 3.14245 9.43377 -8.94952
160 1 15.7253 3.14388 9.43423 -8.94958
161 1 18.8696 3.14455 9.4344 -8.94962
162 1 -0.000175459 6.28951 9.43444 -8.94978
163 1 3.14369 6.28885 9.43421 -8.94974
164 1 6.28691 6.28545 9.43265 -8.94683
165 1 9.4339 6.27456 9.4338 -8.96583
166 1 12.5811 6.28457 9.43307 -8.95062
167 1 15.7258 6.28802 9.43398 -8.94865
168 1 18.8697 6.28932 9.4344 -8.94966
169 1 -9.32084e-05 9.43453 9.43447 -8.94965
170 1 3.14424 9.43432 9.43428 -8.94964
171 1 6.28806 9.43339 9.43326 -9.00242
172 1 9.41221 9.37496 9.43403 -9.26355
173 1 12.5874 9.42352 9.43198 -9.01387
174 1 15.7254 9.43408 9.43455 -8.95246
175 1 18.8694 9.43454 9.4345 -8.94988
176 1 1.57185 1.57224 11.007 -8.94958
177 1 4.71613 1.57179 11.007 -8.94945
178 1 7.86115 1.57061 11.007 -8.95034
179 1 11.0076 1.57064 11.007 -8.95009
180 1 14.1528 1.57165 11.007 -8.9497
181 1 17.2974 1.57213 11.007 -8.94956
182 1 20.4416 1.57231 11.007 -8.9496
183 1 1.5718 4.71686 11.007 -8.94961
184 1 4.71575 4.7157 11.007 -8.94977
185 1 7.85921 4.71056 11.007 -8.94852
186 1 11.0089 4.71101 11.007 -8.94713
187 1 14.1533 4.71488 11.007 -8.95029
188 1 17.2975 4.71655 11.007 -8.94957
189 1 20.4417 4.71704 11.007 -8.94963
190 1 1.57192 7.86191 11.007 -8.95003
191 1 4.7152 7.86076 11.007 -8.95262
192 1 7.8519 7.84922 11.007 -9.0095
193 1 11.0126 7.85256 11.007 -9.04641
194 1 14.1556 7.85765 11.007 -8.94723
195 1 17.2978 7.86141 11.007 -8.95028
196 1 20.4417 7.86203 11.007 -8.94988
197 1 -0.00022156 5.18916e-16 12.5795 -8.94959
198 1 1.57186 1.57225 14.1521 -8.9496
199 1 3.14398 9.64586e-16 12.5796 -8.94954
200 1 4.71614 1.57179 14.1525 -8.94943
201 1 6.28859 1.24146e-15 12.5799 -8.9497
202 1 7.86139 1.57114 14.1528 -8.95
203 1 9.43444 7.88289e-16 12.5799 -8.9506
204 1 11.0075 1.5712 14.1527 -8.94973
205 1 12.5803 8.99171e-16 12.5799 -8.94973
206 1 14.1528 1.57171 14.1525 -8.94959
207 1 15.7251 5.76651e-16 12.5796 -8.94964
208 1 17.2974 1.57215 14.1521 -8.94958
209 1 18.8695 9.34532e-16 12.5795 -8.94958
210 1 20.4416 1.57232 14.152 -8.94961
211 1 -0.000216836 3.14465 12.5795 -8.94961
212 1 1.5718 4.71689 14.1521 -8.94966
213 1 3.14389 3.14422 12.5796 -8.94961
214 1 4.71569 4.71569 14.1528 -8.94907
215 1 6.28813 3.14252 12.5802 -8.94915
216 1 7.86032 4.71282 14.1539 -8.94964
217 1 9.43437 3.14059 12.58 -8.95265
218 1 11.0081 4.7134 14.1538 -8.94796
219 1 12.5805 3.14245 12.5801 -8.94952
220 1 14.1533 4.71516 14.1528 -8.94966
221 1 15.7253 3.14388 12.5797 -8.94958
222 1 17.2976 4.71659 14.1522 -8.9495
223 1 18.8696 3.14455 12.5795 -8.94962
224 1 20.4417 4.71706 14.152 -8.94966
225 1 -0.000175459 6.28951 12.5795 -8.94978
226 1 1.57196 7.86194 14.152 -8.94986
227 1 3.14369 6.28885 12.5797 -8.94974
228 1 4.71559 7.86096 14.1526 -8.95114
229 1 6.28691 6.28545 12.5812 -8.94683
230 1 7.8556 7.85329 14.1594 -8.98265
231 1 9.4339 6.27456 12.5801 -8.96583
232 1 11.0099 7.85745 14.1559 -9.0009
233 1 12.5811 6.28457 12.5808 -8.95062
234 1 14.155 7.85858 14.154 -8.94695
235 1 15.7258 6.28802 12.5799 -8.94865
236 1 17.2977 7.86162 14.1521 -8.95022
237 1 18.8697 6.28932 12.5795 -8.94966
238 1 20.4417 7.86206 14.1519 -8.9498
239 1 -9.32084e-05 9.43453 12.5794 -8.94965
240 1 3.14424 9.43432 12.5796 -8.94964
241 1 6.28806 9.43339 12.5806 -9.00242
242 1 9.41221 9.37496 12.5799 -9.26355
243 1 12.5874 9.42352 12.5819 -9.01387
244 1 15.7254 9.43408 12.5793 -8.95246
245 1 18.8694 9.43454 12.5794 -8.94988
246 1 -0.000198695 5.19877e-16 15.7245 -8.94959
247 1 1.57194 1.57229 17.297 -8.94953
248 1 3.14404 1.93568e-15 15.7248 -8.94947
249 1 4.71642 1.572 17.2975 -8.94952
250 1 6.28885 1.21375e-15 15.7252 -8.94973
251 1 7.86175 1.57193 17.2975 -8.94955
252 1 9.43447 1.21427e-15 15.7251 -8.94958
253 1 11.0072 1.57191 17.2975 -8.94956
254 1 12.5801 5.5461e-16 15.7251 -8.94968
255 1 14.1526 1.57195 17.2974 -8.94961
256 1 15.7251 2.90154e-16 15.7248 -8.94956
257 1 17.2973 1.5722 17.2971 -8.94956
258 1 18.8695 8.15679e-16 15.7245 -8.94958
259 1 20.4416 1.57234 17.2969 -8.94957
260 1 22.0137 3.14468 15.7245 -8.94961
261 1 1.57193 4.71703 17.297 -8.94966
262 1 3.14393 3.1443 15.7249 -8.94946
263 1 4.71605 4.71617 17.2979 -8.94881
264 1 6.28848 3.14326 15.7256 -8.94955
265 1 7.86168 4.71598 17.2978 -8.9499
266 1 9.43448 3.14322 15.7253 -8.9494
267 1 11.0073 4.71591 17.2979 -8.94949
268 1 12.5803 3.14329 15.7254 -8.94959
269 1 14.1529 4.71586 17.2978 -8.94969
270 1 15.7253 3.14405 15.7249 -8.94952
271 1 17.2975 4.71671 17.2972 -8.94943
272 1 18.8696 3.14459 15.7245 -8.94959
273 1 20.4417 4.71713 17.2969 -8.94966
274 1 -0.000131028 6.28958 15.7244 -8.94976
275 1 1.57218 7.86205 17.2969 -8.94963
276 1 3.14384 6.28911 15.7249 -8.94993
277 1 4.71656 7.86168 17.2974 -8.9496
278 1 6.28707 6.28659 15.7272 -8.94683
279 1 7.86105 7.86035 17.299 -8.95085
280 1 9.43466 6.28679 15.7256 -8.94969
281 1 11.007 7.86079 17.2988 -8.95004
282 1 12.581 6.28657 15.7264 -8.9506
283 1 14.1544 7.85955 17.2995 -8.94716
284 1 15.7258 6.28837 15.7253 -8.94885
285 1 17.2976 7.86181 17.297 -8.9501
286 1 18.8697 6.28942 15.7245 -8.94974
287 1 20.4418 7.86209 17.2968 -8.9497
288 1 22.0139 9.43453 15.7243 -8.94964
289 1 3.14442 9.43443 15.7246 -8.94968
290 1 6.28863 9.43405 15.7256 -8.94962
291 1 9.43236 9.43091 15.727 -9.00253
292 1 12.5858 9.42746 15.7319 -8.97952
293 1 15.7254 9.43435 15.7246 -8.95176
294 1 18.8695 9.43452 15.7243 -8.94974
295 1 22.0138 1.30549e-15 18.8693 -8.94953
296 1 1.57208 1.57234 20.4417 -8.94948
297 1 3.14425 2.28187e-15 18.8695 -8.9495
298 1 4.7168 1.57225 20.4418 -8.94964
299 1 6.28924 1.96478e-15 18.8696 -8.9496
300 1 7.86188 1.57218 20.4418 -8.94961
301 1 9.43448 1.14312e-15 18.8696 -8.9496
302 1 11.0071 1.57216 20.4418 -8.9496
303 1 12.5798 6.84248e-16 18.8696 -8.9496
304 1 14.1523 1.57218 20.4418 -8.94962
305 1 15.7249 3.6559e-16 18.8695 -8.94958
306 1 17.2972 1.57224 20.4417 -8.94957
307 1 18.8695 1.68374e-15 18.8693 -8.94955
308 1 20.4417 1.57236 20.4416 -8.94952
309 1 -0.000112775 3.14475 18.8693 -8.94958
310 1 1.57216 4.71719 20.4416 -8.94963
311 1 3.14418 3.14449 18.8696 -8.94936
312 1 4.71666 4.71683 20.4419 -8.9496
313 1 6.28918 3.1443 18.8697 -8.94971
314 1 7.86181 4.71664 20.4419 -8.94963
315 1 9.43447 3.14417 18.8697 -8.94958
316 1 11.0071 4.7166 20.4419 -8.94961
317 1 12.5798 3.1442 18.8698 -8.94961
318 1 14.1524 4.71662 20.4419 -8.94973
319 1 15.725 3.14428 18.8696 -8.94958
320 1 17.2975 4.71679 20.4418 -8.94934
321 1 18.8695 3.14463 18.8693 -8.94953
322 1 20.4417 4.71719 20.4416 -8.94962
323 1 22.0139 6.28966 18.8692 -8.94964
324 1 1.5723 7.8621 20.4416 -8.94961
325 1 3.14436 6.28948 18.8694 -8.94966
326 1 4.71684 7.86195 20.4417 -8.94967
327 1 6.28887 6.28881 18.8702 -8.94979
328 1 7.86153 7.86135 20.4422 -8.9497
329 1 9.43441 6.28859 18.87 -8.94948
330 1 11.0071 7.86139 20.4422 -8.94951
331 1 12.5799 6.28866 18.8701 -8.94994
332 1 14.153 7.86117 20.4424 -8.94969
333 1 15.7255 6.28865 18.8701 -8.94891
334 1 17.2974 7.86189 20.4417 -8.94961
335 1 18.8697 6.2895 18.8693 -8.94971
336 1 20.4418 7.86209 20.4416 -8.9496
337 1 8.52792e-05 9.43454 18.8692 -8.94961
338 1 3.14459 9.43449 18.8693 -8.94957
339 1 6.28927 9.43436 18.8697 -8.94988
340 1 9.43379 9.43334 18.8712 -8.94816
341 1 12.581 9.43316 18.8721 -8.94984
342 1 15.7252 9.43429 18.8696 -8.94956
343 1 18.8696 9.43449 18.8692 -8.94957
344 1 1.57236 11.007 1.57235 -8.9496
345 1 4.71696 11.007 1.57221 -8.94958
346 1 7.86184 11.007 1.57194 -8.94937
347 1 11.0072 11.007 1.57037 -8.9529
348 1 14.1528 11.007 1.57173 -8.9492
349 1 17.2974 11.007 1.57225 -8.94956
350 1 20.4418 11.007 1.57236 -8.94959
351 1 22.014 12.5794 3.37561e-17 -8.94961
352 1 1.5723 14.1518 1.57232 -8.94961
353 1 3.14462 12.5794 -3.23251e-16 -8.94958
354 1 4.71684 14.152 1.57217 -8.94967
355 1 6.28932 12.5795 4.06257e-16 -8.94962
356 1 7.86153 14.1525 1.5717 -8.9497
357 1 9.4342 12.5799 7.93567e-16 -8.94972
358 1 11.0071 14.1525 1.57167 -8.94951
359 1 12.5802 12.5799 1.19392e-15 -8.95026
360 1 14.153 14.1527 1.57153 -8.94969
361 1 15.7251 12.5796 3.57593e-16 -8.94941
362 1 17.2974 14.152 1.57223 -8.94961
363 1 18.8696 12.5794 1.10582e-15 -8.94958
364 1 20.4418 14.1518 1.57235 -8.9496
365 1 4.91146e-05 15.7242 1.45661e-15 -8.94961
366 1 1.57216 17.2967 1.57226 -8.94963
367 1 3.14449 15.7243 1.91804e-15 -8.94965
368 1 4.71666 17.2971 1.57203 -8.9496
369 1 6.28911 15.7248 7.24638e-17 -8.94968
370 1 7.86181 17.2973 1.57201 -8.94963
371 1 9.43441 15.7249 1.43411e-15 -8.94958
372 1 11.0071 17.2973 1.57199 -8.94961
373 1 12.5798 15.7249 1.93984e-15 -8.94961
374 1 14.1524 17.2973 1.57202 -8.94973
375 1 15.7252 15.7249 2.36671e-16 -8.9495
376 1 17.2975 17.2971 1.57214 -8.94934
377 1 18.8696 15.7244 1.69452e-15 -8.94963
378 1 20.4417 17.2967 1.57231 -8.94962
379 1 22.0139 18.8691 1.2937e-15 -8.94958
380 1 1.57208 20.4416 1.57222 -8.94948
381 1 3.14438 18.8693 1.03852e-16 -8.94957
382 1 4.7168 20.4417 1.57213 -8.94964
383 1 6.2893 18.8694 1.01928e-15 -8.94964
384 1 7.86188 20.4417 1.5721 -8.94961
385 1 9.43447 18.8695 1.82243e-15 -8.94961
386 1 11.0071 20.4417 1.5721 -8.9496
387 1 12.5797 18.8695 1.88513e-15 -8.94962
388 1 14.1523 20.4417 1.57213 -8.94962
389 1 15.7248 18.8694 1.25518e-15 -8.94966
390 1 17.2972 20.4417 1.5722 -8.94957
391 1 18.8696 18.8693 3.40082e-16 -8.94945
392 1 20.4417 20.4415 1.5723 -8.94952
393 1 1.57231 11.007 4.71707 -8.94958
394 1 4.7169 11.007 4.71667 -8.94911
395 1 7.86237 11.007 4.71607 -8.95005
396 1 11.0077 11.007 4.70595 -8.96687
397 1 14.1529 11.007 4.71574 -8.94863
398 1 17.2974 11.007 4.71688 -8.94945
399 1 20.4417 11.007 4.71714 -8.94963
400 1 8.52792e-05 12.5794 3.14473 -8.94961
401 1 1.57218 14.1518 4.71702 -8.94963
402 1 3.14459 12.5794 3.1446 -8.94957
403 1 4.71656 14.1522 4.71654 -8.9496
404 1 6.28927 12.5795 3.14422 -8.94988
405 1 7.86105 14.1536 4.71488 -8.95085
406 1 9.43379 12.5806 3.1427 -8.94816
407 1 11.007 14.1531 4.71507 -8.95004
408 1 12.581 12.5807 3.14184 -8.94984
409 1 14.1544 14.1544 4.71444 -8.94716
410 1 15.7252 12.5796 3.14427 -8.94956
411 1 17.2976 14.1521 4.71686 -8.9501
412 1 18.8696 12.5794 3.14467 -8.94957
413 1 20.4418 14.1518 4.71712 -8.9497
414 1 22.0139 15.7242 3.14468 -8.94964
415 1 1.57193 17.2969 4.71685 -8.94966
416 1 3.14436 15.7244 3.14445 -8.94966
417 1 4.71605 17.2977 4.71603 -8.94881
418 1 6.28887 15.7251 3.14372 -8.94979
419 1 7.86168 17.2979 4.7161 -8.9499
420 1 9.43441 15.7253 3.14385 -8.94948
421 1 11.0073 17.298 4.71601 -8.94949
422 1 12.5799 15.7252 3.1438 -8.94994
423 1 14.1529 17.298 4.71611 -8.94969
424 1 15.7255 15.7253 3.14384 -8.94891
425 1 17.2975 17.2972 4.71672 -8.94943
426 1 18.8697 15.7244 3.1446 -8.94971
427 1 20.4417 17.2968 4.71702 -8.94966
428 1 -0.000112775 18.8692 3.14459 -8.94958
429 1 1.57194 20.4416 4.71685 -8.94953
430 1 3.14418 18.8694 3.1443 -8.94936
431 1 4.71642 20.4419 4.71644 -8.94952
432 1 6.28918 18.8696 3.14416 -8.94971
433 1 7.86175 20.442 4.71641 -8.94955
434 1 9.43447 18.8697 3.14416 -8.94958
435 1 11.0072 20.442 4.7164 -8.94956
436 1 12.5798 18.8697 3.14415 -8.94961
437 1 14.1526 20.442 4.71649 -8.94961
438 1 15.725 18.8696 3.14427 -8.94958
439 1 17.2973 20.4417 4.71682 -8.94956
440 1 18.8695 18.8693 3.14457 -8.94953
441 1 20.4416 20.4416 4.717 -8.94957
442 1 1.57224 11.007 7.86195 -8.94952
443 1 4.7168 11.007 7.86155 -8.949
444 1 7.86163 11.007 7.85966 -8.9817
445 1 11.0331 11.007 7.80426 -9.23569
446 1 14.1506 11.007 7.86288 -9.00207
447 1 17.2969 11.007 7.86194 -8.94868
448 1 20.4416 11.007 7.86203 -8.94949
449 1 22.0139 12.5794 6.28956 -8.94964
450 1 1.57196 14.152 7.8619 -8.94986
451 1 3.14442 12.5795 6.28931 -8.94968
452 1 4.71559 14.1529 7.86128 -8.95114
453 1 6.28863 12.5799 6.28833 -8.94962
454 1 7.8556 14.1606 7.85454 -8.98265
455 1 9.43236 12.583 6.28685 -9.00253
456 1 11.0099 14.1565 7.85805 -9.0009
457 1 12.5858 12.5864 6.28205 -8.97952
458 1 14.155 14.1553 7.85993 -8.94695
459 1 15.7254 12.5796 6.28926 -8.95176
460 1 17.2977 14.1523 7.86184 -8.95022
461 1 18.8695 12.5794 6.28956 -8.94974
462 1 20.4417 14.1518 7.86202 -8.9498
463 1 -0.000131028 15.7243 6.28948 -8.94976
464 1 1.5718 17.297 7.86179 -8.94966
465 1 3.14384 15.7248 6.28904 -8.94993
466 1 4.71569 17.2982 7.86107 -8.94907
467 1 6.28707 15.7273 6.28674 -8.94683
468 1 7.86032 17.3011 7.85999 -8.94964
469 1 9.43466 15.7271 6.28826 -8.94969
470 1 11.0081 17.3005 7.86015 -8.94796
471 1 12.581 15.7273 6.28753 -8.9506
472 1 14.1533 17.2987 7.86108 -8.94966
473 1 15.7258 15.7255 6.28856 -8.94885
474 1 17.2976 17.2973 7.86169 -8.9495
475 1 18.8697 15.7245 6.28941 -8.94974
476 1 20.4417 17.2968 7.86192 -8.94966
477 1 22.0137 18.8692 6.2894 -8.94961
478 1 1.57186 20.4417 7.86182 -8.9496
479 1 3.14393 18.8696 6.28904 -8.94946
480 1 4.71614 20.4421 7.86139 -8.94943
481 1 6.28848 18.8706 6.28834 -8.94955
482 1 7.86139 20.4428 7.86115 -8.95
483 1 9.43448 18.8707 6.28857 -8.9494
484 1 11.0075 20.4427 7.86116 -8.94973
485 1 12.5803 18.8706 6.28847 -8.94959
486 1 14.1528 20.4422 7.86142 -8.94959
487 1 15.7253 18.8698 6.28899 -8.94952
488 1 17.2974 20.4418 7.86178 -8.94958
489 1 18.8696 18.8693 6.28938 -8.94959
490 1 20.4416 20.4416 7.86192 -8.94961
491 1 -9.32084e-05 12.5794 9.43447 -8.94965
492 1 3.14424 12.5796 9.43428 -8.94964
493 1 6.28806 12.5805 9.43326 -9.00242
494 1 9.41221 12.6389 9.43403 -9.26355
495 1 12.5874 12.5904 9.43198 -9.01387
496 1 15.7254 12.5798 9.43455 -8.95246
497 1 18.8694 12.5794 9.4345 -8.94988
498 1 -0.000175459 15.7244 9.43444 -8.94978
499 1 3.14369 15.7251 9.43421 -8.94974
500 1 6.28691 15.7284 9.43265 -8.94683
501 1 9.4339 15.7393 9.4338 -8.96583
502 1 12.5811 15.7293 9.43307 -8.95062
503 1 15.7258 15.7259 9.43398 -8.94865
504 1 18.8697 15.7246 9.4344 -8.94966
505 1 -0.000216836 18.8693 9.43442 -8.94961
506 1 3.14389 18.8697 9.43427 -8.94961
507 1 6.28813 18.8714 9.43372 -8.94915
508 1 9.43437 18.8733 9.43392 -8.95265
509 1 12.5805 18.8715 9.43377 -8.94952
510 1 15.7253 18.87 9.43423 -8.94958
511 1 18.8696 18.8693 9.4344 -8.94962
688 2 10.1824 11.007 9.39049 0.805574
512 1 1.57214 11.007 11.007 -8.94973
513 1 4.71616 11.007 11.007 -8.95096
514 1 7.85622 11.007 11.007 -9.01846
515 1 11.0548 11.007 11.007 -9.44037
516 1 14.1485 11.007 11.007 -9.04557
517 1 17.2965 11.007 11.007 -8.94793
518 1 20.4415 11.007 11.007 -8.9494
519 1 1.57192 14.152 11.007 -8.95003
520 1 4.7152 14.1531 11.007 -8.95262
521 1 7.8519 14.1647 11.007 -9.0095
522 1 11.0126 14.1613 11.007 -9.04641
523 1 14.1556 14.1562 11.007 -8.94723
524 1 17.2978 14.1525 11.007 -8.95028
525 1 20.4417 14.1519 11.007 -8.94988
526 1 1.5718 17.297 11.007 -8.94961
527 1 4.71575 17.2982 11.007 -8.94977
528 1 7.85921 17.3033 11.007 -8.94852
529 1 11.0089 17.3029 11.007 -8.94713
530 1 14.1533 17.299 11.007 -8.95029
531 1 17.2975 17.2974 11.007 -8.94957
532 1 20.4417 17.2969 11.007 -8.94963
533 1 1.57185 20.4417 11.007 -8.94958
534 1 4.71613 20.4421 11.007 -8.94945
535 1 7.86115 20.4433 11.007 -8.95034
536 1 11.0076 20.4433 11.007 -8.95009
537 1 14.1528 20.4423 11.007 -8.9497
538 1 17.2974 20.4418 11.007 -8.94956
539 1 20.4416 20.4416 11.007 -8.9496
540 1 1.57224 11.007 14.152 -8.94952
541 1 4.7168 11.007 14.1523 -8.949
542 1 7.86163 11.007 14.1542 -8.9817
543 1 11.0331 11.007 14.2096 -9.23569
544 1 14.1506 11.007 14.151 -9.00207
545 1 17.2969 11.007 14.152 -8.94868
546 1 20.4416 11.007 14.1519 -8.94949
547 1 -9.32084e-05 12.5794 12.5794 -8.94965
548 1 1.57196 14.152 14.152 -8.94986
549 1 3.14424 12.5796 12.5796 -8.94964
550 1 4.71559 14.1529 14.1526 -8.95114
551 1 6.28806 12.5805 12.5806 -9.00242
552 1 7.8556 14.1606 14.1594 -8.98265
553 1 9.41221 12.6389 12.5799 -9.26355
554 1 11.0099 14.1565 14.1559 -9.0009
555 1 12.5874 12.5904 12.5819 -9.01387
556 1 14.155 14.1553 14.154 -8.94695
557 1 15.7254 12.5798 12.5793 -8.95246
558 1 17.2977 14.1523 14.1521 -8.95022
559 1 18.8694 12.5794 12.5794 -8.94988
560 1 20.4417 14.1518 14.1519 -8.9498
561 1 -0.000175459 15.7244 12.5795 -8.94978
562 1 1.5718 17.297 14.1521 -8.94966
563 1 3.14369 15.7251 12.5797 -8.94974
564 1 4.71569 17.2982 14.1528 -8.94907
565 1 6.28691 15.7284 12.5812 -8.94683
566 1 7.86032 17.3011 14.1539 -8.94964
567 1 9.4339 15.7393 12.5801 -8.96583
568 1 11.0081 17.3005 14.1538 -8.94796
569 1 12.5811 15.7293 12.5808 -8.95062
570 1 14.1533 17.2987 14.1528 -8.94966
571 1 15.7258 15.7259 12.5799 -8.94865
572 1 17.2976 17.2973 14.1522 -8.9495
573 1 18.8697 15.7246 12.5795 -8.94966
574 1 20.4417 17.2968 14.152 -8.94966
575 1 -0.000216836 18.8693 12.5795 -8.94961
576 1 1.57186 20.4417 14.1521 -8.9496
577 1 3.14389 18.8697 12.5796 -8.94961
578 1 4.71614 20.4421 14.1525 -8.94943
579 1 6.28813 18.8714 12.5802 -8.94915
580 1 7.86139 20.4428 14.1528 -8.95
581 1 9.43437 18.8733 12.58 -8.95265
582 1 11.0075 20.4427 14.1527 -8.94973
583 1 12.5805 18.8715 12.5801 -8.94952
584 1 14.1528 20.4422 14.1525 -8.94959
585 1 15.7253 18.87 12.5797 -8.94958
586 1 17.2974 20.4418 14.1521 -8.94958
587 1 18.8696 18.8693 12.5795 -8.94962
588 1 20.4416 20.4416 14.152 -8.94961
589 1 1.57231 11.007 17.2968 -8.94958
590 1 4.7169 11.007 17.2972 -8.94911
591 1 7.86237 11.007 17.2978 -8.95005
592 1 11.0077 11.007 17.3079 -8.96687
593 1 14.1529 11.007 17.2982 -8.94863
594 1 17.2974 11.007 17.297 -8.94945
595 1 20.4417 11.007 17.2968 -8.94963
596 1 22.0139 12.5794 15.7243 -8.94964
597 1 1.57218 14.1518 17.2969 -8.94963
598 1 3.14442 12.5795 15.7246 -8.94968
599 1 4.71656 14.1522 17.2974 -8.9496
600 1 6.28863 12.5799 15.7256 -8.94962
601 1 7.86105 14.1536 17.299 -8.95085
602 1 9.43236 12.583 15.727 -9.00253
603 1 11.007 14.1531 17.2988 -8.95004
604 1 12.5858 12.5864 15.7319 -8.97952
605 1 14.1544 14.1544 17.2995 -8.94716
606 1 15.7254 12.5796 15.7246 -8.95176
607 1 17.2976 14.1521 17.297 -8.9501
608 1 18.8695 12.5794 15.7243 -8.94974
609 1 20.4418 14.1518 17.2968 -8.9497
610 1 -0.000131028 15.7243 15.7244 -8.94976
611 1 1.57193 17.2969 17.297 -8.94966
612 1 3.14384 15.7248 15.7249 -8.94993
613 1 4.71605 17.2977 17.2979 -8.94881
614 1 6.28707 15.7273 15.7272 -8.94683
615 1 7.86168 17.2979 17.2978 -8.9499
616 1 9.43466 15.7271 15.7256 -8.94969
617 1 11.0073 17.298 17.2979 -8.94949
618 1 12.581 15.7273 15.7264 -8.9506
619 1 14.1529 17.298 17.2978 -8.94969
620 1 15.7258 15.7255 15.7253 -8.94885
621 1 17.2975 17.2972 17.2972 -8.94943
622 1 18.8697 15.7245 15.7245 -8.94974
623 1 20.4417 17.2968 17.2969 -8.94966
624 1 22.0137 18.8692 15.7245 -8.94961
625 1 1.57194 20.4416 17.297 -8.94953
626 1 3.14393 18.8696 15.7249 -8.94946
627 1 4.71642 20.4419 17.2975 -8.94952
628 1 6.28848 18.8706 15.7256 -8.94955
629 1 7.86175 20.442 17.2975 -8.94955
630 1 9.43448 18.8707 15.7253 -8.9494
631 1 11.0072 20.442 17.2975 -8.94956
632 1 12.5803 18.8706 15.7254 -8.94959
633 1 14.1526 20.442 17.2974 -8.94961
634 1 15.7253 18.8698 15.7249 -8.94952
635 1 17.2973 20.4417 17.2971 -8.94956
636 1 18.8696 18.8693 15.7245 -8.94959
637 1 20.4416 20.4416 17.2969 -8.94957
638 1 1.57236 11.007 20.4416 -8.9496
639 1 4.71696 11.007 20.4417 -8.94958
640 1 7.86184 11.007 20.442 -8.94937
641 1 11.0072 11.007 20.4435 -8.9529
642 1 14.1528 11.007 20.4422 -8.9492
643 1 17.2974 11.007 20.4417 -8.94956
644 1 20.4418 11.007 20.4415 -8.94959
645 1 8.52792e-05 12.5794 18.8692 -8.94961
646 1 1.5723 14.1518 20.4416 -8.94961
647 1 3.14459 12.5794 18.8693 -8.94957
648 1 4.71684 14.152 20.4417 -8.94967
649 1 6.28927 12.5795 18.8697 -8.94988
650 1 7.86153 14.1525 20.4422 -8.9497
651 1 9.43379 12.5806 18.8712 -8.94816
652 1 11.0071 14.1525 20.4422 -8.94951
653 1 12.581 12.5807 18.8721 -8.94984
654 1 14.153 14.1527 20.4424 -8.94969
655 1 15.7252 12.5796 18.8696 -8.94956
656 1 17.2974 14.152 20.4417 -8.94961
657 1 18.8696 12.5794 18.8692 -8.94957
658 1 20.4418 14.1518 20.4416 -8.9496
659 1 22.0139 15.7242 18.8692 -8.94964
660 1 1.57216 17.2967 20.4416 -8.94963
661 1 3.14436 15.7244 18.8694 -8.94966
662 1 4.71666 17.2971 20.4419 -8.9496
663 1 6.28887 15.7251 18.8702 -8.94979
664 1 7.86181 17.2973 20.4419 -8.94963
665 1 9.43441 15.7253 18.87 -8.94948
666 1 11.0071 17.2973 20.4419 -8.94961
667 1 12.5799 15.7252 18.8701 -8.94994
668 1 14.1524 17.2973 20.4419 -8.94973
669 1 15.7255 15.7253 18.8701 -8.94891
670 1 17.2975 17.2971 20.4418 -8.94934
671 1 18.8697 15.7244 18.8693 -8.94971
672 1 20.4417 17.2967 20.4416 -8.94962
673 1 -0.000112775 18.8692 18.8693 -8.94958
674 1 1.57208 20.4416 20.4417 -8.94948
675 1 3.14418 18.8694 18.8696 -8.94936
676 1 4.7168 20.4417 20.4418 -8.94964
677 1 6.28918 18.8696 18.8697 -8.94971
678 1 7.86188 20.4417 20.4418 -8.94961
679 1 9.43447 18.8697 18.8697 -8.94958
680 1 11.0071 20.4417 20.4418 -8.9496
681 1 12.5798 18.8697 18.8698 -8.94961
682 1 14.1523 20.4417 20.4418 -8.94962
683 1 15.725 18.8696 18.8696 -8.94958
684 1 17.2972 20.4417 20.4417 -8.94957
685 1 18.8695 18.8693 18.8693 -8.94953
686 1 20.4417 20.4415 20.4416 -8.94952
687 2 10.1824 11.007 12.6234 0.805574
