ITEM: TIMESTEP
33
ITEM: NUMBER OF ATOMS
688
ITEM: BOX BOUNDS pp pp pp
0.0000000000000000e+00 2.2013900999999997e+01
0.0000000000000000e+00 2.2013900999999997e+01
0.0000000000000000e+00 2.2013900999999997e+01
ITEM: ATOMS id type x y z c_pot
1 1 1.90087e-11 8.3951e-16 2.32767e-16 -8.94963
2 1 1.57242 1.57242 1.57242 -8.94963
3 1 3.14484 4.95078e-16 5.49568e-17 -8.94963
4 1 4.71726 1.57242 1.57242 -8.94963
5 1 6.28969 4.06157e-16 -1.32053e-16 -8.94963
6 1 7.86211 1.57242 1.57242 -8.94963
7 1 9.43453 5.2211e-16 -5.34667e-17 -8.94963
8 1 11.007 1.57242 1.57242 -8.94963
9 1 12.5794 -6.89837e-16 -7.40043e-17 -8.94963
10 1 14.1518 1.57242 1.57242 -8.94963
11 1 15.7242 -1.40197e-16 3.60444e-16 -8.94963
12 1 17.2966 1.57242 1.57242 -8.94963
13 1 18.8691 2.23005e-16 2.06473e-16 -8.94963
14 1 20.4415 1.57242 1.57242 -8.94963
15 1 22.0139 3.14484 3.70895e-16 -8.94963
16 1 1.57242 4.71726 1.57242 -8.94963
17 1 3.14484 3.14484 2.54528e-16 -8.94963
18 1 4.71726 4.71726 1.57242 -8.94963
19 1 6.28969 3.14484 1.73632e-16 -8.94963
20 1 7.86211 4.71726 1.57242 -8.94963
21 1 9.43453 3.14484 2.40642e-16 -8.94963
22 1 11.007 4.71726 1.57242 -8.94963
23 1 12.5794 3.14484 1.02276e-16 -8.94963
24 1 14.1518 4.71726 1.57242 -8.94963
25 1 15.7242 3.14484 2.26128e-16 -8.94963
26 1 17.2966 4.71726 1.57242 -8.94963
27 1 18.8691 3.14484 5.28282e-16 -8.94963
28 1 20.4415 4.71726 1.57242 -8.94963
29 1 9.74089e-10 6.28969 2.61764e-17 -8.94963
30 1 1.57242 7.86211 1.57242 -8.94963
31 1 3.14484 6.28969 6.93251e-16 -8.94963
32 1 4.71726 7.86211 1.57242 -8.94963
33 1 6.28969 6.28969 5.25191e-16 -8.94963
34 1 7.86211 7.86211 1.57242 -8.94963
35 1 9.43453 6.28969 8.02193e-16 -8.94963
36 1 11.007 7.86211 1.57242 -8.94964
37 1 12.5794 6.28969 4.81507e-16 -8.94963
38 1 14.1518 7.86211 1.57242 -8.94962
39 1 15.7242 6.28969 1.33672e-16 -8.94963
40 1 17.2966 7.86211 1.57242 -8.94963
41 1 18.8691 6.28969 -2.83394e-16 -8.94963
42 1 20.4415 7.86211 1.57242 -8.94963
43 1 22.0139 9.43453 2.49009e-16 -8.94963
44 1 3.14484 9.43453 4.25248e-16 -8.94963
45 1 6.28969 9.43453 6.75814e-16 -8.94964
46 1 9.43453 9.43453 5.18746e-16 -8.94963
47 1 12.5794 9.43453 3.6807e-16 -8.94962
48 1 15.7242 9.43453 7.80599e-16 -8.94963
49 1 18.8691 9.43453 2.43841e-16 -8.94963
50 1 22.0139 3.5355e-16 3.14484 -8.94963
51 1 1.57242 1.57242 4.71726 -8.94963
52 1 3.14484 1.34535e-16 3.14484 -8.94963
53 1 4.71726 1.57242 4.71726 -8.94963
54 1 6.28969 5.03894e-16 3.14484 -8.94963
55 1 7.86211 1.57242 4.71726 -8.94963
56 1 9.43453 3.02976e-16 3.14484 -8.94963
57 1 11.007 1.57242 4.71726 -8.94963
58 1 12.5794 4.60849e-16 3.14484 -8.94963
59 1 14.1518 1.57242 4.71726 -8.94963
60 1 15.7242 4.04732e-16 3.14484 -8.94963
61 1 17.2966 1.57242 4.71726 -8.94963
62 1 18.8691 2.51103e-16 3.14484 -8.94963
63 1 20.4415 1.57242 4.71726 -8.94963
64 1 1.81953e-09 3.14484 3.14484 -8.94963
65 1 1.57242 4.71726 4.71726 -8.94963
66 1 3.14484 3.14484 3.14484 -8.94963
67 1 4.71727 4.71726 4.71727 -8.94964
68 1 6.28969 3.14484 3.14484 -8.94963
69 1 7.86211 4.71726 4.71726 -8.94964
70 1 9.43453 3.14484 3.14484 -8.94963
71 1 11.007 4.71726 4.71726 -8.94963
72 1 12.5794 3.14484 3.14484 -8.94963
73 1 14.1518 4.71727 4.71726 -8.94963
74 1 15.7242 3.14484 3.14484 -8.94963
75 1 17.2966 4.71726 4.71726 -8.94963
76 1 18.8691 3.14484 3.14484 -8.94963
77 1 20.4415 4.71726 4.71726 -8.94963
78 1 22.0139 6.28969 3.14484 -8.94963
79 1 1.57242 7.86211 4.71726 -8.94963
80 1 3.14484 6.28969 3.14484 -8.94963
81 1 4.71726 7.8621 4.71726 -8.94958
82 1 6.28969 6.28969 3.14484 -8.94963
83 1 7.86211 7.86211 4.71726 -8.94968
84 1 9.43453 6.28969 3.14484 -8.94964
85 1 11.0069 7.86213 4.71729 -8.95006
86 1 12.5794 6.28969 3.14484 -8.94964
87 1 14.1518 7.86212 4.71727 -8.94968
88 1 15.7242 6.28969 3.14484 -8.94964
89 1 17.2966 7.86211 4.71727 -8.94964
90 1 18.8691 6.28969 3.14484 -8.94963
91 1 20.4415 7.86211 4.71726 -8.94963
92 1 1.35791e-08 9.43453 3.14484 -8.94963
93 1 3.14484 9.43453 3.14484 -8.94964
94 1 6.28968 9.43453 3.14484 -8.94965
95 1 9.43452 9.43451 3.14483 -8.94943
96 1 12.5794 9.43452 3.14485 -8.94936
97 1 15.7242 9.43453 3.14484 -8.94964
98 1 18.8691 9.43453 3.14484 -8.94963
99 1 9.19902e-11 3.26546e-17 6.28969 -8.94963
100 1 1.57242 1.57242 7.86211 -8.94963
101 1 3.14484 7.8492e-17 6.28969 -8.94963
102 1 4.71726 1.57242 7.86211 -8.94963
103 1 6.28969 -1.71949e-18 6.28969 -8.94963
104 1 7.86211 1.57242 7.86211 -8.94963
105 1 9.43453 1.49972e-16 6.28969 -8.94963
106 1 11.007 1.57242 7.86211 -8.94963
107 1 12.5794 5.82463e-16 6.28969 -8.94963
108 1 14.1518 1.57242 7.86211 -8.94963
109 1 15.7242 3.14954e-16 6.28969 -8.94963
110 1 17.2966 1.57242 7.86211 -8.94963
111 1 18.8691 3.95004e-16 6.28969 -8.94963
112 1 20.4415 1.57242 7.86211 -8.94963
113 1 22.0139 3.14484 6.28969 -8.94963
114 1 1.57242 4.71726 7.86211 -8.94963
115 1 3.14484 3.14484 6.28969 -8.94963
116 1 4.71726 4.71727 7.86211 -8.94965
117 1 6.28969 3.14484 6.28969 -8.94962
118 1 7.86209 4.71727 7.86209 -8.94937
119 1 9.43453 3.14484 6.28969 -8.94964
120 1 11.007 4.71725 7.86209 -8.94943
121 1 12.5794 3.14484 6.28969 -8.94963
122 1 14.1518 4.71726 7.86211 -8.94965
123 1 15.7242 3.14484 6.28969 -8.94963
124 1 17.2966 4.71726 7.86211 -8.94964
125 1 18.8691 3.14484 6.28969 -8.94963
126 1 20.4415 4.71726 7.86211 -8.94963
127 1 5.8153e-08 6.28969 6.28969 -8.94963
128 1 1.57242 7.86211 7.86211 -8.94963
129 1 3.14484 6.28969 6.28969 -8.94964
130 1 4.71729 7.86213 7.86213 -8.9498
131 1 6.2897 6.28969 6.2897 -8.94969
132 1 7.8622 7.86254 7.86184 -8.98956
133 1 9.43453 6.28971 6.28971 -8.95006
134 1 11.0072 7.86224 7.86215 -9.00519
135 1 12.5794 6.28968 6.28969 -8.9497
136 1 14.1519 7.86201 7.86203 -8.94897
137 1 15.7242 6.28968 6.28968 -8.94959
138 1 17.2966 7.86211 7.86211 -8.94965
139 1 18.8691 6.28969 6.28969 -8.94963
140 1 20.4415 7.86211 7.86211 -8.94963
141 1 22.0139 9.43453 6.28969 -8.94963
142 1 3.14484 9.43453 6.28968 -8.94965
143 1 6.28957 9.43444 6.28957 -8.9489
144 1 9.43423 9.43453 6.28979 -9.00466
145 1 12.5793 9.43425 6.29011 -8.98907
146 1 15.7242 9.43455 6.28972 -8.94986
147 1 18.8691 9.43453 6.28969 -8.94963
148 1 8.50155e-10 5.33744e-16 9.43453 -8.94963
149 1 3.14484 3.65681e-16 9.43453 -8.94963
150 1 6.28969 7.28239e-16 9.43453 -8.94963
151 1 9.43453 5.63751e-16 9.43453 -8.94964
152 1 12.5794 2.10741e-16 9.43453 -8.94963
153 1 15.7242 8.92993e-17 9.43453 -8.94963
154 1 18.8691 3.53071e-16 9.43453 -8.94963
155 1 -4.69971e-09 3.14484 9.43453 -8.94963
156 1 3.14484 3.14484 9.43453 -8.94963
157 1 6.28969 3.14485 9.43453 -8.94962
158 1 9.43453 3.14482 9.43453 -8.94989
159 1 12.5794 3.14484 9.43453 -8.94966
160 1 15.7242 3.14484 9.43453 -8.94963
161 1 18.8691 3.14484 9.43453 -8.94963
162 1 5.59668e-08 6.28969 9.43453 -8.94963
163 1 3.14484 6.28969 9.43453 -8.94962
164 1 6.28975 6.28977 9.43454 -8.9503
165 1 9.43457 6.2888 9.43455 -8.9561
166 1 12.5794 6.28961 9.43453 -8.95045
167 1 15.7242 6.28969 9.43452 -8.94963
168 1 18.8691 6.28969 9.43453 -8.94963
169 1 4.02434e-07 9.43453 9.43453 -8.94963
170 1 3.14486 9.43452 9.43453 -8.94939
171 1 6.29034 9.43502 9.43442 -8.99727
172 1 9.42303 9.41203 9.43476 -9.29473
173 1 12.5826 9.43201 9.43501 -9.02436
174 1 15.7243 9.43456 9.43456 -8.95083
175 1 18.8691 9.43453 9.43453 -8.94966
176 1 1.57242 1.57242 11.007 -8.94963
177 1 4.71726 1.57242 11.007 -8.94963
178 1 7.86211 1.57242 11.007 -8.94962
179 1 11.007 1.57242 11.007 -8.94963
180 1 14.1518 1.57242 11.007 -8.94964
181 1 17.2966 1.57242 11.007 -8.94963
182 1 20.4415 1.57242 11.007 -8.94963
183 1 1.57242 4.71726 11.007 -8.94963
184 1 4.71726 4.71727 11.007 -8.94965
185 1 7.86208 4.71727 11.007 -8.94909
186 1 11.007 4.71725 11.007 -8.94921
187 1 14.1518 4.71726 11.007 -8.94967
188 1 17.2966 4.71727 11.007 -8.94964
189 1 20.4415 4.71726 11.007 -8.94963
190 1 1.57242 7.86211 11.007 -8.94962
191 1 4.71733 7.86216 11.007 -8.95007
192 1 7.86228 7.86297 11.007 -9.02892
193 1 11.0075 7.8624 11.007 -9.05965
194 1 14.152 7.8619 11.007 -8.94821
195 1 17.2966 7.8621 11.007 -8.94965
196 1 20.4415 7.86211 11.007 -8.94963
197 1 8.50155e-10 5.41843e-16 12.5794 -8.94963
198 1 1.57242 1.57242 14.1518 -8.94963
199 1 3.14484 3.6339e-16 12.5794 -8.94963
200 1 4.71726 1.57242 14.1518 -8.94963
201 1 6.28969 7.90944e-16 12.5794 -8.94963
202 1 7.86211 1.57242 14.1518 -8.94963
203 1 9.43453 5.97369e-16 12.5794 -8.94964
204 1 11.007 1.57242 14.1518 -8.94963
205 1 12.5794 2.20068e-16 12.5794 -8.94963
206 1 14.1518 1.57242 14.1518 -8.94963
207 1 15.7242 9.28577e-17 12.5794 -8.94963
208 1 17.2966 1.57242 14.1518 -8.94963
209 1 18.8691 3.50648e-16 12.5794 -8.94963
210 1 20.4415 1.57242 14.1518 -8.94963
211 1 -4.69971e-09 3.14484 12.5794 -8.94963
212 1 1.57242 4.71726 14.1518 -8.94963
213 1 3.14484 3.14484 12.5794 -8.94963
214 1 4.71726 4.71727 14.1518 -8.94965
215 1 6.28969 3.14485 12.5794 -8.94962
216 1 7.86209 4.71727 14.1518 -8.94937
217 1 9.43453 3.14482 12.5794 -8.94989
218 1 11.007 4.71725 14.1518 -8.94943
219 1 12.5794 3.14484 12.5794 -8.94966
220 1 14.1518 4.71726 14.1518 -8.94965
221 1 15.7242 3.14484 12.5794 -8.94963
222 1 17.2966 4.71726 14.1518 -8.94964
223 1 18.8691 3.14484 12.5794 -8.94963
224 1 20.4415 4.71726 14.1518 -8.94963
225 1 5.59668e-08 6.28969 12.5794 -8.94963
226 1 1.57242 7.86211 14.1518 -8.94963
227 1 3.14484 6.28969 12.5794 -8.94962
228 1 4.71729 7.86213 14.1518 -8.9498
229 1 6.28975 6.28977 12.5794 -8.9503
230 1 7.8622 7.86254 14.1521 -8.98956
231 1 9.43457 6.2888 12.5793 -8.9561
232 1 11.0072 7.86224 14.1518 -9.00519
233 1 12.5794 6.28961 12.5794 -8.95045
234 1 14.1519 7.86201 14.1519 -8.94897
235 1 15.7242 6.28969 12.5794 -8.94963
236 1 17.2966 7.86211 14.1518 -8.94965
237 1 18.8691 6.28969 12.5794 -8.94963
238 1 20.4415 7.86211 14.1518 -8.94963
239 1 4.02434e-07 9.43453 12.5794 -8.94963
240 1 3.14486 9.43452 12.5794 -8.94939
241 1 6.29034 9.43502 12.5795 -8.99727
242 1 9.42303 9.41203 12.5791 -9.29473
243 1 12.5826 9.43201 12.5789 -9.02436
244 1 15.7243 9.43456 12.5793 -8.95083
245 1 18.8691 9.43453 12.5794 -8.94966
246 1 9.19901e-11 7.71408e-17 15.7242 -8.94963
247 1 1.57242 1.57242 17.2966 -8.94963
248 1 3.14484 6.2196e-17 15.7242 -8.94963
249 1 4.71726 1.57242 17.2966 -8.94963
250 1 6.28969 -2.63033e-17 15.7242 -8.94963
251 1 7.86211 1.57242 17.2966 -8.94963
252 1 9.43453 2.16954e-16 15.7242 -8.94963
253 1 11.007 1.57242 17.2966 -8.94963
254 1 12.5794 6.63822e-16 15.7242 -8.94963
255 1 14.1518 1.57242 17.2966 -8.94963
256 1 15.7242 3.46879e-16 15.7242 -8.94963
257 1 17.2966 1.57242 17.2966 -8.94963
258 1 18.8691 3.36941e-16 15.7242 -8.94963
259 1 20.4415 1.57242 17.2966 -8.94963
260 1 22.0139 3.14484 15.7242 -8.94963
261 1 1.57242 4.71726 17.2966 -8.94963
262 1 3.14484 3.14484 15.7242 -8.94963
263 1 4.71727 4.71726 17.2966 -8.94964
264 1 6.28969 3.14484 15.7242 -8.94962
265 1 7.86211 4.71726 17.2966 -8.94964
266 1 9.43453 3.14484 15.7242 -8.94964
267 1 11.007 4.71726 17.2966 -8.94963
268 1 12.5794 3.14484 15.7242 -8.94963
269 1 14.1518 4.71727 17.2966 -8.94963
270 1 15.7242 3.14484 15.7242 -8.94963
271 1 17.2966 4.71726 17.2966 -8.94963
272 1 18.8691 3.14484 15.7242 -8.94963
273 1 20.4415 4.71726 17.2966 -8.94963
274 1 5.8153e-08 6.28969 15.7242 -8.94963
275 1 1.57242 7.86211 17.2966 -8.94963
276 1 3.14484 6.28969 15.7242 -8.94964
277 1 4.71726 7.8621 17.2966 -8.94958
278 1 6.2897 6.28969 15.7242 -8.94969
279 1 7.86211 7.86211 17.2966 -8.94968
280 1 9.43453 6.28971 15.7242 -8.95006
281 1 11.0069 7.86213 17.2966 -8.95006
282 1 12.5794 6.28968 15.7242 -8.9497
283 1 14.1518 7.86212 17.2966 -8.94968
284 1 15.7242 6.28968 15.7242 -8.94959
285 1 17.2966 7.86211 17.2966 -8.94964
286 1 18.8691 6.28969 15.7242 -8.94963
287 1 20.4415 7.86211 17.2966 -8.94963
288 1 22.0139 9.43453 15.7242 -8.94963
289 1 3.14484 9.43453 15.7242 -8.94965
290 1 6.28957 9.43444 15.7243 -8.9489
291 1 9.43423 9.43453 15.7241 -9.00466
292 1 12.5793 9.43425 15.7238 -8.98907
293 1 15.7242 9.43455 15.7242 -8.94986
294 1 18.8691 9.43453 15.7242 -8.94963
295 1 22.0139 3.65232e-16 18.8691 -8.94963
296 1 1.57242 1.57242 20.4415 -8.94963
297 1 3.14484 1.37015e-16 18.8691 -8.94963
298 1 4.71726 1.57242 20.4415 -8.94963
299 1 6.28969 5.52461e-16 18.8691 -8.94963
300 1 7.86211 1.57242 20.4415 -8.94963
301 1 9.43453 2.52186e-16 18.8691 -8.94963
302 1 11.007 1.57242 20.4415 -8.94963
303 1 12.5794 4.28803e-16 18.8691 -8.94963
304 1 14.1518 1.57242 20.4415 -8.94963
305 1 15.7242 4.78141e-16 18.8691 -8.94963
306 1 17.2966 1.57242 20.4415 -8.94963
307 1 18.8691 3.27631e-16 18.8691 -8.94963
308 1 20.4415 1.57242 20.4415 -8.94963
309 1 1.81953e-09 3.14484 18.8691 -8.94963
310 1 1.57242 4.71726 20.4415 -8.94963
311 1 3.14484 3.14484 18.8691 -8.94963
312 1 4.71726 4.71726 20.4415 -8.94963
313 1 6.28969 3.14484 18.8691 -8.94963
314 1 7.86211 4.71726 20.4415 -8.94963
315 1 9.43453 3.14484 18.8691 -8.94963
316 1 11.007 4.71726 20.4415 -8.94963
317 1 12.5794 3.14484 18.8691 -8.94963
318 1 14.1518 4.71726 20.4415 -8.94963
319 1 15.7242 3.14484 18.8691 -8.94963
320 1 17.2966 4.71726 20.4415 -8.94963
321 1 18.8691 3.14484 18.8691 -8.94963
322 1 20.4415 4.71726 20.4415 -8.94963
323 1 22.0139 6.28969 18.8691 -8.94963
324 1 1.57242 7.86211 20.4415 -8.94963
325 1 3.14484 6.28969 18.8691 -8.94963
326 1 4.71726 7.86211 20.4415 -8.94963
327 1 6.28969 6.28969 18.8691 -8.94963
328 1 7.86211 7.86211 20.4415 -8.94963
329 1 9.43453 6.28969 18.8691 -8.94964
330 1 11.007 7.86211 20.4415 -8.94964
331 1 12.5794 6.28969 18.8691 -8.94964
332 1 14.1518 7.86211 20.4415 -8.94962
333 1 15.7242 6.28969 18.8691 -8.94964
334 1 17.2966 7.86211 20.4415 -8.94963
335 1 18.8691 6.28969 18.8691 -8.94963
336 1 20.4415 7.86211 20.4415 -8.94963
337 1 1.35791e-08 9.43453 18.8691 -8.94963
338 1 3.14484 9.43453 18.8691 -8.94964
339 1 6.28968 9.43453 18.8691 -8.94965
340 1 9.43452 9.43451 18.8691 -8.94943
341 1 12.5794 9.43452 18.8691 -8.94936
342 1 15.7242 9.43453 18.8691 -8.94964
343 1 18.8691 9.43453 18.8691 -8.94963
344 1 1.57242 11.007 1.57242 -8.94963
345 1 4.71726 11.007 1.57242 -8.94963
346 1 7.86211 11.007 1.57242 -8.94966
347 1 11.007 11.007 1.5724 -8.9499
348 1 14.1518 11.007 1.57242 -8.94963
349 1 17.2966 11.007 1.57242 -8.94963
350 1 20.4415 11.007 1.57242 -8.94963
351 1 22.0139 12.5794 1.27303e-16 -8.94963
352 1 1.57242 14.1518 1.57242 -8.94963
353 1 3.14484 12.5794 4.79008e-16 -8.94963
354 1 4.71726 14.1518 1.57242 -8.94963
355 1 6.28969 12.5794 7.66806e-16 -8.94964
356 1 7.86211 14.1518 1.57242 -8.94963
357 1 9.43453 12.5794 4.84152e-16 -8.94963
358 1 11.007 14.1518 1.57242 -8.94964
359 1 12.5794 12.5794 4.00377e-16 -8.94962
360 1 14.1518 14.1518 1.57242 -8.94962
361 1 15.7242 12.5794 8.36295e-16 -8.94963
362 1 17.2966 14.1518 1.57242 -8.94963
363 1 18.8691 12.5794 3.85459e-16 -8.94963
364 1 20.4415 14.1518 1.57242 -8.94963
365 1 9.74089e-10 15.7242 -9.83483e-17 -8.94963
366 1 1.57242 17.2966 1.57242 -8.94963
367 1 3.14484 15.7242 6.42009e-16 -8.94963
368 1 4.71726 17.2966 1.57242 -8.94963
369 1 6.28969 15.7242 3.43483e-16 -8.94963
370 1 7.86211 17.2966 1.57242 -8.94963
371 1 9.43453 15.7242 7.58021e-16 -8.94963
372 1 11.007 17.2966 1.57242 -8.94963
373 1 12.5794 15.7242 4.58687e-16 -8.94963
374 1 14.1518 17.2966 1.57242 -8.94963
375 1 15.7242 15.7242 1.01639e-16 -8.94963
376 1 17.2966 17.2966 1.57242 -8.94963
377 1 18.8691 15.7242 -1.89169e-16 -8.94963
378 1 20.4415 17.2966 1.57242 -8.94963
379 1 22.0139 18.8691 3.77638e-16 -8.94963
380 1 1.57242 20.4415 1.57242 -8.94963
381 1 3.14484 18.8691 2.45516e-16 -8.94963
382 1 4.71726 20.4415 1.57242 -8.94963
383 1 6.28969 18.8691 1.72312e-16 -8.94963
384 1 7.86211 20.4415 1.57242 -8.94963
385 1 9.43453 18.8691 2.35138e-16 -8.94963
386 1 11.007 20.4415 1.57242 -8.94963
387 1 12.5794 18.8691 1.11847e-16 -8.94963
388 1 14.1518 20.4415 1.57242 -8.94963
389 1 15.7242 18.8691 1.70397e-16 -8.94963
390 1 17.2966 20.4415 1.57242 -8.94963
391 1 18.8691 18.8691 4.84823e-16 -8.94963
392 1 20.4415 20.4415 1.57242 -8.94963
393 1 1.57242 11.007 4.71726 -8.94963
394 1 4.71727 11.007 4.71727 -8.94967
395 1 7.86209 11.007 4.71718 -8.95043
396 1 11.0069 11.007 4.71634 -8.95592
397 1 14.1517 11.007 4.71734 -8.95023
398 1 17.2966 11.007 4.71726 -8.94961
399 1 20.4415 11.007 4.71726 -8.94963
400 1 1.35791e-08 12.5794 3.14484 -8.94963
401 1 1.57242 14.1518 4.71726 -8.94963
402 1 3.14484 12.5794 3.14484 -8.94964
403 1 4.71726 14.1518 4.71726 -8.94958
404 1 6.28968 12.5794 3.14484 -8.94965
405 1 7.86211 14.1518 4.71726 -8.94968
406 1 9.43452 12.5794 3.14483 -8.94943
407 1 11.0069 14.1518 4.71729 -8.95006
408 1 12.5794 12.5794 3.14485 -8.94936
409 1 14.1518 14.1518 4.71727 -8.94968
410 1 15.7242 12.5794 3.14484 -8.94964
411 1 17.2966 14.1518 4.71727 -8.94964
412 1 18.8691 12.5794 3.14484 -8.94963
413 1 20.4415 14.1518 4.71726 -8.94963
414 1 22.0139 15.7242 3.14484 -8.94963
415 1 1.57242 17.2966 4.71726 -8.94963
416 1 3.14484 15.7242 3.14484 -8.94963
417 1 4.71727 17.2966 4.71727 -8.94964
418 1 6.28969 15.7242 3.14484 -8.94963
419 1 7.86211 17.2966 4.71726 -8.94964
420 1 9.43453 15.7242 3.14484 -8.94964
421 1 11.007 17.2966 4.71726 -8.94963
422 1 12.5794 15.7242 3.14484 -8.94964
423 1 14.1518 17.2966 4.71726 -8.94963
424 1 15.7242 15.7242 3.14484 -8.94964
425 1 17.2966 17.2966 4.71726 -8.94963
426 1 18.8691 15.7242 3.14484 -8.94963
427 1 20.4415 17.2966 4.71726 -8.94963
428 1 1.81953e-09 18.8691 3.14484 -8.94963
429 1 1.57242 20.4415 4.71726 -8.94963
430 1 3.14484 18.8691 3.14484 -8.94963
431 1 4.71726 20.4415 4.71726 -8.94963
432 1 6.28969 18.8691 3.14484 -8.94963
433 1 7.86211 20.4415 4.71726 -8.94963
434 1 9.43453 18.8691 3.14484 -8.94963
435 1 11.007 20.4415 4.71726 -8.94963
436 1 12.5794 18.8691 3.14484 -8.94963
437 1 14.1518 20.4415 4.71726 -8.94963
438 1 15.7242 18.8691 3.14484 -8.94963
439 1 17.2966 20.4415 4.71726 -8.94963
440 1 18.8691 18.8691 3.14484 -8.94963
441 1 20.4415 20.4415 4.71726 -8.94963
442 1 1.57242 11.007 7.86211 -8.94967
443 1 4.71717 11.007 7.86212 -8.95067
444 1 7.85874 11.007 7.85974 -8.98545
445 1 11.0183 11.007 7.83865 -9.24606
446 1 14.1509 11.007 7.86278 -8.9986
447 1 17.2966 11.007 7.8621 -8.94936
448 1 20.4415 11.007 7.86211 -8.94963
449 1 22.0139 12.5794 6.28969 -8.94963
450 1 1.57242 14.1518 7.86211 -8.94963
451 1 3.14484 12.5794 6.28968 -8.94965
452 1 4.71729 14.1518 7.86213 -8.9498
453 1 6.28957 12.5795 6.28957 -8.9489
454 1 7.8622 14.1514 7.86184 -8.98956
455 1 9.43423 12.5794 6.28979 -9.00466
456 1 11.0072 14.1517 7.86215 -9.00519
457 1 12.5793 12.5797 6.29011 -8.98907
458 1 14.1519 14.1519 7.86203 -8.94897
459 1 15.7242 12.5793 6.28972 -8.94986
460 1 17.2966 14.1518 7.86211 -8.94965
461 1 18.8691 12.5794 6.28969 -8.94963
462 1 20.4415 14.1518 7.86211 -8.94963
463 1 5.8153e-08 15.7242 6.28969 -8.94963
464 1 1.57242 17.2966 7.86211 -8.94963
465 1 3.14484 15.7242 6.28969 -8.94964
466 1 4.71726 17.2966 7.86211 -8.94965
467 1 6.2897 15.7242 6.2897 -8.94969
468 1 7.86209 17.2966 7.86209 -8.94937
469 1 9.43453 15.7242 6.28971 -8.95006
470 1 11.007 17.2966 7.86209 -8.94943
471 1 12.5794 15.7242 6.28969 -8.9497
472 1 14.1518 17.2966 7.86211 -8.94965
473 1 15.7242 15.7242 6.28968 -8.94959
474 1 17.2966 17.2966 7.86211 -8.94964
475 1 18.8691 15.7242 6.28969 -8.94963
476 1 20.4415 17.2966 7.86211 -8.94963
477 1 22.0139 18.8691 6.28969 -8.94963
478 1 1.57242 20.4415 7.86211 -8.94963
479 1 3.14484 18.8691 6.28969 -8.94963
480 1 4.71726 20.4415 7.86211 -8.94963
481 1 6.28969 18.8691 6.28969 -8.94962
482 1 7.86211 20.4415 7.86211 -8.94963
483 1 9.43453 18.8691 6.28969 -8.94964
484 1 11.007 20.4415 7.86211 -8.94963
485 1 12.5794 18.8691 6.28969 -8.94963
486 1 14.1518 20.4415 7.86211 -8.94963
487 1 15.7242 18.8691 6.28969 -8.94963
488 1 17.2966 20.4415 7.86211 -8.94963
489 1 18.8691 18.8691 6.28969 -8.94963
490 1 20.4415 20.4415 7.86211 -8.94963
491 1 4.02434e-07 12.5794 9.43453 -8.94963
492 1 3.14486 12.5794 9.43453 -8.94939
493 1 6.29034 12.5789 9.43442 -8.99727
494 1 9.42303 12.6019 9.43476 -9.29473
495 1 12.5826 12.5819 9.43501 -9.02436
496 1 15.7243 12.5793 9.43456 -8.95083
497 1 18.8691 12.5794 9.43453 -8.94966
498 1 5.59668e-08 15.7242 9.43453 -8.94963
499 1 3.14484 15.7242 9.43453 -8.94962
500 1 6.28975 15.7241 9.43454 -8.9503
501 1 9.43457 15.7251 9.43455 -8.9561
502 1 12.5794 15.7243 9.43453 -8.95045
503 1 15.7242 15.7242 9.43452 -8.94963
504 1 18.8691 15.7242 9.43453 -8.94963
505 1 -4.69971e-09 18.8691 9.43453 -8.94963
506 1 3.14484 18.8691 9.43453 -8.94963
507 1 6.28969 18.8691 9.43453 -8.94962
508 1 9.43453 18.8691 9.43453 -8.94989
509 1 12.5794 18.8691 9.43453 -8.94966
510 1 15.7242 18.8691 9.43453 -8.94963
511 1 18.8691 18.8691 9.43453 -8.94963
688 2 10.2188 11.007 9.43109 1.04187
512 1 1.57242 11.007 11.007 -8.9497
513 1 4.71706 11.007 11.007 -8.95157
514 1 7.8555 11.007 11.007 -9.01913
515 1 11.0329 11.007 11.007 -9.47666
516 1 14.1503 11.007 11.007 -9.04638
517 1 17.2966 11.007 11.007 -8.94914
518 1 20.4415 11.007 11.007 -8.94962
519 1 1.57242 14.1518 11.007 -8.94962
520 1 4.71733 14.1517 11.007 -8.95007
521 1 7.86228 14.1509 11.007 -9.02892
522 1 11.0075 14.1515 11.007 -9.05965
523 1 14.152 14.152 11.007 -8.94821
524 1 17.2966 14.1518 11.007 -8.94965
525 1 20.4415 14.1518 11.007 -8.94963
526 1 1.57242 17.2966 11.007 -8.94963
527 1 4.71726 17.2966 11.007 -8.94965
528 1 7.86208 17.2966 11.007 -8.94909
529 1 11.007 17.2967 11.007 -8.94921
530 1 14.1518 17.2966 11.007 -8.94967
531 1 17.2966 17.2966 11.007 -8.94964
532 1 20.4415 17.2966 11.007 -8.94963
533 1 1.57242 20.4415 11.007 -8.94963
534 1 4.71726 20.4415 11.007 -8.94963
535 1 7.86211 20.4415 11.007 -8.94962
536 1 11.007 20.4415 11.007 -8.94963
537 1 14.1518 20.4415 11.007 -8.94964
538 1 17.2966 20.4415 11.007 -8.94963
539 1 20.4415 20.4415 11.007 -8.94963
540 1 1.57242 11.007 14.1518 -8.94967
541 1 4.71717 11.007 14.1518 -8.95067
542 1 7.85874 11.007 14.1542 -8.98545
543 1 11.0183 11.007 14.1753 -9.24606
544 1 14.1509 11.007 14.1511 -8.9986
545 1 17.2966 11.007 14.1518 -8.94936
546 1 20.4415 11.007 14.1518 -8.94963
547 1 4.02434e-07 12.5794 12.5794 -8.94963
548 1 1.57242 14.1518 14.1518 -8.94963
549 1 3.14486 12.5794 12.5794 -8.94939
550 1 4.71729 14.1518 14.1518 -8.9498
551 1 6.29034 12.5789 12.5795 -8.99727
552 1 7.8622 14.1514 14.1521 -8.98956
553 1 9.42303 12.6019 12.5791 -9.29473
554 1 11.0072 14.1517 14.1518 -9.00519
555 1 12.5826 12.5819 12.5789 -9.02436
556 1 14.1519 14.1519 14.1519 -8.94897
557 1 15.7243 12.5793 12.5793 -8.95083
558 1 17.2966 14.1518 14.1518 -8.94965
559 1 18.8691 12.5794 12.5794 -8.94966
560 1 20.4415 14.1518 14.1518 -8.94963
561 1 5.59668e-08 15.7242 12.5794 -8.94963
562 1 1.57242 17.2966 14.1518 -8.94963
563 1 3.14484 15.7242 12.5794 -8.94962
564 1 4.71726 17.2966 14.1518 -8.94965
565 1 6.28975 15.7241 12.5794 -8.9503
566 1 7.86209 17.2966 14.1518 -8.94937
567 1 9.43457 15.7251 12.5793 -8.9561
568 1 11.007 17.2966 14.1518 -8.94943
569 1 12.5794 15.7243 12.5794 -8.95045
570 1 14.1518 17.2966 14.1518 -8.94965
571 1 15.7242 15.7242 12.5794 -8.94963
572 1 17.2966 17.2966 14.1518 -8.94964
573 1 18.8691 15.7242 12.5794 -8.94963
574 1 20.4415 17.2966 14.1518 -8.94963
575 1 -4.69971e-09 18.8691 12.5794 -8.94963
576 1 1.57242 20.4415 14.1518 -8.94963
577 1 3.14484 18.8691 12.5794 -8.94963
578 1 4.71726 20.4415 14.1518 -8.94963
579 1 6.28969 18.8691 12.5794 -8.94962
580 1 7.86211 20.4415 14.1518 -8.94963
581 1 9.43453 18.8691 12.5794 -8.94989
582 1 11.007 20.4415 14.1518 -8.94963
583 1 12.5794 18.8691 12.5794 -8.94966
584 1 14.1518 20.4415 14.1518 -8.94963
585 1 15.7242 18.8691 12.5794 -8.94963
586 1 17.2966 20.4415 14.1518 -8.94963
587 1 18.8691 18.8691 12.5794 -8.94963
588 1 20.4415 20.4415 14.1518 -8.94963
589 1 1.57242 11.007 17.2966 -8.94963
590 1 4.71727 11.007 17.2966 -8.94967
591 1 7.86209 11.007 17.2967 -8.95043
592 1 11.0069 11.007 17.2976 -8.95592
593 1 14.1517 11.007 17.2966 -8.95023
594 1 17.2966 11.007 17.2966 -8.94961
595 1 20.4415 11.007 17.2966 -8.94963
596 1 22.0139 12.5794 15.7242 -8.94963
597 1 1.57242 14.1518 17.2966 -8.94963
598 1 3.14484 12.5794 15.7242 -8.94965
599 1 4.71726 14.1518 17.2966 -8.94958
600 1 6.28957 12.5795 15.7243 -8.9489
601 1 7.86211 14.1518 17.2966 -8.94968
602 1 9.43423 12.5794 15.7241 -9.00466
603 1 11.0069 14.1518 17.2966 -8.95006
604 1 12.5793 12.5797 15.7238 -8.98907
605 1 14.1518 14.1518 17.2966 -8.94968
606 1 15.7242 12.5793 15.7242 -8.94986
607 1 17.2966 14.1518 17.2966 -8.94964
608 1 18.8691 12.5794 15.7242 -8.94963
609 1 20.4415 14.1518 17.2966 -8.94963
610 1 5.8153e-08 15.7242 15.7242 -8.94963
611 1 1.57242 17.2966 17.2966 -8.94963
612 1 3.14484 15.7242 15.7242 -8.94964
613 1 4.71727 17.2966 17.2966 -8.94964
614 1 6.2897 15.7242 15.7242 -8.94969
615 1 7.86211 17.2966 17.2966 -8.94964
616 1 9.43453 15.7242 15.7242 -8.95006
617 1 11.007 17.2966 17.2966 -8.94963
618 1 12.5794 15.7242 15.7242 -8.9497
619 1 14.1518 17.2966 17.2966 -8.94963
620 1 15.7242 15.7242 15.7242 -8.94959
621 1 17.2966 17.2966 17.2966 -8.94963
622 1 18.8691 15.7242 15.7242 -8.94963
623 1 20.4415 17.2966 17.2966 -8.94963
624 1 22.0139 18.8691 15.7242 -8.94963
625 1 1.57242 20.4415 17.2966 -8.94963
626 1 3.14484 18.8691 15.7242 -8.94963
627 1 4.71726 20.4415 17.2966 -8.94963
628 1 6.28969 18.8691 15.7242 -8.94962
629 1 7.86211 20.4415 17.2966 -8.94963
630 1 9.43453 18.8691 15.7242 -8.94964
631 1 11.007 20.4415 17.2966 -8.94963
632 1 12.5794 18.8691 15.7242 -8.94963
633 1 14.1518 20.4415 17.2966 -8.94963
634 1 15.7242 18.8691 15.7242 -8.94963
635 1 17.2966 20.4415 17.2966 -8.94963
636 1 18.8691 18.8691 15.7242 -8.94963
637 1 20.4415 20.4415 17.2966 -8.94963
638 1 1.57242 11.007 20.4415 -8.94963
639 1 4.71726 11.007 20.4415 -8.94963
640 1 7.86211 11.007 20.4415 -8.94966
641 1 11.007 11.007 20.4415 -8.9499
642 1 14.1518 11.007 20.4415 -8.94963
643 1 17.2966 11.007 20.4415 -8.94963
644 1 20.4415 11.007 20.4415 -8.94963
645 1 1.35791e-08 12.5794 18.8691 -8.94963
646 1 1.57242 14.1518 20.4415 -8.94963
647 1 3.14484 12.5794 18.8691 -8.94964
648 1 4.71726 14.1518 20.4415 -8.94963
649 1 6.28968 12.5794 18.8691 -8.94965
650 1 7.86211 14.1518 20.4415 -8.94963
651 1 9.43452 12.5794 18.8691 -8.94943
652 1 11.007 14.1518 20.4415 -8.94964
653 1 12.5794 12.5794 18.8691 -8.94936
654 1 14.1518 14.1518 20.4415 -8.94962
655 1 15.7242 12.5794 18.8691 -8.94964
656 1 17.2966 14.1518 20.4415 -8.94963
657 1 18.8691 12.5794 18.8691 -8.94963
658 1 20.4415 14.1518 20.4415 -8.94963
659 1 22.0139 15.7242 18.8691 -8.94963
660 1 1.57242 17.2966 20.4415 -8.94963
661 1 3.14484 15.7242 18.8691 -8.94963
662 1 4.71726 17.2966 20.4415 -8.94963
663 1 6.28969 15.7242 18.8691 -8.94963
664 1 7.86211 17.2966 20.4415 -8.94963
665 1 9.43453 15.7242 18.8691 -8.94964
666 1 11.007 17.2966 20.4415 -8.94963
667 1 12.5794 15.7242 18.8691 -8.94964
668 1 14.1518 17.2966 20.4415 -8.94963
669 1 15.7242 15.7242 18.8691 -8.94964
670 1 17.2966 17.2966 20.4415 -8.94963
671 1 18.8691 15.7242 18.8691 -8.94963
672 1 20.4415 17.2966 20.4415 -8.94963
673 1 1.81953e-09 18.8691 18.8691 -8.94963
674 1 1.57242 20.4415 20.4415 -8.94963
675 1 3.14484 18.8691 18.8691 -8.94963
676 1 4.71726 20.4415 20.4415 -8.94963
677 1 6.28969 18.8691 18.8691 -8.94963
678 1 7.86211 20.4415 20.4415 -8.94963
679 1 9.43453 18.8691 18.8691 -8.94963
680 1 11.007 20.4415 20.4415 -8.94963
681 1 12.5794 18.8691 18.8691 -8.94963
682 1 14.1518 20.4415 20.4415 -8.94963
683 1 15.7242 18.8691 18.8691 -8.94963
684 1 17.2966 20.4415 20.4415 -8.94963
685 1 18.8691 18.8691 18.8691 -8.94963
686 1 20.4415 20.4415 20.4415 -8.94963
687 2 10.2188 11.007 12.5828 1.04187
