ITEM: TIMESTEP
58
ITEM: NUMBER OF ATOMS
688
ITEM: BOX BOUNDS pp pp pp
0.0000000000000000e+00 2.2013900999999997e+01
0.0000000000000000e+00 2.2013900999999997e+01
0.0000000000000000e+00 2.2013900999999997e+01
ITEM: ATOMS id type x y z c_pot
1 1 -7.22889e-05 7.0458e-16 5.06058e-15 -8.9495
2 1 1.57223 1.5723 1.5723 -8.94951
3 1 3.14466 -7.95505e-15 1.63799e-15 -8.94961
4 1 4.71705 1.57226 1.57225 -8.94966
5 1 6.28959 2.68699e-14 -7.58865e-15 -8.94963
6 1 7.86202 1.57224 1.57225 -8.94962
7 1 9.43451 -1.12521e-14 9.80878e-15 -8.94962
8 1 11.007 1.57225 1.57226 -8.94961
9 1 12.5794 -1.71277e-15 -4.47989e-15 -8.94963
10 1 14.1519 1.57223 1.57225 -8.94964
11 1 15.7244 -1.48665e-14 8.64611e-15 -8.94965
12 1 17.2969 1.57224 1.57228 -8.94958
13 1 18.8692 1.47716e-14 1.11423e-14 -8.94955
14 1 20.4416 1.57231 1.57234 -8.94953
15 1 22.0138 3.1447 9.77469e-15 -8.94959
16 1 1.5722 4.71708 1.5723 -8.94963
17 1 3.14458 3.1446 1.29772e-14 -8.94957
18 1 4.7168 4.71684 1.57209 -8.94958
19 1 6.28948 3.14454 1.14209e-14 -8.94964
20 1 7.86187 4.71674 1.57212 -8.94961
21 1 9.43446 3.14455 -5.1373e-15 -8.9496
22 1 11.007 4.71676 1.57207 -8.9496
23 1 12.5795 3.14452 -2.4146e-15 -8.94961
24 1 14.1521 4.71671 1.57212 -8.94973
25 1 15.7245 3.1445 -1.00263e-15 -8.94968
26 1 17.2972 4.71677 1.57217 -8.94932
27 1 18.8693 3.1446 -7.82335e-15 -8.94947
28 1 20.4416 4.71709 1.57232 -8.94961
29 1 -6.25301e-05 6.28957 -2.20148e-15 -8.94963
30 1 1.57219 7.86202 1.57231 -8.94961
31 1 3.1445 6.28948 9.09028e-15 -8.94963
32 1 4.71672 7.8619 1.57215 -8.94967
33 1 6.28912 6.28915 1.83961e-14 -8.94965
34 1 7.86141 7.86139 1.57167 -8.94969
35 1 9.43436 6.28911 2.34918e-14 -8.94957
36 1 11.0069 7.86145 1.57167 -8.9495
37 1 12.5795 6.2891 3.64036e-14 -8.94958
38 1 14.1528 7.86122 1.57153 -8.94969
39 1 15.7249 6.289 -4.35794e-15 -8.94951
40 1 17.2972 7.86189 1.57225 -8.94962
41 1 18.8694 6.28947 7.2305e-15 -8.94966
42 1 20.4416 7.86201 1.57231 -8.94961
43 1 22.0138 9.43448 -6.18661e-15 -8.94962
44 1 3.14449 9.43446 1.4584e-14 -8.94957
45 1 6.28916 9.43442 -1.39265e-14 -8.94963
46 1 9.43401 9.43399 -3.85428e-14 -8.94972
47 1 12.58 9.43399 -1.26916e-14 -8.95028
48 1 15.7249 9.43438 -3.72183e-14 -8.9494
49 1 18.8694 9.43445 1.81656e-14 -8.94959
50 1 22.0138 1.69424e-14 3.14471 -8.94955
51 1 1.57215 1.57229 4.71703 -8.94957
52 1 3.14454 -7.73143e-15 3.14456 -8.9495
53 1 4.71673 1.57203 4.7167 -8.94956
54 1 6.2895 -1.67992e-15 3.14452 -8.94962
55 1 7.86194 1.57211 4.71674 -8.94956
56 1 9.43451 -8.20886e-15 3.14454 -8.94961
57 1 11.007 1.57207 4.71674 -8.94958
58 1 12.5795 5.21351e-15 3.14452 -8.94961
59 1 14.1522 1.57202 4.71674 -8.94964
60 1 15.7245 -4.39099e-15 3.14455 -8.9496
61 1 17.297 1.57222 4.71699 -8.94958
62 1 18.8692 5.35836e-15 3.14468 -8.94958
63 1 20.4416 1.57228 4.71712 -8.94959
64 1 -7.73617e-05 3.14467 3.14467 -8.9496
65 1 1.57202 4.71698 4.71694 -8.94966
66 1 3.14439 3.14448 3.14444 -8.94936
67 1 4.71621 4.71632 4.71622 -8.94887
68 1 6.2894 3.14443 3.1444 -8.94973
69 1 7.86173 4.71628 4.71638 -8.94988
70 1 9.43444 3.14435 3.1444 -8.94959
71 1 11.0072 4.71624 4.71626 -8.9495
72 1 12.5796 3.14436 3.14436 -8.9496
73 1 14.1526 4.71602 4.71631 -8.9497
74 1 15.7247 3.14432 3.14443 -8.94959
75 1 17.2973 4.7167 4.71682 -8.94937
76 1 18.8693 3.14459 3.14465 -8.94955
77 1 20.4416 4.71704 4.71706 -8.94964
78 1 22.0138 6.28954 3.14466 -8.94965
79 1 1.57208 7.86199 4.71695 -8.94963
80 1 3.14435 6.28945 3.1445 -8.94963
81 1 4.71633 7.86171 4.71648 -8.94958
82 1 6.28884 6.28889 3.14378 -8.94979
83 1 7.86089 7.86061 4.71499 -8.95079
84 1 9.43433 6.2888 3.14395 -8.94948
85 1 11.007 7.86106 4.71504 -8.94998
86 1 12.5797 6.28882 3.14394 -8.94994
87 1 14.1543 7.85973 4.71452 -8.94702
88 1 15.7253 6.28866 3.14384 -8.94894
89 1 17.2976 7.86173 4.71675 -8.95011
90 1 18.8695 6.28941 3.1446 -8.9497
91 1 20.4417 7.86198 4.71705 -8.94972
92 1 -7.18401e-05 9.43449 3.14465 -8.94962
93 1 3.14435 9.43443 3.14449 -8.94955
94 1 6.289 9.4344 3.14406 -8.94993
95 1 9.43367 9.43352 3.14265 -8.94806
96 1 12.5809 9.43318 3.14177 -8.94984
97 1 15.7251 9.43427 3.1442 -8.94953
98 1 18.8694 9.43445 3.1446 -8.94955
99 1 -0.000123447 2.97396e-15 6.28956 -8.9496
100 1 1.57212 1.5723 7.86195 -8.94961
101 1 3.1444 6.8345e-15 6.28935 -8.94949
102 1 4.71649 1.57194 7.86165 -8.94944
103 1 6.28915 8.20984e-15 6.28906 -8.94976
104 1 7.8616 1.57145 7.86144 -8.94997
105 1 9.43451 4.92394e-15 6.28912 -8.94958
106 1 11.0073 1.57147 7.86143 -8.94973
107 1 12.5798 -2.78568e-16 6.28912 -8.94971
108 1 14.1525 1.57186 7.86166 -8.94963
109 1 15.7247 -6.28247e-15 6.28934 -8.94959
110 1 17.2971 1.5722 7.86192 -8.9496
111 1 18.8693 -1.03409e-14 6.28953 -8.94961
112 1 20.4416 1.57226 7.86201 -8.94963
113 1 22.0138 3.14463 6.28951 -8.94962
114 1 1.57196 4.71692 7.86189 -8.94963
115 1 3.14419 3.14442 6.28928 -8.94944
116 1 4.71582 4.71597 7.86117 -8.9492
117 1 6.28875 3.14362 6.28866 -8.94955
118 1 7.86053 4.71358 7.8602 -8.94964
119 1 9.43446 3.14364 6.28888 -8.94938
120 1 11.008 4.71408 7.86044 -8.94795
121 1 12.58 3.14364 6.28874 -8.94954
122 1 14.1532 4.71537 7.86121 -8.94975
123 1 15.725 3.14417 6.28919 -8.94952
124 1 17.2975 4.7166 7.86174 -8.94946
125 1 18.8694 3.14454 6.28947 -8.94959
126 1 20.4417 4.717 7.86196 -8.94965
127 1 -0.000150837 6.28949 6.28947 -8.94976
128 1 1.57189 7.86193 7.86187 -8.94982
129 1 3.14386 6.28919 6.28909 -8.94991
130 1 4.71555 7.86134 7.8613 -8.95112
131 1 6.28722 6.28707 6.28692 -8.9469
132 1 7.85575 7.85412 7.85452 -8.98275
133 1 9.43452 6.28736 6.28847 -8.94978
134 1 11.0101 7.85843 7.85832 -9.001
135 1 12.5809 6.28707 6.28762 -8.95073
136 1 14.1553 7.85897 7.85966 -8.94676
137 1 15.7258 6.28836 6.28854 -8.94884
138 1 17.298 7.86151 7.86175 -8.95021
139 1 18.8696 6.28929 6.28938 -8.9497
140 1 20.4417 7.86193 7.86194 -8.94983
141 1 22.0138 9.43449 6.28946 -8.94968
142 1 3.14412 9.43445 6.28918 -8.94965
143 1 6.28838 9.43408 6.28813 -8.94949
144 1 9.43212 9.43135 6.28681 -9.00229
145 1 12.5863 9.42716 6.28176 -8.97978
146 1 15.7255 9.43439 6.28915 -8.95162
147 1 18.8696 9.4345 6.28941 -8.94971
148 1 -0.000114918 1.30252e-15 9.43449 -8.9496
149 1 3.14438 1.03421e-14 9.43438 -8.94956
150 1 6.28891 -1.00938e-14 9.43417 -8.94973
151 1 9.43448 1.90414e-15 9.43418 -8.95056
152 1 12.58 -8.99962e-17 9.43416 -8.94974
153 1 15.7247 9.99938e-15 9.43439 -8.94967
154 1 18.8693 6.08569e-15 9.43448 -8.94961
155 1 -7.33255e-05 3.14463 9.43447 -8.94963
156 1 3.14417 3.1444 9.43438 -8.9496
157 1 6.2884 3.14296 9.43389 -8.94913
158 1 9.43444 3.14126 9.43409 -8.95263
159 1 12.5803 3.14295 9.43393 -8.94946
160 1 15.7251 3.14402 9.43429 -8.94956
161 1 18.8694 3.14456 9.43448 -8.94962
162 1 -0.00011993 6.28944 9.43443 -8.94978
163 1 3.14366 6.28902 9.43421 -8.94981
164 1 6.28725 6.28641 9.43303 -8.9468
165 1 9.43405 6.27558 9.43382 -8.96581
166 1 12.581 6.28545 9.43328 -8.95077
167 1 15.7261 6.28812 9.434 -8.94875
168 1 18.8698 6.28921 9.43438 -8.94962
169 1 -8.69608e-05 9.43449 9.43442 -8.94965
170 1 3.14407 9.43443 9.43419 -8.94965
171 1 6.28788 9.43362 9.43339 -9.00202
172 1 9.41291 9.37683 9.4334 -9.26532
173 1 12.5881 9.42352 9.43179 -9.01359
174 1 15.7262 9.43423 9.43441 -8.95234
175 1 18.8697 9.43446 9.43442 -8.94991
176 1 1.57212 1.57231 11.007 -8.94959
177 1 4.71652 1.57201 11.007 -8.94944
178 1 7.86135 1.57096 11.007 -8.95027
179 1 11.0075 1.57103 11.007 -8.95002
180 1 14.1525 1.57184 11.007 -8.94973
181 1 17.2971 1.57223 11.007 -8.94957
182 1 20.4416 1.57226 11.007 -8.94962
183 1 1.57198 4.71691 11.007 -8.94954
184 1 4.716 4.71614 11.007 -8.94981
185 1 7.85938 4.71163 11.007 -8.94855
186 1 11.0089 4.71197 11.007 -8.94703
187 1 14.1532 4.71528 11.007 -8.95031
188 1 17.2975 4.71654 11.007 -8.9495
189 1 20.4416 4.717 11.007 -8.94963
190 1 1.57185 7.86194 11.007 -8.94992
191 1 4.71563 7.86135 11.007 -8.95258
192 1 7.85148 7.84983 11.007 -9.00996
193 1 11.0136 7.85389 11.007 -9.047
194 1 14.1558 7.85817 11.007 -8.9472
195 1 17.2982 7.86137 11.007 -8.9502
196 1 20.4418 7.8619 11.007 -8.94991
197 1 -0.000114918 -1.96335e-15 12.5794 -8.9496
198 1 1.57212 1.5723 14.1519 -8.94961
199 1 3.14438 7.87741e-15 12.5795 -8.94956
200 1 4.71649 1.57194 14.1523 -8.94944
201 1 6.28891 -1.73178e-15 12.5797 -8.94973
202 1 7.8616 1.57145 14.1525 -8.94997
203 1 9.43448 1.99254e-14 12.5797 -8.95056
204 1 11.0073 1.57147 14.1525 -8.94973
205 1 12.58 -1.57638e-14 12.5797 -8.94974
206 1 14.1525 1.57186 14.1522 -8.94963
207 1 15.7247 1.68423e-14 12.5795 -8.94967
208 1 17.2971 1.5722 14.152 -8.9496
209 1 18.8693 -2.00171e-14 12.5794 -8.94961
210 1 20.4416 1.57226 14.1519 -8.94963
211 1 -7.33255e-05 3.14463 12.5794 -8.94963
212 1 1.57196 4.71692 14.152 -8.94963
213 1 3.14417 3.1444 12.5795 -8.9496
214 1 4.71582 4.71597 14.1527 -8.9492
215 1 6.2884 3.14296 12.58 -8.94913
216 1 7.86053 4.71358 14.1537 -8.94964
217 1 9.43444 3.14126 12.5798 -8.95263
218 1 11.008 4.71408 14.1535 -8.94795
219 1 12.5803 3.14295 12.58 -8.94946
220 1 14.1532 4.71537 14.1527 -8.94975
221 1 15.7251 3.14402 12.5796 -8.94956
222 1 17.2975 4.7166 14.1522 -8.94946
223 1 18.8694 3.14456 12.5794 -8.94962
224 1 20.4417 4.717 14.1519 -8.94965
225 1 -0.00011993 6.28944 12.5795 -8.94978
226 1 1.57189 7.86193 14.152 -8.94982
227 1 3.14366 6.28902 12.5797 -8.94981
228 1 4.71555 7.86134 14.1526 -8.95112
229 1 6.28725 6.28641 12.5809 -8.9468
230 1 7.85575 7.85412 14.1594 -8.98275
231 1 9.43405 6.27558 12.5801 -8.96581
232 1 11.0101 7.85843 14.1556 -9.001
233 1 12.581 6.28545 12.5806 -8.95077
234 1 14.1553 7.85897 14.1542 -8.94676
235 1 15.7261 6.28812 12.5799 -8.94875
236 1 17.298 7.86151 14.1522 -8.95021
237 1 18.8698 6.28921 12.5795 -8.94962
238 1 20.4417 7.86193 14.152 -8.94983
239 1 -8.69608e-05 9.43449 12.5795 -8.94965
240 1 3.14407 9.43443 12.5797 -8.94965
241 1 6.28788 9.43362 12.5805 -9.00202
242 1 9.41291 9.37683 12.5805 -9.26532
243 1 12.5881 9.42352 12.5821 -9.01359
244 1 15.7262 9.43423 12.5795 -8.95234
245 1 18.8697 9.43446 12.5795 -8.94991
246 1 -0.000123447 1.71306e-15 15.7243 -8.9496
247 1 1.57215 1.57229 17.2969 -8.94957
248 1 3.1444 -4.64205e-16 15.7246 -8.94949
249 1 4.71673 1.57203 17.2972 -8.94956
250 1 6.28915 -6.84743e-15 15.7248 -8.94976
251 1 7.86194 1.57211 17.2972 -8.94956
252 1 9.43451 1.52419e-14 15.7248 -8.94958
253 1 11.007 1.57207 17.2972 -8.94958
254 1 12.5798 -2.47269e-14 15.7248 -8.94971
255 1 14.1522 1.57202 17.2972 -8.94964
256 1 15.7247 2.73022e-14 15.7246 -8.94959
257 1 17.297 1.57222 17.2969 -8.94958
258 1 18.8693 2.48969e-15 15.7244 -8.94961
259 1 20.4416 1.57228 17.2968 -8.94959
260 1 22.0138 3.14463 15.7244 -8.94962
261 1 1.57202 4.71698 17.297 -8.94966
262 1 3.14419 3.14442 15.7246 -8.94944
263 1 4.71621 4.71632 17.2977 -8.94887
264 1 6.28875 3.14362 15.7252 -8.94955
265 1 7.86173 4.71628 17.2975 -8.94988
266 1 9.43446 3.14364 15.725 -8.94938
267 1 11.0072 4.71624 17.2976 -8.9495
268 1 12.58 3.14364 15.7252 -8.94954
269 1 14.1526 4.71602 17.2976 -8.9497
270 1 15.725 3.14417 15.7247 -8.94952
271 1 17.2973 4.7167 17.2971 -8.94937
272 1 18.8694 3.14454 15.7244 -8.94959
273 1 20.4416 4.71704 17.2968 -8.94964
274 1 -0.000150837 6.28949 15.7244 -8.94976
275 1 1.57208 7.86199 17.297 -8.94963
276 1 3.14386 6.28919 15.7248 -8.94991
277 1 4.71633 7.86171 17.2974 -8.94958
278 1 6.28722 6.28707 15.727 -8.9469
279 1 7.86089 7.86061 17.2989 -8.95079
280 1 9.43452 6.28736 15.7254 -8.94978
281 1 11.007 7.86106 17.2989 -8.94998
282 1 12.5809 6.28707 15.7263 -8.95073
283 1 14.1543 7.85973 17.2994 -8.94702
284 1 15.7258 6.28836 15.7254 -8.94884
285 1 17.2976 7.86173 17.2972 -8.95011
286 1 18.8696 6.28929 15.7245 -8.9497
287 1 20.4417 7.86198 17.2968 -8.94972
288 1 22.0138 9.43449 15.7244 -8.94968
289 1 3.14412 9.43445 15.7247 -8.94965
290 1 6.28838 9.43408 15.7258 -8.94949
291 1 9.43212 9.43135 15.7271 -9.00229
292 1 12.5863 9.42716 15.7321 -8.97978
293 1 15.7255 9.43439 15.7248 -8.95162
294 1 18.8696 9.4345 15.7245 -8.94971
295 1 22.0138 1.31207e-14 18.8692 -8.94955
296 1 1.57223 1.5723 20.4416 -8.94951
297 1 3.14454 -6.79735e-15 18.8693 -8.9495
298 1 4.71705 1.57226 20.4417 -8.94966
299 1 6.2895 1.22008e-14 18.8694 -8.94962
300 1 7.86202 1.57224 20.4416 -8.94962
301 1 9.43451 -7.69644e-15 18.8694 -8.94961
302 1 11.007 1.57225 20.4416 -8.94961
303 1 12.5795 2.37556e-15 18.8694 -8.94961
304 1 14.1519 1.57223 20.4417 -8.94964
305 1 15.7245 5.19971e-15 18.8693 -8.9496
306 1 17.2969 1.57224 20.4416 -8.94958
307 1 18.8692 2.96048e-14 18.8692 -8.94958
308 1 20.4416 1.57231 20.4416 -8.94953
309 1 -7.73617e-05 3.14467 18.8692 -8.9496
310 1 1.5722 4.71708 20.4416 -8.94963
311 1 3.14439 3.14448 18.8695 -8.94936
312 1 4.7168 4.71684 20.4418 -8.94958
313 1 6.2894 3.14443 18.8695 -8.94973
314 1 7.86187 4.71674 20.4418 -8.94961
315 1 9.43444 3.14435 18.8695 -8.94959
316 1 11.007 4.71676 20.4418 -8.9496
317 1 12.5796 3.14436 18.8695 -8.9496
318 1 14.1521 4.71671 20.4418 -8.94973
319 1 15.7247 3.14432 18.8695 -8.94959
320 1 17.2972 4.71677 20.4417 -8.94932
321 1 18.8693 3.14459 18.8693 -8.94955
322 1 20.4416 4.71709 20.4416 -8.94961
323 1 22.0138 6.28954 18.8692 -8.94965
324 1 1.57219 7.86202 20.4416 -8.94961
325 1 3.14435 6.28945 18.8694 -8.94963
326 1 4.71672 7.8619 20.4418 -8.94967
327 1 6.28884 6.28889 18.8701 -8.94979
328 1 7.86141 7.86139 20.4422 -8.94969
329 1 9.43433 6.2888 18.87 -8.94948
330 1 11.0069 7.86145 20.4422 -8.9495
331 1 12.5797 6.28882 18.87 -8.94994
332 1 14.1528 7.86122 20.4424 -8.94969
333 1 15.7253 6.28866 18.8701 -8.94894
334 1 17.2972 7.86189 20.4417 -8.94962
335 1 18.8695 6.28941 18.8693 -8.9497
336 1 20.4416 7.86201 20.4416 -8.94961
337 1 -7.18401e-05 9.43449 18.8692 -8.94962
338 1 3.14435 9.43443 18.8694 -8.94955
339 1 6.289 9.4344 18.8698 -8.94993
340 1 9.43367 9.43352 18.8712 -8.94806
341 1 12.5809 9.43318 18.8721 -8.94984
342 1 15.7251 9.43427 18.8697 -8.94953
343 1 18.8694 9.43445 18.8693 -8.94955
344 1 1.57218 11.007 1.57232 -8.94961
345 1 4.71675 11.007 1.5721 -8.94958
346 1 7.8616 11.007 1.57183 -8.94938
347 1 11.007 11.007 1.5704 -8.95298
348 1 14.1526 11.007 1.57161 -8.94924
349 1 17.2971 11.007 1.5722 -8.94959
350 1 20.4416 11.007 1.57232 -8.94961
351 1 22.0138 12.5794 -5.29908e-15 -8.94962
352 1 1.57219 14.1519 1.57231 -8.94961
353 1 3.14449 12.5794 2.81848e-14 -8.94957
354 1 4.71672 14.152 1.57215 -8.94967
355 1 6.28916 12.5795 2.27507e-14 -8.94963
356 1 7.86141 14.1525 1.57167 -8.94969
357 1 9.43401 12.5799 -2.69769e-14 -8.94972
358 1 11.0069 14.1524 1.57167 -8.9495
359 1 12.58 12.5799 -3.40337e-15 -8.95028
360 1 14.1528 14.1527 1.57153 -8.94969
361 1 15.7249 12.5795 2.25583e-14 -8.9494
362 1 17.2972 14.152 1.57225 -8.94962
363 1 18.8694 12.5795 5.84837e-15 -8.94959
364 1 20.4416 14.1519 1.57231 -8.94961
365 1 -6.25301e-05 15.7243 -5.29636e-15 -8.94963
366 1 1.5722 17.2968 1.5723 -8.94963
367 1 3.1445 15.7244 -2.70454e-14 -8.94963
368 1 4.7168 17.2971 1.57209 -8.94958
369 1 6.28912 15.7248 1.20624e-14 -8.94965
370 1 7.86187 17.2972 1.57212 -8.94961
371 1 9.43436 15.7248 -1.24883e-14 -8.94957
372 1 11.007 17.2971 1.57207 -8.9496
373 1 12.5795 15.7248 -1.63053e-14 -8.94958
374 1 14.1521 17.2972 1.57212 -8.94973
375 1 15.7249 15.7249 1.35727e-14 -8.94951
376 1 17.2972 17.2971 1.57217 -8.94932
377 1 18.8694 15.7244 -1.42782e-15 -8.94966
378 1 20.4416 17.2968 1.57232 -8.94961
379 1 22.0138 18.8692 5.47859e-16 -8.94959
380 1 1.57223 20.4416 1.5723 -8.94951
381 1 3.14458 18.8693 2.1639e-14 -8.94957
382 1 4.71705 20.4416 1.57225 -8.94966
383 1 6.28948 18.8694 1.49317e-14 -8.94964
384 1 7.86202 20.4417 1.57225 -8.94962
385 1 9.43446 18.8694 4.97534e-15 -8.9496
386 1 11.007 20.4417 1.57226 -8.94961
387 1 12.5795 18.8694 -5.22622e-15 -8.94961
388 1 14.1519 20.4417 1.57225 -8.94964
389 1 15.7245 18.8694 1.22547e-15 -8.94968
390 1 17.2969 20.4417 1.57228 -8.94958
391 1 18.8693 18.8693 -3.29858e-16 -8.94947
392 1 20.4416 20.4416 1.57234 -8.94953
393 1 1.57207 11.007 4.71694 -8.94958
394 1 4.7165 11.007 4.71645 -8.94911
395 1 7.8622 11.007 4.71589 -8.95018
396 1 11.0073 11.007 4.70532 -8.96694
397 1 14.1532 11.007 4.71558 -8.94859
398 1 17.2975 11.007 4.71671 -8.94951
399 1 20.4416 11.007 4.71704 -8.94963
400 1 -7.18401e-05 12.5794 3.14465 -8.94962
401 1 1.57208 14.1519 4.71695 -8.94963
402 1 3.14435 12.5795 3.14449 -8.94955
403 1 4.71633 14.1522 4.71648 -8.94958
404 1 6.289 12.5795 3.14406 -8.94993
405 1 7.86089 14.1533 4.71499 -8.95079
406 1 9.43367 12.5804 3.14265 -8.94806
407 1 11.007 14.1528 4.71504 -8.94998
408 1 12.5809 12.5807 3.14177 -8.94984
409 1 14.1543 14.1542 4.71452 -8.94702
410 1 15.7251 12.5796 3.1442 -8.94953
411 1 17.2976 14.1522 4.71675 -8.95011
412 1 18.8694 12.5794 3.1446 -8.94955
413 1 20.4417 14.1519 4.71705 -8.94972
414 1 22.0138 15.7244 3.14466 -8.94965
415 1 1.57202 17.2969 4.71694 -8.94966
416 1 3.14435 15.7245 3.1445 -8.94963
417 1 4.71621 17.2976 4.71622 -8.94887
418 1 6.28884 15.725 3.14378 -8.94979
419 1 7.86173 17.2976 4.71638 -8.94988
420 1 9.43433 15.7251 3.14395 -8.94948
421 1 11.0072 17.2977 4.71626 -8.9495
422 1 12.5797 15.7251 3.14394 -8.94994
423 1 14.1526 17.2979 4.71631 -8.9497
424 1 15.7253 15.7252 3.14384 -8.94894
425 1 17.2973 17.2972 4.71682 -8.94937
426 1 18.8695 15.7245 3.1446 -8.9497
427 1 20.4416 17.2969 4.71706 -8.94964
428 1 -7.73617e-05 18.8692 3.14467 -8.9496
429 1 1.57215 20.4416 4.71703 -8.94957
430 1 3.14439 18.8694 3.14444 -8.94936
431 1 4.71673 20.4419 4.7167 -8.94956
432 1 6.2894 18.8695 3.1444 -8.94973
433 1 7.86194 20.4418 4.71674 -8.94956
434 1 9.43444 18.8696 3.1444 -8.94959
435 1 11.007 20.4418 4.71674 -8.94958
436 1 12.5796 18.8695 3.14436 -8.9496
437 1 14.1522 20.4419 4.71674 -8.94964
438 1 15.7247 18.8696 3.14443 -8.94959
439 1 17.297 20.4417 4.71699 -8.94958
440 1 18.8693 18.8693 3.14465 -8.94955
441 1 20.4416 20.4416 4.71712 -8.94959
442 1 1.57203 11.007 7.86183 -8.94955
443 1 4.7163 11.007 7.86143 -8.94916
444 1 7.86149 11.007 7.85887 -8.98181
445 1 11.0326 11.007 7.80441 -9.23717
446 1 14.1519 11.007 7.86237 -9.00221
447 1 17.2973 11.007 7.86185 -8.94878
448 1 20.4417 11.007 7.86191 -8.94948
449 1 22.0138 12.5794 6.28946 -8.94968
450 1 1.57189 14.152 7.86187 -8.94982
451 1 3.14412 12.5794 6.28918 -8.94965
452 1 4.71555 14.1526 7.8613 -8.95112
453 1 6.28838 12.5798 6.28813 -8.94949
454 1 7.85575 14.1598 7.85452 -8.98275
455 1 9.43212 12.5826 6.28681 -9.00229
456 1 11.0101 14.1555 7.85832 -9.001
457 1 12.5863 12.5867 6.28176 -8.97978
458 1 14.1553 14.1549 7.85966 -8.94676
459 1 15.7255 12.5795 6.28915 -8.95162
460 1 17.298 14.1524 7.86175 -8.95021
461 1 18.8696 12.5794 6.28941 -8.94971
462 1 20.4417 14.152 7.86194 -8.94983
463 1 -0.000150837 15.7244 6.28947 -8.94976
464 1 1.57196 17.297 7.86189 -8.94963
465 1 3.14386 15.7247 6.28909 -8.94991
466 1 4.71582 17.2979 7.86117 -8.9492
467 1 6.28722 15.7268 6.28692 -8.9469
468 1 7.86053 17.3003 7.8602 -8.94964
469 1 9.43452 15.7265 6.28847 -8.94978
470 1 11.008 17.2998 7.86044 -8.94795
471 1 12.5809 15.7268 6.28762 -8.95073
472 1 14.1532 17.2985 7.86121 -8.94975
473 1 15.7258 15.7255 6.28854 -8.94884
474 1 17.2975 17.2973 7.86174 -8.94946
475 1 18.8696 15.7246 6.28938 -8.9497
476 1 20.4417 17.2969 7.86196 -8.94965
477 1 22.0138 18.8693 6.28951 -8.94962
478 1 1.57212 20.4416 7.86195 -8.94961
479 1 3.14419 18.8695 6.28928 -8.94944
480 1 4.71649 20.442 7.86165 -8.94944
481 1 6.28875 18.8703 6.28866 -8.94955
482 1 7.8616 20.4425 7.86144 -8.94997
483 1 9.43446 18.8703 6.28888 -8.94938
484 1 11.0073 20.4424 7.86143 -8.94973
485 1 12.58 18.8703 6.28874 -8.94954
486 1 14.1525 20.442 7.86166 -8.94963
487 1 15.725 18.8697 6.28919 -8.94952
488 1 17.2971 20.4417 7.86192 -8.9496
489 1 18.8694 18.8694 6.28947 -8.94959
490 1 20.4416 20.4416 7.86201 -8.94963
491 1 -8.69608e-05 12.5794 9.43442 -8.94965
492 1 3.14407 12.5795 9.43419 -8.94965
493 1 6.28788 12.5803 9.43339 -9.00202
494 1 9.41291 12.6371 9.4334 -9.26532
495 1 12.5881 12.5904 9.43179 -9.01359
496 1 15.7262 12.5797 9.43441 -8.95234
497 1 18.8697 12.5794 9.43442 -8.94991
498 1 -0.00011993 15.7245 9.43443 -8.94978
499 1 3.14366 15.7249 9.43421 -8.94981
500 1 6.28725 15.7275 9.43303 -8.9468
501 1 9.43405 15.7383 9.43382 -8.96581
502 1 12.581 15.7285 9.43328 -8.95077
503 1 15.7261 15.7258 9.434 -8.94875
504 1 18.8698 15.7247 9.43438 -8.94962
505 1 -7.33255e-05 18.8693 9.43447 -8.94963
506 1 3.14417 18.8695 9.43438 -8.9496
507 1 6.2884 18.8709 9.43389 -8.94913
508 1 9.43444 18.8726 9.43409 -8.95263
509 1 12.5803 18.8709 9.43393 -8.94946
510 1 15.7251 18.8699 9.43429 -8.94956
511 1 18.8694 18.8693 9.43448 -8.94962
688 2 10.1872 11.007 9.3919 0.81219
512 1 1.57195 11.007 11.007 -8.94974
513 1 4.71603 11.007 11.007 -8.95105
514 1 7.85576 11.007 11.007 -9.01776
515 1 11.0567 11.007 11.007 -9.44124
516 1 14.1504 11.007 11.007 -9.04658
517 1 17.2972 11.007 11.007 -8.94813
518 1 20.4417 11.007 11.007 -8.94945
519 1 1.57185 14.152 11.007 -8.94992
520 1 4.71563 14.1526 11.007 -8.95258
521 1 7.85148 14.1641 11.007 -9.00996
522 1 11.0136 14.16 11.007 -9.047
523 1 14.1558 14.1557 11.007 -8.9472
524 1 17.2982 14.1525 11.007 -8.9502
525 1 20.4418 14.152 11.007 -8.94991
526 1 1.57198 17.297 11.007 -8.94954
527 1 4.716 17.2978 11.007 -8.94981
528 1 7.85938 17.3023 11.007 -8.94855
529 1 11.0089 17.3019 11.007 -8.94703
530 1 14.1532 17.2986 11.007 -8.95031
531 1 17.2975 17.2974 11.007 -8.9495
532 1 20.4416 17.2969 11.007 -8.94963
533 1 1.57212 20.4416 11.007 -8.94959
534 1 4.71652 20.4419 11.007 -8.94944
535 1 7.86135 20.4429 11.007 -8.95027
536 1 11.0075 20.4429 11.007 -8.95002
537 1 14.1525 20.4421 11.007 -8.94973
538 1 17.2971 20.4417 11.007 -8.94957
539 1 20.4416 20.4416 11.007 -8.94962
540 1 1.57203 11.007 14.1521 -8.94955
541 1 4.7163 11.007 14.1525 -8.94916
542 1 7.86149 11.007 14.155 -8.98181
543 1 11.0326 11.007 14.2095 -9.23717
544 1 14.1519 11.007 14.1515 -9.00221
545 1 17.2973 11.007 14.1521 -8.94878
546 1 20.4417 11.007 14.152 -8.94948
547 1 -8.69608e-05 12.5794 12.5795 -8.94965
548 1 1.57189 14.152 14.152 -8.94982
549 1 3.14407 12.5795 12.5797 -8.94965
550 1 4.71555 14.1526 14.1526 -8.95112
551 1 6.28788 12.5803 12.5805 -9.00202
552 1 7.85575 14.1598 14.1594 -8.98275
553 1 9.41291 12.6371 12.5805 -9.26532
554 1 11.0101 14.1555 14.1556 -9.001
555 1 12.5881 12.5904 12.5821 -9.01359
556 1 14.1553 14.1549 14.1542 -8.94676
557 1 15.7262 12.5797 12.5795 -8.95234
558 1 17.298 14.1524 14.1522 -8.95021
559 1 18.8697 12.5794 12.5795 -8.94991
560 1 20.4417 14.152 14.152 -8.94983
561 1 -0.00011993 15.7245 12.5795 -8.94978
562 1 1.57196 17.297 14.152 -8.94963
563 1 3.14366 15.7249 12.5797 -8.94981
564 1 4.71582 17.2979 14.1527 -8.9492
565 1 6.28725 15.7275 12.5809 -8.9468
566 1 7.86053 17.3003 14.1537 -8.94964
567 1 9.43405 15.7383 12.5801 -8.96581
568 1 11.008 17.2998 14.1535 -8.94795
569 1 12.581 15.7285 12.5806 -8.95077
570 1 14.1532 17.2985 14.1527 -8.94975
571 1 15.7261 15.7258 12.5799 -8.94875
572 1 17.2975 17.2973 14.1522 -8.94946
573 1 18.8698 15.7247 12.5795 -8.94962
574 1 20.4417 17.2969 14.1519 -8.94965
575 1 -7.33255e-05 18.8693 12.5794 -8.94963
576 1 1.57212 20.4416 14.1519 -8.94961
577 1 3.14417 18.8695 12.5795 -8.9496
578 1 4.71649 20.442 14.1523 -8.94944
579 1 6.2884 18.8709 12.58 -8.94913
580 1 7.8616 20.4425 14.1525 -8.94997
581 1 9.43444 18.8726 12.5798 -8.95263
582 1 11.0073 20.4424 14.1525 -8.94973
583 1 12.5803 18.8709 12.58 -8.94946
584 1 14.1525 20.442 14.1522 -8.94963
585 1 15.7251 18.8699 12.5796 -8.94956
586 1 17.2971 20.4417 14.152 -8.9496
587 1 18.8694 18.8693 12.5794 -8.94962
588 1 20.4416 20.4416 14.1519 -8.94963
589 1 1.57207 11.007 17.297 -8.94958
590 1 4.7165 11.007 17.2974 -8.94911
591 1 7.8622 11.007 17.298 -8.95018
592 1 11.0073 11.007 17.3086 -8.96694
593 1 14.1532 11.007 17.2983 -8.94859
594 1 17.2975 11.007 17.2972 -8.94951
595 1 20.4416 11.007 17.2969 -8.94963
596 1 22.0138 12.5794 15.7244 -8.94968
597 1 1.57208 14.1519 17.297 -8.94963
598 1 3.14412 12.5794 15.7247 -8.94965
599 1 4.71633 14.1522 17.2974 -8.94958
600 1 6.28838 12.5798 15.7258 -8.94949
601 1 7.86089 14.1533 17.2989 -8.95079
602 1 9.43212 12.5826 15.7271 -9.00229
603 1 11.007 14.1528 17.2989 -8.94998
604 1 12.5863 12.5867 15.7321 -8.97978
605 1 14.1543 14.1542 17.2994 -8.94702
606 1 15.7255 12.5795 15.7248 -8.95162
607 1 17.2976 14.1522 17.2972 -8.95011
608 1 18.8696 12.5794 15.7245 -8.94971
609 1 20.4417 14.1519 17.2968 -8.94972
610 1 -0.000150837 15.7244 15.7244 -8.94976
611 1 1.57202 17.2969 17.297 -8.94966
612 1 3.14386 15.7247 15.7248 -8.94991
613 1 4.71621 17.2976 17.2977 -8.94887
614 1 6.28722 15.7268 15.727 -8.9469
615 1 7.86173 17.2976 17.2975 -8.94988
616 1 9.43452 15.7265 15.7254 -8.94978
617 1 11.0072 17.2977 17.2976 -8.9495
618 1 12.5809 15.7268 15.7263 -8.95073
619 1 14.1526 17.2979 17.2976 -8.9497
620 1 15.7258 15.7255 15.7254 -8.94884
621 1 17.2973 17.2972 17.2971 -8.94937
622 1 18.8696 15.7246 15.7245 -8.9497
623 1 20.4416 17.2969 17.2968 -8.94964
624 1 22.0138 18.8693 15.7244 -8.94962
625 1 1.57215 20.4416 17.2969 -8.94957
626 1 3.14419 18.8695 15.7246 -8.94944
627 1 4.71673 20.4419 17.2972 -8.94956
628 1 6.28875 18.8703 15.7252 -8.94955
629 1 7.86194 20.4418 17.2972 -8.94956
630 1 9.43446 18.8703 15.725 -8.94938
631 1 11.007 20.4418 17.2972 -8.94958
632 1 12.58 18.8703 15.7252 -8.94954
633 1 14.1522 20.4419 17.2972 -8.94964
634 1 15.725 18.8697 15.7247 -8.94952
635 1 17.297 20.4417 17.2969 -8.94958
636 1 18.8694 18.8694 15.7244 -8.94959
637 1 20.4416 20.4416 17.2968 -8.94959
638 1 1.57218 11.007 20.4416 -8.94961
639 1 4.71675 11.007 20.4418 -8.94958
640 1 7.8616 11.007 20.4421 -8.94938
641 1 11.007 11.007 20.4435 -8.95298
642 1 14.1526 11.007 20.4423 -8.94924
643 1 17.2971 11.007 20.4417 -8.94959
644 1 20.4416 11.007 20.4416 -8.94961
645 1 -7.18401e-05 12.5794 18.8692 -8.94962
646 1 1.57219 14.1519 20.4416 -8.94961
647 1 3.14435 12.5795 18.8694 -8.94955
648 1 4.71672 14.152 20.4418 -8.94967
649 1 6.289 12.5795 18.8698 -8.94993
650 1 7.86141 14.1525 20.4422 -8.94969
651 1 9.43367 12.5804 18.8712 -8.94806
652 1 11.0069 14.1524 20.4422 -8.9495
653 1 12.5809 12.5807 18.8721 -8.94984
654 1 14.1528 14.1527 20.4424 -8.94969
655 1 15.7251 12.5796 18.8697 -8.94953
656 1 17.2972 14.152 20.4417 -8.94962
657 1 18.8694 12.5794 18.8693 -8.94955
658 1 20.4416 14.1519 20.4416 -8.94961
659 1 22.0138 15.7244 18.8692 -8.94965
660 1 1.5722 17.2968 20.4416 -8.94963
661 1 3.14435 15.7245 18.8694 -8.94963
662 1 4.7168 17.2971 20.4418 -8.94958
663 1 6.28884 15.725 18.8701 -8.94979
664 1 7.86187 17.2972 20.4418 -8.94961
665 1 9.43433 15.7251 18.87 -8.94948
666 1 11.007 17.2971 20.4418 -8.9496
667 1 12.5797 15.7251 18.87 -8.94994
668 1 14.1521 17.2972 20.4418 -8.94973
669 1 15.7253 15.7252 18.8701 -8.94894
670 1 17.2972 17.2971 20.4417 -8.94932
671 1 18.8695 15.7245 18.8693 -8.9497
672 1 20.4416 17.2968 20.4416 -8.94961
673 1 -7.73617e-05 18.8692 18.8692 -8.9496
674 1 1.57223 20.4416 20.4416 -8.94951
675 1 3.14439 18.8694 18.8695 -8.94936
676 1 4.71705 20.4416 20.4417 -8.94966
677 1 6.2894 18.8695 18.8695 -8.94973
678 1 7.86202 20.4417 20.4416 -8.94962
679 1 9.43444 18.8696 18.8695 -8.94959
680 1 11.007 20.4417 20.4416 -8.94961
681 1 12.5796 18.8695 18.8695 -8.9496
682 1 14.1519 20.4417 20.4417 -8.94964
683 1 15.7247 18.8696 18.8695 -8.94959
684 1 17.2969 20.4417 20.4416 -8.94958
685 1 18.8693 18.8693 18.8693 -8.94955
686 1 20.4416 20.4416 20.4416 -8.94953
687 2 10.1872 11.007 12.622 0.81219
