ITEM: TIMESTEP
45
ITEM: NUMBER OF ATOMS
688
ITEM: BOX BOUNDS pp pp pp
0.0000000000000000e+00 2.2013900999999997e+01
0.0000000000000000e+00 2.2013900999999997e+01
0.0000000000000000e+00 2.2013900999999997e+01
ITEM: ATOMS id type x y z c_pot
191 1 4.71678 7.86184 11.0069 -8.94969
2 1 1.57242 1.57242 1.57242 -8.94963
3 1 3.14484 3.53825e-16 2.05917e-09 -8.94963
4 1 4.71726 1.57242 1.57242 -8.94963
175 1 18.8691 9.43453 9.43453 -8.94968
6 1 7.86211 1.57242 1.57242 -8.94963
7 1 9.43453 7.93359e-16 -2.01192e-10 -8.94963
8 1 11.007 1.57242 1.57242 -8.94963
174 1 15.7245 9.4344 9.43452 -8.94956
10 1 14.1518 1.57242 1.57242 -8.94963
173 1 12.5828 9.43129 9.43436 -8.9085
12 1 17.2966 1.57242 1.57242 -8.94963
190 1 1.5724 7.8621 11.0069 -8.94971
14 1 20.4415 1.57242 1.57242 -8.94963
172 1 9.37455 9.30417 9.43449 -8.07605
16 1 1.57242 4.71726 1.57242 -8.94963
17 1 3.14484 3.14484 -1.4515e-08 -8.94963
18 1 4.71726 4.71726 1.57242 -8.94963
171 1 6.2862 9.43341 9.4348 -9.00016
20 1 7.86211 4.71726 1.57242 -8.94964
170 1 3.14476 9.43457 9.43458 -8.95076
22 1 11.007 4.71726 1.57242 -8.94963
189 1 20.4415 4.71726 11.007 -8.94963
24 1 14.1518 4.71727 1.57242 -8.94965
169 1 -5.17345e-07 9.43453 9.43453 -8.94966
26 1 17.2966 4.71726 1.57242 -8.94963
168 1 18.8691 6.28969 9.43453 -8.94963
28 1 20.4415 4.71726 1.57242 -8.94963
29 1 22.0139 6.28969 1.70451e-11 -8.94963
30 1 1.57242 7.86211 1.57242 -8.94963
167 1 15.7242 6.28969 9.43453 -8.94965
32 1 4.71726 7.86211 1.57242 -8.94964
33 1 6.28969 6.28969 -7.41244e-07 -8.94963
34 1 7.8621 7.8621 1.57241 -8.94965
35 1 9.43453 6.28969 2.00033e-07 -8.94964
36 1 11.0069 7.86211 1.57242 -8.94964
37 1 12.5794 6.28969 6.91102e-07 -8.94963
38 1 14.1518 7.8621 1.5724 -8.94962
166 1 12.5793 6.28961 9.43453 -8.95116
40 1 17.2966 7.86211 1.57242 -8.94965
165 1 9.43438 6.28444 9.43458 -8.97364
42 1 20.4415 7.86211 1.57242 -8.94963
164 1 6.28964 6.28961 9.43453 -8.95148
163 1 3.14483 6.28968 9.43452 -8.94952
162 1 22.0139 6.28969 9.43453 -8.94963
161 1 18.8691 3.14484 9.43453 -8.94963
160 1 15.7242 3.14484 9.43453 -8.94963
48 1 15.7242 9.43453 5.84217e-07 -8.94963
188 1 17.2966 4.71727 11.007 -8.94964
50 1 1.74346e-09 2.88969e-16 3.14484 -8.94963
51 1 1.57242 1.57242 4.71726 -8.94963
52 1 3.14484 2.17535e-16 3.14484 -8.94963
53 1 4.71726 1.57242 4.71726 -8.94963
54 1 6.28969 6.38589e-16 3.14484 -8.94963
55 1 7.86211 1.57242 4.71726 -8.94963
56 1 9.43453 1.57477e-16 3.14484 -8.94963
57 1 11.007 1.57242 4.71726 -8.94963
58 1 12.5794 4.2135e-16 3.14484 -8.94963
59 1 14.1518 1.57242 4.71726 -8.94963
60 1 15.7242 9.53088e-16 3.14484 -8.94963
61 1 17.2966 1.57242 4.71726 -8.94963
62 1 18.8691 1.32447e-16 3.14484 -8.94963
63 1 20.4415 1.57242 4.71726 -8.94963
64 1 22.0139 3.14484 3.14484 -8.94963
65 1 1.57242 4.71726 4.71726 -8.94963
66 1 3.14484 3.14484 3.14484 -8.94963
67 1 4.71725 4.71725 4.71725 -8.94949
68 1 6.28969 3.14484 3.14484 -8.94965
69 1 7.86211 4.71727 4.71727 -8.94983
70 1 9.43453 3.14484 3.14484 -8.94963
71 1 11.0069 4.71727 4.71726 -8.94965
72 1 12.5794 3.14484 3.14484 -8.94964
73 1 14.1518 4.71725 4.71726 -8.94964
74 1 15.7242 3.14484 3.14484 -8.94963
75 1 17.2966 4.71726 4.71726 -8.94964
76 1 18.8691 3.14484 3.14484 -8.94963
77 1 20.4415 4.71726 4.71726 -8.94963
78 1 22.0139 6.28969 3.14484 -8.94963
79 1 1.57242 7.86211 4.71726 -8.94963
80 1 3.14484 6.28969 3.14484 -8.94964
81 1 4.71726 7.8621 4.71726 -8.94972
82 1 6.28968 6.28968 3.14483 -8.94964
83 1 7.862 7.86201 4.71697 -8.95039
84 1 9.43453 6.28968 3.14485 -8.94965
85 1 11.0069 7.86215 4.71721 -8.95133
86 1 12.5794 6.2897 3.14485 -8.94983
87 1 14.1521 7.86179 4.71695 -8.9468
88 1 15.7242 6.28967 3.14483 -8.94949
89 1 17.2967 7.8621 4.71726 -8.94965
90 1 18.8691 6.28969 3.14484 -8.94963
91 1 20.4415 7.86211 4.71726 -8.94963
92 1 3.15808e-08 9.43453 3.14484 -8.94963
93 1 3.14484 9.43453 3.14484 -8.94965
94 1 6.28968 9.43453 3.14484 -8.94971
95 1 9.43441 9.4344 3.14466 -8.94903
96 1 12.5795 9.43439 3.14451 -8.95023
97 1 15.7242 9.43453 3.14485 -8.9498
98 1 18.8691 9.43453 3.14484 -8.94963
99 1 22.0139 4.02429e-16 6.28969 -8.94963
100 1 1.57242 1.57242 7.86211 -8.94963
101 1 3.14484 -1.55218e-16 6.28969 -8.94963
102 1 4.71726 1.57242 7.86211 -8.94963
103 1 6.28969 6.96549e-16 6.28969 -8.94964
104 1 7.8621 1.57241 7.8621 -8.94969
105 1 9.43453 8.23385e-16 6.28969 -8.94963
106 1 11.007 1.57241 7.8621 -8.94965
107 1 12.5794 1.72062e-16 6.28969 -8.94964
108 1 14.1518 1.57242 7.86211 -8.94964
109 1 15.7242 3.18608e-16 6.28969 -8.94963
110 1 17.2966 1.57242 7.86211 -8.94963
111 1 18.8691 4.26821e-17 6.28969 -8.94963
112 1 20.4415 1.57242 7.86211 -8.94963
113 1 22.0139 3.14484 6.28969 -8.94963
114 1 1.57242 4.71726 7.86211 -8.94963
115 1 3.14484 3.14484 6.28969 -8.94965
116 1 4.71727 4.71728 7.86211 -8.9498
117 1 6.28968 3.14483 6.28968 -8.94962
118 1 7.86197 4.71694 7.86197 -8.95024
119 1 9.43453 3.14484 6.28969 -8.94964
120 1 11.0071 4.71709 7.86198 -8.94907
121 1 12.5794 3.14483 6.28968 -8.94965
122 1 14.1518 4.71726 7.86211 -8.94972
123 1 15.7242 3.14484 6.28969 -8.94964
124 1 17.2966 4.71727 7.86211 -8.94965
125 1 18.8691 3.14484 6.28969 -8.94963
126 1 20.4415 4.71726 7.86211 -8.94963
127 1 -2.41504e-07 6.28969 6.28969 -8.94964
128 1 1.57242 7.86211 7.86211 -8.94971
129 1 3.14483 6.28968 6.28968 -8.94966
130 1 4.71699 7.86204 7.86203 -8.95059
131 1 6.28938 6.28938 6.28937 -8.94683
132 1 7.85609 7.85643 7.85619 -8.90146
133 1 9.4346 6.28964 6.28973 -8.95135
134 1 11.009 7.86077 7.85984 -8.9352
135 1 12.5795 6.28939 6.28958 -8.95038
136 1 14.1521 7.86192 7.86201 -8.94901
137 1 15.7242 6.28969 6.28968 -8.94973
138 1 17.2967 7.8621 7.8621 -8.94964
139 1 18.8691 6.28969 6.28969 -8.94963
140 1 20.4415 7.86211 7.86211 -8.94964
141 1 22.0139 9.43453 6.28969 -8.94963
142 1 3.14483 9.43453 6.28968 -8.94967
143 1 6.2894 9.43441 6.28949 -8.94872
144 1 9.43255 9.43226 6.28833 -8.93492
145 1 12.5854 9.42857 6.28395 -8.901
146 1 15.7245 9.43445 6.28961 -8.95066
147 1 18.8691 9.43453 6.28968 -8.94969
148 1 2.97107e-09 5.55429e-16 9.43453 -8.94963
149 1 3.14484 -1.30152e-16 9.43453 -8.94963
150 1 6.28969 -3.80561e-16 9.43453 -8.94963
151 1 9.43453 7.18401e-17 9.43453 -8.94975
152 1 12.5794 3.86851e-17 9.43453 -8.94963
153 1 15.7242 1.13459e-15 9.43453 -8.94963
154 1 18.8691 3.52006e-16 9.43453 -8.94963
155 1 3.99683e-08 3.14484 9.43453 -8.94963
156 1 3.14484 3.14484 9.43453 -8.94964
157 1 6.28968 3.14484 9.43453 -8.94961
158 1 9.43453 3.14462 9.43453 -8.95102
159 1 12.5794 3.14484 9.43453 -8.94966
177 1 4.71726 1.57242 11.007 -8.94964
181 1 17.2966 1.57242 11.007 -8.94963
184 1 4.71727 4.71726 11.0069 -8.94984
11 1 15.7242 6.42012e-16 2.7865e-09 -8.94963
25 1 15.7242 3.14484 2.41409e-08 -8.94963
41 1 18.8691 6.28969 2.86537e-08 -8.94963
44 1 3.14484 9.43453 -2.04872e-07 -8.94963
176 1 1.57242 1.57242 11.007 -8.94963
343 1 18.8691 9.43453 18.8691 -8.94963
178 1 7.8621 1.57241 11.007 -8.94969
179 1 11.007 1.57241 11.007 -8.94964
180 1 14.1518 1.57242 11.007 -8.94964
342 1 15.7242 9.43453 18.8691 -8.94964
182 1 20.4415 1.57242 11.007 -8.94963
341 1 12.5794 9.43452 18.8691 -8.94973
340 1 9.43456 9.43449 18.8691 -8.94932
185 1 7.86194 4.7169 11.0071 -8.94991
186 1 11.0071 4.71708 11.007 -8.94868
187 1 14.1518 4.71726 11.007 -8.94975
339 1 6.28965 9.4345 18.8691 -8.94929
338 1 3.14484 9.43453 18.8691 -8.94966
337 1 22.0139 9.43453 18.8691 -8.94963
336 1 20.4415 7.86211 20.4415 -8.94963
192 1 7.85559 7.85643 11.0128 -8.9555
193 1 11.0091 7.86105 11.0085 -8.97273
194 1 14.152 7.86197 11.0071 -8.94946
195 1 17.2966 7.8621 11.007 -8.94964
196 1 20.4415 7.86211 11.007 -8.94964
197 1 22.0139 2.04119e-16 12.5794 -8.94963
198 1 1.57242 1.57242 14.1518 -8.94963
199 1 3.14484 1.50512e-16 12.5794 -8.94963
200 1 4.71726 1.57242 14.1518 -8.94963
201 1 6.28969 -4.31928e-16 12.5794 -8.94964
202 1 7.86211 1.57242 14.1518 -8.94963
203 1 9.43453 -3.93922e-16 12.5794 -8.94966
204 1 11.007 1.57242 14.1518 -8.94963
205 1 12.5794 -2.41381e-17 12.5794 -8.94963
206 1 14.1518 1.57242 14.1518 -8.94963
207 1 15.7242 7.66011e-16 12.5794 -8.94963
208 1 17.2966 1.57242 14.1518 -8.94963
209 1 18.8691 7.48323e-16 12.5794 -8.94963
210 1 20.4415 1.57242 14.1518 -8.94963
211 1 22.0139 3.14484 12.5794 -8.94963
212 1 1.57242 4.71726 14.1518 -8.94964
213 1 3.14484 3.14484 12.5794 -8.94964
214 1 4.71725 4.71724 14.1518 -8.94953
215 1 6.28968 3.14482 12.5794 -8.94967
216 1 7.86208 4.71724 14.1518 -8.94951
217 1 9.43453 3.14479 12.5794 -8.9501
218 1 11.007 4.71726 14.1518 -8.94929
219 1 12.5794 3.14484 12.5794 -8.94963
220 1 14.1518 4.71725 14.1518 -8.94967
221 1 15.7242 3.14484 12.5794 -8.94963
222 1 17.2966 4.71726 14.1518 -8.94964
223 1 18.8691 3.14484 12.5794 -8.94963
224 1 20.4415 4.71726 14.1518 -8.94963
225 1 22.0139 6.28969 12.5794 -8.94963
226 1 1.57241 7.8621 14.1518 -8.94965
227 1 3.14483 6.28969 12.5794 -8.94968
228 1 4.71706 7.86191 14.152 -8.94877
229 1 6.28936 6.28923 12.5797 -8.94777
230 1 7.86149 7.86206 14.1522 -9.00482
231 1 9.43455 6.288 12.5793 -8.95897
232 1 11.0071 7.86241 14.1525 -8.98885
233 1 12.5794 6.28952 12.5795 -8.95112
234 1 14.1521 7.86184 14.1521 -8.94715
235 1 15.7242 6.28968 12.5794 -8.94969
236 1 17.2966 7.8621 14.1518 -8.94964
237 1 18.8691 6.28969 12.5794 -8.94963
238 1 20.4415 7.86211 14.1518 -8.94964
239 1 22.0139 9.43453 12.5794 -8.9497
240 1 3.14464 9.43453 12.5794 -8.95084
241 1 6.28527 9.4315 12.5795 -8.98408
242 1 9.44721 9.40317 12.5806 -9.2194
243 1 12.5845 9.4293 12.5852 -8.94928
244 1 15.7245 9.43444 12.5794 -8.95033
245 1 18.8691 9.43453 12.5794 -8.94968
246 1 4.18309e-09 -5.15183e-16 15.7242 -8.94963
247 1 1.57242 1.57242 17.2966 -8.94963
248 1 3.14484 9.99581e-17 15.7242 -8.94963
249 1 4.71726 1.57242 17.2966 -8.94963
250 1 6.28969 7.60995e-16 15.7242 -8.94963
251 1 7.86211 1.57242 17.2966 -8.94963
252 1 9.43453 1.11251e-15 15.7242 -8.94963
253 1 11.007 1.57242 17.2966 -8.94963
254 1 12.5794 5.17871e-16 15.7242 -8.94963
255 1 14.1518 1.57242 17.2966 -8.94963
256 1 15.7242 1.14572e-16 15.7242 -8.94963
257 1 17.2966 1.57242 17.2966 -8.94963
258 1 18.8691 -1.41634e-16 15.7242 -8.94963
259 1 20.4415 1.57242 17.2966 -8.94963
260 1 1.46365e-08 3.14484 15.7242 -8.94963
261 1 1.57242 4.71726 17.2966 -8.94963
262 1 3.14484 3.14484 15.7242 -8.94963
263 1 4.71726 4.71727 17.2966 -8.94963
264 1 6.28969 3.14484 15.7242 -8.94964
265 1 7.86211 4.71727 17.2966 -8.94964
266 1 9.43453 3.14485 15.7242 -8.94964
267 1 11.0069 4.71726 17.2966 -8.94966
268 1 12.5794 3.14484 15.7242 -8.94962
269 1 14.1518 4.71727 17.2966 -8.94965
270 1 15.7242 3.14484 15.7242 -8.94963
271 1 17.2966 4.71726 17.2966 -8.94963
272 1 18.8691 3.14484 15.7242 -8.94963
273 1 20.4415 4.71726 17.2966 -8.94963
274 1 22.0139 6.28969 15.7242 -8.94963
275 1 1.57243 7.86211 17.2966 -8.94966
276 1 3.14483 6.28968 15.7242 -8.94956
277 1 4.71727 7.86211 17.2966 -8.94958
278 1 6.28967 6.28966 15.7242 -8.94974
279 1 7.86211 7.86215 17.2966 -8.95018
280 1 9.43452 6.28972 15.7242 -8.95018
281 1 11.007 7.86211 17.2967 -8.94975
282 1 12.5794 6.2897 15.7242 -8.94978
283 1 14.1518 7.86209 17.2967 -8.94954
284 1 15.7242 6.28968 15.7242 -8.94952
285 1 17.2966 7.86211 17.2966 -8.94964
286 1 18.8691 6.28969 15.7242 -8.94963
287 1 20.4415 7.86211 17.2966 -8.94963
288 1 2.92903e-06 9.43453 15.7242 -8.94963
289 1 3.14489 9.43457 15.7242 -8.94997
290 1 6.28949 9.43387 15.724 -8.98732
291 1 9.43491 9.43431 15.7243 -9.00346
292 1 12.5797 9.43423 15.7247 -8.94921
293 1 15.7242 9.43453 15.7242 -8.94982
294 1 18.8691 9.43453 15.7242 -8.94963
295 1 22.0139 -1.32819e-16 18.8691 -8.94963
296 1 1.57242 1.57242 20.4415 -8.94963
297 1 3.14484 -2.36206e-16 18.8691 -8.94963
298 1 4.71726 1.57242 20.4415 -8.94963
299 1 6.28969 6.0757e-16 18.8691 -8.94963
300 1 7.86211 1.57242 20.4415 -8.94963
301 1 9.43453 1.02407e-15 18.8691 -8.94963
302 1 11.007 1.57242 20.4415 -8.94963
303 1 12.5794 1.08066e-15 18.8691 -8.94963
304 1 14.1518 1.57242 20.4415 -8.94963
305 1 15.7242 7.25874e-18 18.8691 -8.94963
306 1 17.2966 1.57242 20.4415 -8.94963
307 1 18.8691 4.18442e-16 18.8691 -8.94963
308 1 20.4415 1.57242 20.4415 -8.94963
309 1 22.0139 3.14484 18.8691 -8.94963
310 1 1.57242 4.71726 20.4415 -8.94963
311 1 3.14484 3.14484 18.8691 -8.94963
312 1 4.71726 4.71726 20.4415 -8.94963
313 1 6.28969 3.14484 18.8691 -8.94963
314 1 7.86211 4.71726 20.4415 -8.94963
315 1 9.43453 3.14484 18.8691 -8.94963
316 1 11.007 4.71726 20.4415 -8.94963
317 1 12.5794 3.14484 18.8691 -8.94963
318 1 14.1518 4.71726 20.4415 -8.94963
319 1 15.7242 3.14484 18.8691 -8.94963
320 1 17.2966 4.71726 20.4415 -8.94963
321 1 18.8691 3.14484 18.8691 -8.94963
322 1 20.4415 4.71726 20.4415 -8.94963
323 1 1.89119e-07 6.28969 18.8691 -8.94963
324 1 1.57242 7.86211 20.4415 -8.94963
325 1 3.14484 6.28969 18.8691 -8.94964
326 1 4.71726 7.86211 20.4415 -8.94962
327 1 6.28969 6.28969 18.8691 -8.94966
328 1 7.86211 7.86211 20.4415 -8.94964
329 1 9.43453 6.28969 18.8691 -8.94964
330 1 11.007 7.86211 20.4415 -8.94962
331 1 12.5794 6.28969 18.8691 -8.94963
332 1 14.1518 7.86211 20.4415 -8.94964
333 1 15.7242 6.28969 18.8691 -8.94962
334 1 17.2966 7.86211 20.4415 -8.94963
335 1 18.8691 6.28969 18.8691 -8.94963
5 1 6.28969 5.92858e-16 22.0139 -8.94963
9 1 12.5794 4.47062e-16 22.0139 -8.94963
47 1 12.5794 9.43453 22.0139 -8.94969
15 1 2.21862e-09 3.14484 22.0139 -8.94963
19 1 6.28969 3.14484 22.0139 -8.94963
21 1 9.43453 3.14484 22.0139 -8.94963
46 1 9.43453 9.43452 22.0139 -8.94964
27 1 18.8691 3.14484 22.0139 -8.94963
31 1 3.14484 6.28969 22.0139 -8.94963
39 1 15.7242 6.28969 22.0139 -8.94963
45 1 6.28969 9.43453 22.0139 -8.94963
43 1 -1.0647e-08 9.43453 22.0139 -8.94963
1 1 -1.06654e-10 2.93935e-16 22.0139 -8.94963
13 1 18.8691 6.24739e-16 22.0139 -8.94963
23 1 12.5794 3.14484 22.0139 -8.94963
49 1 18.8691 9.43453 22.0139 -8.94963
183 1 1.57242 4.71727 11.007 -8.94964
344 1 1.57242 11.007 1.57242 -8.94963
345 1 4.71726 11.007 1.57242 -8.94962
346 1 7.86211 11.007 1.57242 -8.94971
347 1 11.0069 11.007 1.5722 -8.95101
348 1 14.1518 11.007 1.57242 -8.94962
349 1 17.2966 11.007 1.57242 -8.94964
350 1 20.4415 11.007 1.57242 -8.94963
688 3 10.2204 11.007 9.43465 3.14569
352 1 1.57242 14.1518 1.57242 -8.94963
511 1 18.8691 18.8691 9.43453 -8.94963
354 1 4.71726 14.1518 1.57242 -8.94964
510 1 15.7242 18.8691 9.43453 -8.94963
356 1 7.8621 14.1518 1.57241 -8.94965
509 1 12.5794 18.8691 9.43453 -8.94966
358 1 11.0069 14.1518 1.57242 -8.94964
508 1 9.43453 18.8693 9.43453 -8.95102
360 1 14.1518 14.1518 1.5724 -8.94962
361 1 15.7242 12.5794 5.84217e-07 -8.94963
362 1 17.2966 14.1518 1.57242 -8.94965
538 1 17.2966 20.4415 11.007 -8.94963
364 1 20.4415 14.1518 1.57242 -8.94963
365 1 22.0139 15.7242 1.70455e-11 -8.94963
366 1 1.57242 17.2966 1.57242 -8.94963
507 1 6.28968 18.8691 9.43453 -8.94961
368 1 4.71726 17.2966 1.57242 -8.94963
369 1 6.28969 15.7242 -7.41244e-07 -8.94963
370 1 7.86211 17.2966 1.57242 -8.94964
371 1 9.43453 15.7242 2.00033e-07 -8.94964
372 1 11.007 17.2966 1.57242 -8.94963
373 1 12.5794 15.7242 6.91102e-07 -8.94963
374 1 14.1518 17.2966 1.57242 -8.94965
506 1 3.14484 18.8691 9.43453 -8.94964
376 1 17.2966 17.2966 1.57242 -8.94963
505 1 3.99683e-08 18.8691 9.43453 -8.94963
378 1 20.4415 17.2966 1.57242 -8.94963
504 1 18.8691 15.7242 9.43453 -8.94963
380 1 1.57242 20.4415 1.57242 -8.94963
381 1 3.14484 18.8691 -1.4515e-08 -8.94963
382 1 4.71726 20.4415 1.57242 -8.94963
503 1 15.7242 15.7242 9.43453 -8.94965
384 1 7.86211 20.4415 1.57242 -8.94963
502 1 12.5793 15.7243 9.43453 -8.95116
386 1 11.007 20.4415 1.57242 -8.94963
534 1 4.71726 20.4415 11.007 -8.94964
388 1 14.1518 20.4415 1.57242 -8.94963
501 1 9.43438 15.7295 9.43458 -8.97364
390 1 17.2966 20.4415 1.57242 -8.94963
500 1 6.28964 15.7243 9.43453 -8.95148
392 1 20.4415 20.4415 1.57242 -8.94963
393 1 1.57242 11.007 4.71726 -8.94963
394 1 4.71728 11.007 4.71728 -8.94961
395 1 7.86218 11.007 4.71713 -8.95166
396 1 11.0071 11.007 4.71197 -8.97314
397 1 14.1518 11.007 4.7172 -8.95138
398 1 17.2966 11.007 4.71726 -8.94961
399 1 20.4415 11.007 4.71726 -8.94963
400 1 3.15808e-08 12.5794 3.14484 -8.94963
401 1 1.57242 14.1518 4.71726 -8.94963
402 1 3.14484 12.5794 3.14484 -8.94965
403 1 4.71726 14.1518 4.71726 -8.94972
404 1 6.28968 12.5794 3.14484 -8.94971
405 1 7.862 14.1519 4.71697 -8.95039
406 1 9.43441 12.5795 3.14466 -8.94903
407 1 11.0069 14.1518 4.71721 -8.95133
408 1 12.5795 12.5795 3.14451 -8.95023
409 1 14.1521 14.1521 4.71695 -8.9468
410 1 15.7242 12.5794 3.14485 -8.9498
411 1 17.2967 14.1518 4.71726 -8.94965
412 1 18.8691 12.5794 3.14484 -8.94963
413 1 20.4415 14.1518 4.71726 -8.94963
414 1 22.0139 15.7242 3.14484 -8.94963
415 1 1.57242 17.2966 4.71726 -8.94963
416 1 3.14484 15.7242 3.14484 -8.94964
417 1 4.71725 17.2966 4.71725 -8.94949
418 1 6.28968 15.7242 3.14483 -8.94964
419 1 7.86211 17.2966 4.71727 -8.94983
420 1 9.43453 15.7242 3.14485 -8.94965
421 1 11.0069 17.2966 4.71726 -8.94965
422 1 12.5794 15.7242 3.14485 -8.94983
423 1 14.1518 17.2967 4.71726 -8.94964
424 1 15.7242 15.7242 3.14483 -8.94949
425 1 17.2966 17.2966 4.71726 -8.94964
426 1 18.8691 15.7242 3.14484 -8.94963
427 1 20.4415 17.2966 4.71726 -8.94963
428 1 22.0139 18.8691 3.14484 -8.94963
429 1 1.57242 20.4415 4.71726 -8.94963
430 1 3.14484 18.8691 3.14484 -8.94963
431 1 4.71726 20.4415 4.71726 -8.94963
432 1 6.28969 18.8691 3.14484 -8.94965
433 1 7.86211 20.4415 4.71726 -8.94963
434 1 9.43453 18.8691 3.14484 -8.94963
435 1 11.007 20.4415 4.71726 -8.94963
436 1 12.5794 18.8691 3.14484 -8.94964
437 1 14.1518 20.4415 4.71726 -8.94963
438 1 15.7242 18.8691 3.14484 -8.94963
439 1 17.2966 20.4415 4.71726 -8.94963
440 1 18.8691 18.8691 3.14484 -8.94963
441 1 20.4415 20.4415 4.71726 -8.94963
442 1 1.57241 11.007 7.8621 -8.94964
443 1 4.71708 11.007 7.86212 -8.95028
444 1 7.85888 11.007 7.85739 -8.9169
445 1 11.0674 11.007 7.7319 -8.02501
446 1 14.1551 11.007 7.86165 -8.96246
447 1 17.2968 11.007 7.86211 -8.95044
448 1 20.4415 11.007 7.86211 -8.94967
449 1 22.0139 12.5794 6.28969 -8.94963
450 1 1.57242 14.1518 7.86211 -8.94971
451 1 3.14483 12.5794 6.28968 -8.94967
452 1 4.71699 14.1519 7.86203 -8.95059
453 1 6.2894 12.5795 6.28949 -8.94872
454 1 7.85609 14.1575 7.85619 -8.90146
455 1 9.43255 12.5816 6.28833 -8.93492
456 1 11.009 14.1531 7.85984 -8.9352
457 1 12.5854 12.5853 6.28395 -8.901
458 1 14.1521 14.152 7.86201 -8.94901
459 1 15.7245 12.5795 6.28961 -8.95066
460 1 17.2967 14.1518 7.8621 -8.94964
461 1 18.8691 12.5794 6.28968 -8.94969
462 1 20.4415 14.1518 7.86211 -8.94964
463 1 -2.41504e-07 15.7242 6.28969 -8.94964
464 1 1.57242 17.2966 7.86211 -8.94963
465 1 3.14483 15.7242 6.28968 -8.94966
466 1 4.71727 17.2966 7.86211 -8.9498
467 1 6.28938 15.7245 6.28937 -8.94683
468 1 7.86197 17.297 7.86197 -8.95024
469 1 9.4346 15.7243 6.28973 -8.95135
470 1 11.0071 17.2968 7.86198 -8.94907
471 1 12.5795 15.7245 6.28958 -8.95038
472 1 14.1518 17.2966 7.86211 -8.94972
473 1 15.7242 15.7242 6.28968 -8.94973
474 1 17.2966 17.2966 7.86211 -8.94965
475 1 18.8691 15.7242 6.28969 -8.94963
476 1 20.4415 17.2966 7.86211 -8.94963
477 1 22.0139 18.8691 6.28969 -8.94963
478 1 1.57242 20.4415 7.86211 -8.94963
479 1 3.14484 18.8691 6.28969 -8.94965
480 1 4.71726 20.4415 7.86211 -8.94963
481 1 6.28968 18.8691 6.28968 -8.94962
482 1 7.8621 20.4415 7.8621 -8.94969
483 1 9.43453 18.8691 6.28969 -8.94964
484 1 11.007 20.4415 7.8621 -8.94965
485 1 12.5794 18.8691 6.28968 -8.94965
486 1 14.1518 20.4415 7.86211 -8.94964
487 1 15.7242 18.8691 6.28969 -8.94964
488 1 17.2966 20.4415 7.86211 -8.94963
489 1 18.8691 18.8691 6.28969 -8.94963
490 1 20.4415 20.4415 7.86211 -8.94963
491 1 -5.17345e-07 12.5794 9.43453 -8.94966
492 1 3.14476 12.5793 9.43458 -8.95076
493 1 6.2862 12.5805 9.4348 -9.00016
494 1 9.37455 12.7097 9.43449 -8.07605
495 1 12.5828 12.5826 9.43436 -8.9085
496 1 15.7245 12.5795 9.43452 -8.94956
497 1 18.8691 12.5794 9.43453 -8.94968
498 1 22.0139 15.7242 9.43453 -8.94963
499 1 3.14483 15.7242 9.43452 -8.94952
512 1 1.57244 11.007 11.0069 -8.94938
514 1 7.84412 11.007 10.9808 -9.19823
519 1 1.5724 14.1518 11.0069 -8.94971
520 1 4.71678 14.1521 11.0069 -8.94969
532 1 20.4415 17.2966 11.007 -8.94963
527 1 4.71727 17.2966 11.0069 -8.94984
531 1 17.2966 17.2966 11.007 -8.94964
518 1 20.4415 11.007 11.007 -8.94966
353 1 3.14484 12.5794 -2.04872e-07 -8.94963
389 1 15.7242 18.8691 2.41409e-08 -8.94963
377 1 18.8691 15.7242 2.86537e-08 -8.94963
687 2 8.64843 11.007 12.5792 0.96087
513 1 4.7178 11.007 11.0078 -8.99858
686 1 20.4415 20.4415 20.4415 -8.94963
515 1 11.0718 11.007 11.1341 -8.05422
516 1 14.1554 11.007 11.0074 -8.96328
517 1 17.2968 11.007 11.007 -8.95052
391 1 18.8691 18.8691 22.0139 -8.94963
685 1 18.8691 18.8691 18.8691 -8.94963
684 1 17.2966 20.4415 20.4415 -8.94963
521 1 7.85559 14.1575 11.0128 -8.9555
522 1 11.0091 14.1528 11.0085 -8.97273
523 1 14.152 14.1519 11.0071 -8.94946
524 1 17.2966 14.1518 11.007 -8.94964
525 1 20.4415 14.1518 11.007 -8.94964
683 1 15.7242 18.8691 18.8691 -8.94963
682 1 14.1518 20.4415 20.4415 -8.94963
528 1 7.86194 17.297 11.0071 -8.94991
529 1 11.0071 17.2968 11.007 -8.94868
530 1 14.1518 17.2966 11.007 -8.94975
681 1 12.5794 18.8691 18.8691 -8.94963
680 1 11.007 20.4415 20.4415 -8.94963
533 1 1.57242 20.4415 11.007 -8.94963
679 1 9.43453 18.8691 18.8691 -8.94963
535 1 7.8621 20.4415 11.007 -8.94969
536 1 11.007 20.4415 11.007 -8.94964
537 1 14.1518 20.4415 11.007 -8.94964
678 1 7.86211 20.4415 20.4415 -8.94963
539 1 20.4415 20.4415 11.007 -8.94963
540 1 1.57246 11.007 14.1518 -8.94933
541 1 4.71812 11.007 14.151 -8.9987
542 1 7.84762 11.007 14.181 -9.23495
543 1 11.0113 11.007 14.1603 -9.00878
544 1 14.152 11.007 14.1519 -8.95261
545 1 17.2966 11.007 14.1518 -8.94968
546 1 20.4415 11.007 14.1518 -8.94962
547 1 22.0139 12.5794 12.5794 -8.9497
548 1 1.57241 14.1518 14.1518 -8.94965
549 1 3.14464 12.5794 12.5794 -8.95084
550 1 4.71706 14.152 14.152 -8.94877
551 1 6.28527 12.5824 12.5795 -8.98408
552 1 7.86149 14.1518 14.1522 -9.00482
553 1 9.44721 12.6107 12.5806 -9.2194
554 1 11.0071 14.1515 14.1525 -8.98885
555 1 12.5845 12.5846 12.5852 -8.94928
556 1 14.1521 14.1521 14.1521 -8.94715
557 1 15.7245 12.5795 12.5794 -8.95033
558 1 17.2966 14.1518 14.1518 -8.94964
559 1 18.8691 12.5794 12.5794 -8.94968
560 1 20.4415 14.1518 14.1518 -8.94964
561 1 22.0139 15.7242 12.5794 -8.94963
562 1 1.57242 17.2966 14.1518 -8.94964
563 1 3.14483 15.7242 12.5794 -8.94968
564 1 4.71725 17.2967 14.1518 -8.94953
565 1 6.28936 15.7247 12.5797 -8.94777
566 1 7.86208 17.2967 14.1518 -8.94951
567 1 9.43455 15.7259 12.5793 -8.95897
568 1 11.007 17.2966 14.1518 -8.94929
569 1 12.5794 15.7244 12.5795 -8.95112
570 1 14.1518 17.2966 14.1518 -8.94967
571 1 15.7242 15.7242 12.5794 -8.94969
572 1 17.2966 17.2966 14.1518 -8.94964
573 1 18.8691 15.7242 12.5794 -8.94963
574 1 20.4415 17.2966 14.1518 -8.94963
575 1 22.0139 18.8691 12.5794 -8.94963
576 1 1.57242 20.4415 14.1518 -8.94963
577 1 3.14484 18.8691 12.5794 -8.94964
578 1 4.71726 20.4415 14.1518 -8.94963
579 1 6.28968 18.8691 12.5794 -8.94967
580 1 7.86211 20.4415 14.1518 -8.94963
581 1 9.43453 18.8691 12.5794 -8.9501
582 1 11.007 20.4415 14.1518 -8.94963
583 1 12.5794 18.8691 12.5794 -8.94963
584 1 14.1518 20.4415 14.1518 -8.94963
585 1 15.7242 18.8691 12.5794 -8.94963
586 1 17.2966 20.4415 14.1518 -8.94963
587 1 18.8691 18.8691 12.5794 -8.94963
588 1 20.4415 20.4415 14.1518 -8.94963
589 1 1.57242 11.007 17.2966 -8.9496
590 1 4.71737 11.007 17.2965 -8.95034
591 1 7.86216 11.007 17.2983 -8.95742
592 1 11.007 11.007 17.297 -8.95202
593 1 14.1518 11.007 17.2966 -8.94966
594 1 17.2966 11.007 17.2966 -8.94963
595 1 20.4415 11.007 17.2966 -8.94963
596 1 2.92903e-06 12.5794 15.7242 -8.94963
597 1 1.57243 14.1518 17.2966 -8.94966
598 1 3.14489 12.5793 15.7242 -8.94997
599 1 4.71727 14.1518 17.2966 -8.94958
600 1 6.28949 12.58 15.724 -8.98732
601 1 7.86211 14.1518 17.2966 -8.95018
602 1 9.43491 12.5796 15.7243 -9.00346
603 1 11.007 14.1518 17.2967 -8.94975
604 1 12.5797 12.5797 15.7247 -8.94921
605 1 14.1518 14.1518 17.2967 -8.94954
606 1 15.7242 12.5794 15.7242 -8.94982
607 1 17.2966 14.1518 17.2966 -8.94964
608 1 18.8691 12.5794 15.7242 -8.94963
609 1 20.4415 14.1518 17.2966 -8.94963
610 1 22.0139 15.7242 15.7242 -8.94963
611 1 1.57242 17.2966 17.2966 -8.94963
612 1 3.14483 15.7242 15.7242 -8.94956
613 1 4.71726 17.2966 17.2966 -8.94963
614 1 6.28967 15.7242 15.7242 -8.94974
615 1 7.86211 17.2966 17.2966 -8.94964
616 1 9.43452 15.7242 15.7242 -8.95018
617 1 11.0069 17.2966 17.2966 -8.94966
618 1 12.5794 15.7242 15.7242 -8.94978
619 1 14.1518 17.2966 17.2966 -8.94965
620 1 15.7242 15.7242 15.7242 -8.94952
621 1 17.2966 17.2966 17.2966 -8.94963
622 1 18.8691 15.7242 15.7242 -8.94963
623 1 20.4415 17.2966 17.2966 -8.94963
624 1 1.46365e-08 18.8691 15.7242 -8.94963
625 1 1.57242 20.4415 17.2966 -8.94963
626 1 3.14484 18.8691 15.7242 -8.94963
627 1 4.71726 20.4415 17.2966 -8.94963
628 1 6.28969 18.8691 15.7242 -8.94964
629 1 7.86211 20.4415 17.2966 -8.94963
630 1 9.43453 18.8691 15.7242 -8.94964
631 1 11.007 20.4415 17.2966 -8.94963
632 1 12.5794 18.8691 15.7242 -8.94962
633 1 14.1518 20.4415 17.2966 -8.94963
634 1 15.7242 18.8691 15.7242 -8.94963
635 1 17.2966 20.4415 17.2966 -8.94963
636 1 18.8691 18.8691 15.7242 -8.94963
637 1 20.4415 20.4415 17.2966 -8.94963
638 1 1.57242 11.007 20.4415 -8.94963
639 1 4.71727 11.007 20.4415 -8.94962
640 1 7.86211 11.007 20.4415 -8.95009
641 1 11.0069 11.007 20.4415 -8.9498
642 1 14.1518 11.007 20.4415 -8.94963
643 1 17.2966 11.007 20.4415 -8.94963
644 1 20.4415 11.007 20.4415 -8.94963
645 1 22.0139 12.5794 18.8691 -8.94963
646 1 1.57242 14.1518 20.4415 -8.94963
647 1 3.14484 12.5794 18.8691 -8.94966
648 1 4.71726 14.1518 20.4415 -8.94962
649 1 6.28965 12.5794 18.8691 -8.94929
650 1 7.86211 14.1518 20.4415 -8.94964
651 1 9.43456 12.5794 18.8691 -8.94932
652 1 11.007 14.1518 20.4415 -8.94962
653 1 12.5794 12.5794 18.8691 -8.94973
654 1 14.1518 14.1518 20.4415 -8.94964
655 1 15.7242 12.5794 18.8691 -8.94964
656 1 17.2966 14.1518 20.4415 -8.94963
657 1 18.8691 12.5794 18.8691 -8.94963
658 1 20.4415 14.1518 20.4415 -8.94963
659 1 1.89119e-07 15.7242 18.8691 -8.94963
660 1 1.57242 17.2966 20.4415 -8.94963
661 1 3.14484 15.7242 18.8691 -8.94964
662 1 4.71726 17.2966 20.4415 -8.94963
663 1 6.28969 15.7242 18.8691 -8.94966
664 1 7.86211 17.2966 20.4415 -8.94963
665 1 9.43453 15.7242 18.8691 -8.94964
666 1 11.007 17.2966 20.4415 -8.94963
667 1 12.5794 15.7242 18.8691 -8.94963
668 1 14.1518 17.2966 20.4415 -8.94963
669 1 15.7242 15.7242 18.8691 -8.94962
670 1 17.2966 17.2966 20.4415 -8.94963
671 1 18.8691 15.7242 18.8691 -8.94963
672 1 20.4415 17.2966 20.4415 -8.94963
673 1 22.0139 18.8691 18.8691 -8.94963
674 1 1.57242 20.4415 20.4415 -8.94963
675 1 3.14484 18.8691 18.8691 -8.94963
676 1 4.71726 20.4415 20.4415 -8.94963
677 1 6.28969 18.8691 18.8691 -8.94963
351 1 -1.0647e-08 12.5794 22.0139 -8.94963
385 1 9.43453 18.8691 22.0139 -8.94963
355 1 6.28969 12.5794 22.0139 -8.94963
357 1 9.43453 12.5794 22.0139 -8.94964
359 1 12.5794 12.5794 22.0139 -8.94969
367 1 3.14484 15.7242 22.0139 -8.94963
375 1 15.7242 15.7242 22.0139 -8.94963
383 1 6.28969 18.8691 22.0139 -8.94963
379 1 2.21862e-09 18.8691 22.0139 -8.94963
363 1 18.8691 12.5794 22.0139 -8.94963
387 1 12.5794 18.8691 22.0139 -8.94963
526 1 1.57242 17.2966 11.007 -8.94964
