ITEM: TIMESTEP
99
ITEM: NUMBER OF ATOMS
688
ITEM: BOX BOUNDS pp pp pp
0.0000000000000000e+00 2.2013900999999997e+01
0.0000000000000000e+00 2.2013900999999997e+01
0.0000000000000000e+00 2.2013900999999997e+01
ITEM: ATOMS id type x y z c_pot
191 1 4.70525 7.8564 11.0088 -8.95697
2 1 1.57176 1.57204 1.57184 -8.94916
3 1 3.14446 1.31394e-15 -0.000245026 -8.9496
4 1 4.71673 1.57191 1.57171 -8.94962
175 1 18.8693 9.4343 9.43455 -8.94769
6 1 7.86193 1.5719 1.57176 -8.94946
7 1 9.43451 1.1459e-15 -0.000231325 -8.94954
8 1 11.0071 1.57188 1.5718 -8.9495
174 1 15.7216 9.43528 9.43458 -8.94005
10 1 14.1522 1.57186 1.57189 -8.94949
173 1 12.5568 9.44437 9.43402 -8.90376
12 1 17.2973 1.57183 1.57191 -8.94944
190 1 1.56933 7.86147 11.0072 -8.95206
14 1 20.4415 1.57214 1.57218 -8.94954
172 1 9.35952 9.19803 9.43155 -8.17318
16 1 1.57182 4.7168 1.5718 -8.94979
17 1 3.14417 3.14421 -0.000477919 -8.9495
18 1 4.71582 4.71591 1.57055 -8.94945
171 1 6.2785 9.42162 9.43045 -9.00446
20 1 7.86157 4.71593 1.5709 -8.94914
170 1 3.14203 9.43487 9.43453 -8.95262
22 1 11.0071 4.71579 1.57098 -8.94936
189 1 20.4412 4.71655 11.0071 -8.94956
24 1 14.1528 4.71561 1.57093 -8.94961
169 1 -0.000783108 9.43463 9.43451 -8.94945
26 1 17.2983 4.71564 1.57112 -8.94821
168 1 18.8696 6.28885 9.43453 -8.94966
28 1 20.4419 4.71671 1.57194 -8.94956
29 1 22.0139 6.28947 -0.000191868 -8.94953
30 1 1.57205 7.86198 1.57192 -8.94939
167 1 15.726 6.28805 9.43448 -8.94706
32 1 4.71647 7.86205 1.57165 -8.94971
33 1 6.28899 6.28902 -0.000821775 -8.95067
34 1 7.86163 7.8615 1.57018 -8.95251
35 1 9.43423 6.28861 -0.000788013 -8.94961
36 1 11.0071 7.86066 1.56959 -8.95068
37 1 12.5798 6.2885 -0.000879249 -8.9497
38 1 14.154 7.86022 1.56861 -8.95154
166 1 12.5792 6.29004 9.43263 -8.94229
40 1 17.2985 7.86112 1.57094 -8.94917
165 1 9.42925 6.29142 9.43357 -9.00395
42 1 20.4421 7.86177 1.57185 -8.94944
164 1 6.27759 6.27725 9.43322 -8.94213
163 1 3.13934 6.28654 9.43414 -8.94868
162 1 22.0124 6.28885 9.43445 -8.95001
161 1 18.8693 3.14426 9.43451 -8.94956
160 1 15.725 3.14399 9.43445 -8.94966
48 1 15.7258 9.43401 -0.00118988 -8.94936
188 1 17.2975 4.71632 11.0069 -8.94899
50 1 -0.000410811 1.59324e-15 3.14452 -8.94951
51 1 1.57152 1.57191 4.71663 -8.94944
52 1 3.14397 1.24903e-15 3.14397 -8.94953
53 1 4.71602 1.57111 4.71595 -8.95001
54 1 6.28932 3.45642e-16 3.144 -8.94959
55 1 7.86188 1.57121 4.71619 -8.9497
56 1 9.4346 1.53372e-15 3.14404 -8.94954
57 1 11.0074 1.57132 4.71631 -8.94964
58 1 12.5798 9.593e-16 3.14418 -8.94952
59 1 14.1525 1.57131 4.71671 -8.95072
60 1 15.7248 1.01799e-15 3.14436 -8.95005
61 1 17.297 1.57202 4.71715 -8.94965
62 1 18.8692 1.38085e-15 3.1447 -8.94966
63 1 20.4413 1.57215 4.71706 -8.9495
64 1 22.0133 3.14428 3.14428 -8.94949
65 1 1.57045 4.71602 4.71594 -8.94953
66 1 3.14315 3.14339 3.14318 -8.94821
67 1 4.71251 4.71272 4.7126 -8.94455
68 1 6.28878 3.14321 3.14324 -8.94963
69 1 7.86056 4.71316 4.71404 -8.94912
70 1 9.43446 3.14326 3.14345 -8.94935
71 1 11.0077 4.71353 4.71428 -8.94775
72 1 12.58 3.1432 3.14359 -8.94915
73 1 14.1552 4.7122 4.71406 -8.94973
74 1 15.7257 3.14287 3.14357 -8.94938
75 1 17.298 4.716 4.7168 -8.95043
76 1 18.8695 3.14418 3.14449 -8.94984
77 1 20.4414 4.71668 4.71691 -8.94988
78 1 22.0138 6.28934 3.14427 -8.94988
79 1 1.57144 7.86207 4.71655 -8.94992
80 1 3.14332 6.28904 3.14344 -8.95035
81 1 4.71429 7.86146 4.71484 -8.95153
82 1 6.28645 6.28655 3.13983 -8.94986
83 1 7.85571 7.85486 4.70599 -8.9531
84 1 9.43399 6.28675 3.14118 -8.94772
85 1 11.0085 7.85626 4.70743 -8.95087
86 1 12.5812 6.28652 3.14076 -8.94915
87 1 14.1653 7.84995 4.70431 -8.93008
88 1 15.7289 6.28525 3.14056 -8.94456
89 1 17.3013 7.85991 4.71501 -8.95087
90 1 18.8708 6.28852 3.14378 -8.94968
91 1 20.4424 7.86168 4.71669 -8.95023
92 1 0.000109284 9.4344 3.14417 -8.94955
93 1 3.14387 9.4345 3.14383 -8.94889
94 1 6.28902 9.43501 3.14359 -8.9492
95 1 9.43548 9.4341 3.14281 -8.9519
96 1 12.583 9.43304 3.13646 -8.95921
97 1 15.7286 9.433 3.1408 -8.94758
98 1 18.871 9.43407 3.14361 -8.94928
99 1 22.0134 1.97813e-15 6.28943 -8.94952
100 1 1.57138 1.57185 7.8618 -8.94948
101 1 3.1437 8.80773e-16 6.289 -8.94934
102 1 4.71559 1.57088 7.86134 -8.94933
103 1 6.28901 1.31691e-15 6.28887 -8.95066
104 1 7.86172 1.57052 7.86165 -8.95139
105 1 9.43479 1.63193e-15 6.28904 -8.95026
106 1 11.0072 1.57167 7.86194 -8.94941
107 1 12.5797 1.81852e-15 6.28946 -8.95041
108 1 14.1525 1.57186 7.86195 -8.94925
109 1 15.7247 1.2902e-15 6.28959 -8.94944
110 1 17.2971 1.57206 7.86205 -8.94956
111 1 18.8692 1.85025e-15 6.28959 -8.94954
112 1 20.4413 1.57212 7.862 -8.94955
113 1 22.0131 3.14418 6.28929 -8.94943
114 1 1.57018 4.71584 7.86148 -8.94921
115 1 3.14282 3.14308 6.28849 -8.94912
116 1 4.71244 4.71252 7.86005 -8.94742
117 1 6.2875 3.14068 6.28758 -8.95157
118 1 7.85861 4.70828 7.86 -8.95919
119 1 9.43468 3.14169 6.28819 -8.95058
120 1 11.0066 4.71498 7.86128 -8.95217
121 1 12.5801 3.1423 6.28899 -8.95261
122 1 14.1529 4.71593 7.86219 -8.94812
123 1 15.725 3.14388 6.28966 -8.94941
124 1 17.2975 4.7163 7.86207 -8.9491
125 1 18.8693 3.14429 6.28957 -8.94943
126 1 20.4412 4.71656 7.86194 -8.94959
127 1 -0.00120067 6.28907 6.28917 -8.95031
128 1 1.56946 7.86159 7.86167 -8.95216
129 1 3.13969 6.28697 6.28695 -8.95039
130 1 4.70542 7.85662 7.85805 -8.95668
131 1 6.27607 6.27629 6.27685 -8.93004
132 1 7.82093 7.82404 7.82719 -8.85369
133 1 9.43363 6.28001 6.28363 -8.9509
134 1 11.0231 7.85261 7.83609 -8.90429
135 1 12.5865 6.27852 6.28187 -8.95297
136 1 14.1555 7.8615 7.86418 -8.95304
137 1 15.7269 6.2879 6.28939 -8.95172
138 1 17.2982 7.86158 7.86276 -8.94986
139 1 18.8698 6.28906 6.28966 -8.94989
140 1 20.4414 7.86179 7.86212 -8.94998
141 1 22.0137 9.43457 6.28929 -8.94987
142 1 3.14311 9.43519 6.2889 -8.94991
143 1 6.28554 9.43583 6.28688 -8.95228
144 1 9.42112 9.40949 6.27999 -8.90383
145 1 12.6203 9.4014 6.25222 -8.85521
146 1 15.7347 9.43204 6.28553 -8.95814
147 1 18.8716 9.43423 6.28923 -8.95178
148 1 -0.00054104 1.38295e-15 9.43449 -8.94953
149 1 3.14359 1.33885e-15 9.43443 -8.94948
150 1 6.2885 1.77826e-15 9.43423 -8.9504
151 1 9.43475 1.85658e-15 9.43424 -8.94847
152 1 12.5801 1.75338e-15 9.43422 -8.94926
153 1 15.7248 1.21493e-15 9.43446 -8.9496
154 1 18.8692 1.71414e-15 9.43451 -8.94957
155 1 -0.000841212 3.14413 9.43448 -8.94951
156 1 3.14263 3.14299 9.43437 -8.94945
157 1 6.28649 3.13994 9.43398 -8.94943
158 1 9.4343 3.14317 9.43407 -8.94615
159 1 12.5802 3.14385 9.43389 -8.94808
177 1 4.71559 1.57087 11.0073 -8.94942
181 1 17.2971 1.57206 11.0069 -8.94954
184 1 4.71241 4.71243 11.0083 -8.94786
11 1 15.7245 1.67871e-15 -0.000180604 -8.94956
25 1 15.7248 3.14403 -0.000372847 -8.94959
41 1 18.8699 6.28912 -0.000396179 -8.94947
44 1 3.14425 9.43446 -0.000181871 -8.94945
176 1 1.57136 1.57185 11.0071 -8.94946
343 1 18.87 9.43431 18.8696 -8.94948
178 1 7.86154 1.57008 11.0068 -8.9516
179 1 11.0074 1.57118 11.0065 -8.94983
180 1 14.1525 1.57192 11.0067 -8.94924
342 1 15.7259 9.43399 18.8706 -8.94936
182 1 20.4413 1.57212 11.007 -8.94955
341 1 12.5802 9.43419 18.8716 -8.95173
340 1 9.43518 9.43365 18.8717 -8.94792
185 1 7.85781 4.70639 11.0072 -8.9577
186 1 11.0077 4.7127 11.0058 -8.95136
187 1 14.1527 4.71623 11.0062 -8.94891
339 1 6.28822 9.43362 18.8717 -8.94871
338 1 3.14413 9.43448 18.8696 -8.94968
337 1 22.0139 9.43445 18.8694 -8.94954
336 1 20.4419 7.86189 20.4415 -8.94953
192 1 7.81883 7.82103 11.0373 -8.90396
193 1 11.027 7.84743 11.025 -8.93426
194 1 14.1552 7.86181 11.005 -8.95562
195 1 17.298 7.86165 11.0064 -8.94999
196 1 20.4413 7.86178 11.0069 -8.94998
197 1 22.0134 1.07913e-15 12.5796 -8.94952
198 1 1.57145 1.57189 14.1524 -8.94944
199 1 3.14366 9.90334e-16 12.5799 -8.94939
200 1 4.71584 1.57096 14.1531 -8.95002
201 1 6.28885 7.93011e-16 12.58 -8.95065
202 1 7.86164 1.57064 14.153 -8.94985
203 1 9.43479 1.155e-15 12.5798 -8.95127
204 1 11.0077 1.57072 14.1529 -8.94996
205 1 12.58 4.32116e-16 12.5794 -8.95032
206 1 14.1527 1.57124 14.1523 -8.95057
207 1 15.7247 1.23131e-15 12.5793 -8.94949
208 1 17.2971 1.57202 14.1518 -8.94971
209 1 18.8692 9.59032e-16 12.5794 -8.94953
210 1 20.4413 1.57215 14.152 -8.94951
211 1 22.0131 3.14417 12.5797 -8.94944
212 1 1.57038 4.71599 14.153 -8.94967
213 1 3.14275 3.14301 12.5803 -8.94911
214 1 4.71215 4.71221 14.1564 -8.94481
215 1 6.28732 3.14011 12.5812 -8.95151
216 1 7.8597 4.71097 14.1557 -8.94762
217 1 9.4347 3.13926 12.5805 -8.95378
218 1 11.0089 4.71101 14.1557 -8.9471
219 1 12.5803 3.14185 12.5797 -8.95211
220 1 14.1554 4.71216 14.1548 -8.94981
221 1 15.7249 3.14394 12.5792 -8.94959
222 1 17.298 4.716 14.1522 -8.95041
223 1 18.8693 3.14429 12.5794 -8.94941
224 1 20.4413 4.71666 14.1521 -8.94986
225 1 22.0126 6.28902 12.5798 -8.95019
226 1 1.5711 7.86189 14.1525 -8.95015
227 1 3.13971 6.2869 12.5816 -8.95035
228 1 4.71312 7.86015 14.1543 -8.95039
229 1 6.27606 6.27476 12.5915 -8.9312
230 1 7.85317 7.85143 14.165 -9.00235
231 1 9.4341 6.26799 12.5843 -8.96498
232 1 11.0126 7.85078 14.1662 -8.98138
233 1 12.5862 6.27805 12.5865 -8.95225
234 1 14.1651 7.8503 14.1643 -8.9329
235 1 15.7268 6.28791 12.5796 -8.95153
236 1 17.3011 7.86003 14.1539 -8.95101
237 1 18.8698 6.28906 12.5793 -8.94989
238 1 20.4423 7.86168 14.1523 -8.95031
239 1 22.0136 9.4346 12.5797 -8.95004
240 1 3.14268 9.43502 12.58 -8.95133
241 1 6.28206 9.43067 12.5805 -8.98782
242 1 9.44137 9.35493 12.5864 -9.16209
243 1 12.6155 9.40269 12.6167 -8.90996
244 1 15.7336 9.43219 12.5834 -8.95711
245 1 18.8713 9.43427 12.5798 -8.95156
246 1 -0.00045488 1.43833e-15 15.7245 -8.94952
247 1 1.57166 1.572 17.2973 -8.94916
248 1 3.14383 2.63679e-16 15.7251 -8.94954
249 1 4.71651 1.57175 17.2976 -8.94957
250 1 6.28908 4.32996e-16 15.7253 -8.94963
251 1 7.86186 1.57174 17.2976 -8.94943
252 1 9.43461 1.45406e-16 15.7252 -8.94954
253 1 11.0072 1.57173 17.2975 -8.94948
254 1 12.5801 3.51068e-16 15.7251 -8.94961
255 1 14.1525 1.5717 17.2975 -8.9494
256 1 15.7249 -8.0507e-17 15.7247 -8.95001
257 1 17.2973 1.57183 17.2972 -8.94948
258 1 18.8692 1.71823e-15 15.7244 -8.9497
259 1 20.4415 1.57213 17.2969 -8.94958
260 1 -0.000648139 3.14426 15.7248 -8.94956
261 1 1.57167 4.71672 17.2974 -8.94976
262 1 3.14293 3.14322 15.7259 -8.94823
263 1 4.71539 4.71536 17.299 -8.94933
264 1 6.28834 3.14253 15.7262 -8.94952
265 1 7.86144 4.71547 17.2988 -8.949
266 1 9.43446 3.14257 15.7259 -8.94924
267 1 11.0073 4.71532 17.2987 -8.94962
268 1 12.5806 3.14248 15.726 -8.94895
269 1 14.1533 4.71515 17.2987 -8.94903
270 1 15.7258 3.14286 15.7255 -8.94944
271 1 17.2984 4.71562 17.298 -8.94835
272 1 18.8695 3.14417 15.7246 -8.94986
273 1 20.4419 4.71668 17.2972 -8.94958
274 1 22.0137 6.28926 15.7248 -8.94989
275 1 1.57182 7.86195 17.2973 -8.94981
276 1 3.14288 6.28871 15.7258 -8.94997
277 1 4.71533 7.86087 17.299 -8.94805
278 1 6.28553 6.28488 15.7302 -8.95003
279 1 7.86169 7.86111 17.3004 -8.95295
280 1 9.43385 6.28516 15.7284 -8.94801
281 1 11.0078 7.85971 17.3014 -8.95119
282 1 12.5827 6.28492 15.7298 -8.94694
283 1 14.1545 7.8599 17.3011 -8.95105
284 1 15.7291 6.28529 15.7285 -8.94516
285 1 17.2986 7.86111 17.2982 -8.94925
286 1 18.8708 6.28853 15.7253 -8.94978
287 1 20.4421 7.86177 17.2972 -8.94953
288 1 5.01784e-05 9.43444 15.7249 -8.94961
289 1 3.14375 9.43465 15.7251 -8.95065
290 1 6.28595 9.43052 15.7292 -8.97977
291 1 9.43735 9.43143 15.7283 -9.00329
292 1 12.5841 9.43239 15.7343 -8.95818
293 1 15.7287 9.43303 15.7284 -8.94801
294 1 18.871 9.43409 15.7254 -8.94936
295 1 22.0136 1.56553e-15 18.8693 -8.94926
296 1 1.57202 1.57212 20.4416 -8.94936
297 1 3.14436 1.32126e-15 18.8695 -8.94956
298 1 4.71693 1.5721 20.4416 -8.94956
299 1 6.28942 1.38361e-15 18.8696 -8.94951
300 1 7.86196 1.57205 20.4416 -8.94953
301 1 9.43451 1.35063e-15 18.8696 -8.94953
302 1 11.007 1.57203 20.4416 -8.94954
303 1 12.5796 1.29012e-15 18.8695 -8.94954
304 1 14.1521 1.57204 20.4416 -8.94954
305 1 15.7246 1.03981e-15 18.8695 -8.94948
306 1 17.2971 1.57207 20.4416 -8.94952
307 1 18.8694 1.51191e-15 18.8693 -8.94939
308 1 20.4416 1.5722 20.4415 -8.94926
309 1 22.0138 3.14451 18.8694 -8.94956
310 1 1.57205 4.71695 20.4417 -8.94956
311 1 3.14402 3.14408 18.8698 -8.94942
312 1 4.71656 4.71657 20.4417 -8.95014
313 1 6.28922 3.14404 18.8699 -8.94949
314 1 7.86173 4.71638 20.4418 -8.94951
315 1 9.43445 3.14393 18.8698 -8.94949
316 1 11.007 4.71625 20.4418 -8.94957
317 1 12.5797 3.14392 18.8698 -8.94954
318 1 14.1524 4.71625 20.4418 -8.94955
319 1 15.725 3.14395 18.8697 -8.94944
320 1 17.2976 4.71637 20.4416 -8.9495
321 1 18.8697 3.14421 18.8694 -8.94918
322 1 20.4418 4.71692 20.4415 -8.94954
323 1 -5.94462e-05 6.28943 18.8694 -8.9496
324 1 1.57207 7.86198 20.4416 -8.94959
325 1 3.14394 6.28914 18.87 -8.94925
326 1 4.71635 7.86165 20.4422 -8.94939
327 1 6.28888 6.28877 18.8707 -8.95099
328 1 7.86181 7.86171 20.4422 -8.95023
329 1 9.43425 6.28829 18.8707 -8.94958
330 1 11.0071 7.86117 20.4423 -8.9502
331 1 12.5801 6.28824 18.871 -8.94971
332 1 14.1527 7.86134 20.4418 -8.95065
333 1 15.7257 6.28834 18.8705 -8.94989
334 1 17.2977 7.86154 20.4416 -8.94938
335 1 18.8699 6.28911 18.8696 -8.9495
5 1 6.28947 1.34107e-15 22.0137 -8.94952
9 1 12.5795 7.9766e-16 22.0137 -8.94953
47 1 12.5799 9.43428 22.0125 -8.95145
15 1 -0.000108539 3.14452 22.0137 -8.94952
19 1 6.2893 3.14418 22.0135 -8.94949
21 1 9.43444 3.14407 22.0135 -8.9495
46 1 9.43463 9.43438 22.014 -8.94954
27 1 18.8697 3.14423 22.0136 -8.94915
31 1 3.14423 6.28939 22.0137 -8.94965
39 1 15.7255 6.28842 22.0128 -8.94998
45 1 6.28903 9.43442 22.0142 -8.94963
43 1 4.03706e-05 9.43444 22.0137 -8.94954
1 1 -0.000238231 1.56052e-15 22.0138 -8.94925
13 1 18.8694 1.1599e-15 22.0137 -8.94934
23 1 12.5796 3.14405 22.0135 -8.94948
49 1 18.87 9.43431 22.0135 -8.94948
183 1 1.57018 4.71583 11.0073 -8.94928
344 1 1.57207 11.007 1.57189 -8.94954
345 1 4.71645 11.007 1.57169 -8.94953
346 1 7.86197 11.007 1.57241 -8.94909
347 1 11.0074 11.007 1.5717 -8.94626
348 1 14.1547 11.007 1.56845 -8.94956
349 1 17.2986 11.007 1.57089 -8.94943
350 1 20.4421 11.007 1.57182 -8.9495
688 3 10.2139 11.007 9.43253 2.30729
352 1 1.57205 14.1519 1.57192 -8.94939
511 1 18.8693 18.8696 9.43451 -8.94956
354 1 4.71647 14.1518 1.57165 -8.94971
510 1 15.725 18.8699 9.43445 -8.94966
356 1 7.86163 14.1524 1.57018 -8.95251
509 1 12.5802 18.8701 9.43389 -8.94808
358 1 11.0071 14.1532 1.56959 -8.95068
508 1 9.4343 18.8707 9.43407 -8.94615
360 1 14.154 14.1537 1.56861 -8.95154
361 1 15.7258 12.5799 -0.00118988 -8.94936
362 1 17.2985 14.1528 1.57094 -8.94917
538 1 17.2971 20.4418 11.0069 -8.94954
364 1 20.4421 14.1521 1.57185 -8.94944
365 1 22.0139 15.7244 -0.000191868 -8.94953
366 1 1.57182 17.2971 1.5718 -8.94979
507 1 6.28649 18.874 9.43398 -8.94943
368 1 4.71582 17.298 1.57055 -8.94945
369 1 6.28899 15.7249 -0.000821775 -8.95067
370 1 7.86157 17.298 1.5709 -8.94914
371 1 9.43423 15.7253 -0.000788013 -8.94961
372 1 11.0071 17.2981 1.57098 -8.94936
373 1 12.5798 15.7254 -0.000879249 -8.9497
374 1 14.1528 17.2983 1.57093 -8.94961
506 1 3.14263 18.8709 9.43437 -8.94945
376 1 17.2983 17.2983 1.57112 -8.94821
505 1 -0.000841212 18.8698 9.43448 -8.94951
378 1 20.4419 17.2972 1.57194 -8.94956
504 1 18.8696 15.725 9.43453 -8.94966
380 1 1.57176 20.4419 1.57184 -8.94916
381 1 3.14417 18.8697 -0.000477919 -8.9495
382 1 4.71673 20.442 1.57171 -8.94962
503 1 15.726 15.7258 9.43448 -8.94706
384 1 7.86193 20.442 1.57176 -8.94946
502 1 12.5792 15.7239 9.43263 -8.94229
386 1 11.0071 20.442 1.5718 -8.9495
534 1 4.71559 20.443 11.0073 -8.94942
388 1 14.1522 20.442 1.57189 -8.94949
501 1 9.42925 15.7225 9.43357 -9.00395
390 1 17.2973 20.4421 1.57191 -8.94944
500 1 6.27759 15.7367 9.43322 -8.94213
392 1 20.4415 20.4418 1.57218 -8.94954
393 1 1.57167 11.007 4.71631 -8.94953
394 1 4.71551 11.007 4.71515 -8.94595
395 1 7.86446 11.007 4.7176 -8.94842
396 1 11.0125 11.007 4.72045 -9.00269
397 1 14.163 11.007 4.70671 -8.94199
398 1 17.3015 11.007 4.71461 -8.94905
399 1 20.4427 11.007 4.7165 -8.94997
400 1 0.000109284 12.5795 3.14417 -8.94955
401 1 1.57144 14.1518 4.71655 -8.94992
402 1 3.14387 12.5794 3.14383 -8.94889
403 1 4.71429 14.1524 4.71484 -8.95153
404 1 6.28902 12.5789 3.14359 -8.9492
405 1 7.85571 14.159 4.70599 -8.9531
406 1 9.43548 12.5798 3.14281 -8.9519
407 1 11.0085 14.1576 4.70743 -8.95087
408 1 12.583 12.5809 3.13646 -8.95921
409 1 14.1653 14.1639 4.70431 -8.93008
410 1 15.7286 12.5809 3.1408 -8.94758
411 1 17.3013 14.154 4.71501 -8.95087
412 1 18.871 12.5798 3.14361 -8.94928
413 1 20.4424 14.1522 4.71669 -8.95023
414 1 22.0138 15.7246 3.14427 -8.94988
415 1 1.57045 17.2979 4.71594 -8.94953
416 1 3.14332 15.7249 3.14344 -8.95035
417 1 4.71251 17.3012 4.7126 -8.94455
418 1 6.28645 15.7274 3.13983 -8.94986
419 1 7.86056 17.3007 4.71404 -8.94912
420 1 9.43399 15.7272 3.14118 -8.94772
421 1 11.0077 17.3004 4.71428 -8.94775
422 1 12.5812 15.7274 3.14076 -8.94915
423 1 14.1552 17.3017 4.71406 -8.94973
424 1 15.7289 15.7286 3.14056 -8.94456
425 1 17.298 17.2979 4.7168 -8.95043
426 1 18.8708 15.7254 3.14378 -8.94968
427 1 20.4414 17.2972 4.71691 -8.94988
428 1 22.0133 18.8696 3.14428 -8.94949
429 1 1.57152 20.442 4.71663 -8.94944
430 1 3.14315 18.8705 3.14318 -8.94821
431 1 4.71602 20.4428 4.71595 -8.95001
432 1 6.28878 18.8707 3.14324 -8.94963
433 1 7.86188 20.4427 4.71619 -8.9497
434 1 9.43446 18.8706 3.14345 -8.94935
435 1 11.0074 20.4426 4.71631 -8.94964
436 1 12.58 18.8707 3.14359 -8.94915
437 1 14.1525 20.4426 4.71671 -8.95072
438 1 15.7257 18.871 3.14357 -8.94938
439 1 17.297 20.4419 4.71715 -8.94965
440 1 18.8695 18.8697 3.14449 -8.94984
441 1 20.4413 20.4418 4.71706 -8.9495
442 1 1.5719 11.007 7.86168 -8.94738
443 1 4.71996 11.007 7.8623 -8.93993
444 1 7.88466 11.007 7.861 -8.91234
445 1 11.0844 11.007 7.63141 -8.12396
446 1 14.1597 11.007 7.85415 -8.9725
447 1 17.2991 11.007 7.86236 -8.95107
448 1 20.442 11.007 7.86214 -8.94939
449 1 22.0137 12.5793 6.28929 -8.94987
450 1 1.56946 14.1523 7.86167 -8.95216
451 1 3.14311 12.5787 6.2889 -8.94991
452 1 4.70542 14.1573 7.85805 -8.95668
453 1 6.28554 12.5781 6.28688 -8.95228
454 1 7.82093 14.1899 7.82719 -8.85369
455 1 9.42112 12.6044 6.27999 -8.90383
456 1 11.0231 14.1613 7.83609 -8.90429
457 1 12.6203 12.6125 6.25222 -8.85521
458 1 14.1555 14.1524 7.86418 -8.95304
459 1 15.7347 12.5819 6.28553 -8.95814
460 1 17.2982 14.1523 7.86276 -8.94986
461 1 18.8716 12.5797 6.28923 -8.95178
462 1 20.4414 14.1521 7.86212 -8.94998
463 1 -0.00120067 15.7248 6.28917 -8.95031
464 1 1.57018 17.2981 7.86148 -8.94921
465 1 3.13969 15.7269 6.28695 -8.95039
466 1 4.71244 17.3014 7.86005 -8.94742
467 1 6.27607 15.7376 6.27685 -8.93004
468 1 7.85861 17.3056 7.86 -8.95919
469 1 9.43363 15.7339 6.28363 -8.9509
470 1 11.0066 17.2989 7.86128 -8.95217
471 1 12.5865 15.7354 6.28187 -8.95297
472 1 14.1529 17.298 7.86219 -8.94812
473 1 15.7269 15.726 6.28939 -8.95172
474 1 17.2975 17.2976 7.86207 -8.9491
475 1 18.8698 15.7248 6.28966 -8.94989
476 1 20.4412 17.2973 7.86194 -8.94959
477 1 22.0131 18.8697 6.28929 -8.94943
478 1 1.57138 20.442 7.8618 -8.94948
479 1 3.14282 18.8708 6.28849 -8.94912
480 1 4.71559 20.443 7.86134 -8.94933
481 1 6.2875 18.8732 6.28758 -8.95157
482 1 7.86172 20.4434 7.86165 -8.95139
483 1 9.43468 18.8722 6.28819 -8.95058
484 1 11.0072 20.4422 7.86194 -8.94941
485 1 12.5801 18.8716 6.28899 -8.95261
486 1 14.1525 20.442 7.86195 -8.94925
487 1 15.725 18.87 6.28966 -8.94941
488 1 17.2971 20.4418 7.86205 -8.94956
489 1 18.8693 18.8696 6.28957 -8.94943
490 1 20.4413 20.4418 7.862 -8.94955
491 1 -0.000783108 12.5793 9.43451 -8.94945
492 1 3.14203 12.579 9.43453 -8.95262
493 1 6.2785 12.5923 9.43045 -9.00446
494 1 9.35952 12.8159 9.43155 -8.17318
495 1 12.5568 12.5695 9.43402 -8.90376
496 1 15.7216 12.5786 9.43458 -8.94005
497 1 18.8693 12.5796 9.43455 -8.94769
498 1 22.0124 15.7251 9.43445 -8.95001
499 1 3.13934 15.7274 9.43414 -8.94868
512 1 1.57207 11.007 11.0072 -8.94671
514 1 7.86095 11.007 10.9482 -9.17374
519 1 1.56933 14.1524 11.0072 -8.95206
520 1 4.70525 14.1575 11.0088 -8.95697
532 1 20.4412 17.2973 11.0071 -8.94956
527 1 4.71241 17.3015 11.0083 -8.94786
531 1 17.2975 17.2976 11.0069 -8.94899
518 1 20.4419 11.007 11.0069 -8.9492
353 1 3.14425 12.5794 -0.000181871 -8.94945
389 1 15.7248 18.8699 -0.000372847 -8.94959
377 1 18.8699 15.7248 -0.000396179 -8.94947
687 2 8.67982 11.007 12.5717 0.754737
513 1 4.72167 11.007 11.0075 -8.9922
686 1 20.4416 20.4417 20.4415 -8.94926
515 1 11.0811 11.007 11.2352 -8.15296
516 1 14.158 11.007 11.0151 -8.973
517 1 17.2986 11.007 11.0068 -8.95092
391 1 18.8697 18.8697 22.0136 -8.94915
685 1 18.8697 18.8697 18.8694 -8.94918
684 1 17.2971 20.4418 20.4416 -8.94952
521 1 7.81883 14.1929 11.0373 -8.90396
522 1 11.027 14.1665 11.025 -8.93426
523 1 14.1552 14.1521 11.005 -8.95562
524 1 17.298 14.1523 11.0064 -8.94999
525 1 20.4413 14.1521 11.0069 -8.94998
683 1 15.725 18.87 18.8697 -8.94944
682 1 14.1521 20.4419 20.4416 -8.94954
528 1 7.85781 17.3075 11.0072 -8.9577
529 1 11.0077 17.3012 11.0058 -8.95136
530 1 14.1527 17.2977 11.0062 -8.94891
681 1 12.5797 18.87 18.8698 -8.94954
680 1 11.007 20.4419 20.4416 -8.94954
533 1 1.57136 20.4421 11.0071 -8.94946
679 1 9.43445 18.87 18.8698 -8.94949
535 1 7.86154 20.4438 11.0068 -8.9516
536 1 11.0074 20.4427 11.0065 -8.94983
537 1 14.1525 20.442 11.0067 -8.94924
678 1 7.86196 20.4418 20.4416 -8.94953
539 1 20.4413 20.4418 11.007 -8.94955
540 1 1.57193 11.007 14.1527 -8.94845
541 1 4.71823 11.007 14.1522 -8.99613
542 1 7.84435 11.007 14.1976 -9.2064
543 1 11.0149 11.007 14.1546 -9.03509
544 1 14.1625 11.007 14.1622 -8.94395
545 1 17.3012 11.007 14.1543 -8.94919
546 1 20.4426 11.007 14.1525 -8.94981
547 1 22.0136 12.5793 12.5797 -8.95004
548 1 1.5711 14.152 14.1525 -8.95015
549 1 3.14268 12.5789 12.58 -8.95133
550 1 4.71312 14.1537 14.1543 -8.95039
551 1 6.28206 12.5832 12.5805 -8.98782
552 1 7.85317 14.1625 14.165 -9.00235
553 1 9.44137 12.659 12.5864 -9.16209
554 1 11.0126 14.1631 14.1662 -8.98138
555 1 12.6155 12.6112 12.6167 -8.90996
556 1 14.1651 14.1636 14.1643 -8.9329
557 1 15.7336 12.5817 12.5834 -8.95711
558 1 17.3011 14.1539 14.1539 -8.95101
559 1 18.8713 12.5796 12.5798 -8.95156
560 1 20.4423 14.1522 14.1523 -8.95031
561 1 22.0126 15.7249 12.5798 -8.95019
562 1 1.57038 17.2979 14.153 -8.94967
563 1 3.13971 15.727 12.5816 -8.95035
564 1 4.71215 17.3017 14.1564 -8.94481
565 1 6.27606 15.7391 12.5915 -8.9312
566 1 7.8597 17.3029 14.1557 -8.94762
567 1 9.4341 15.7459 12.5843 -8.96498
568 1 11.0089 17.3029 14.1557 -8.9471
569 1 12.5862 15.7359 12.5865 -8.95225
570 1 14.1554 17.3017 14.1548 -8.94981
571 1 15.7268 15.726 12.5796 -8.95153
572 1 17.298 17.2979 14.1522 -8.95041
573 1 18.8698 15.7248 12.5793 -8.94989
574 1 20.4413 17.2972 14.1521 -8.94986
575 1 22.0131 18.8697 12.5797 -8.94944
576 1 1.57145 20.442 14.1524 -8.94944
577 1 3.14275 18.8709 12.5803 -8.94911
578 1 4.71584 20.4429 14.1531 -8.95002
579 1 6.28732 18.8738 12.5812 -8.95151
580 1 7.86164 20.4433 14.153 -8.94985
581 1 9.4347 18.8746 12.5805 -8.95378
582 1 11.0077 20.4432 14.1529 -8.94996
583 1 12.5803 18.8721 12.5797 -8.95211
584 1 14.1527 20.4427 14.1523 -8.95057
585 1 15.7249 18.87 12.5792 -8.94959
586 1 17.2971 20.4419 14.1518 -8.94971
587 1 18.8693 18.8696 12.5794 -8.94941
588 1 20.4413 20.4418 14.152 -8.94951
589 1 1.57201 11.007 17.2973 -8.94938
590 1 4.71667 11.007 17.2979 -8.94953
591 1 7.86165 11.007 17.3073 -8.96285
592 1 11.0073 11.007 17.2995 -8.94801
593 1 14.155 11.007 17.3013 -8.94893
594 1 17.2987 11.007 17.2983 -8.94942
595 1 20.4421 11.007 17.2973 -8.94952
596 1 5.01784e-05 12.5795 15.7249 -8.94961
597 1 1.57182 14.152 17.2973 -8.94981
598 1 3.14375 12.5793 15.7251 -8.95065
599 1 4.71533 14.153 17.299 -8.94805
600 1 6.28595 12.5834 15.7292 -8.97977
601 1 7.86169 14.1528 17.3004 -8.95295
602 1 9.43735 12.5825 15.7283 -9.00329
603 1 11.0078 14.1542 17.3014 -8.95119
604 1 12.5841 12.5815 15.7343 -8.95818
605 1 14.1545 14.154 17.3011 -8.95105
606 1 15.7287 12.5809 15.7284 -8.94801
607 1 17.2986 14.1528 17.2982 -8.94925
608 1 18.871 12.5798 15.7254 -8.94936
609 1 20.4421 14.1521 17.2972 -8.94953
610 1 22.0137 15.7246 15.7248 -8.94989
611 1 1.57167 17.2972 17.2974 -8.94976
612 1 3.14288 15.7252 15.7258 -8.94997
613 1 4.71539 17.2985 17.299 -8.94933
614 1 6.28553 15.729 15.7302 -8.95003
615 1 7.86144 17.2984 17.2988 -8.949
616 1 9.43385 15.7287 15.7284 -8.94801
617 1 11.0073 17.2986 17.2987 -8.94962
618 1 12.5827 15.729 15.7298 -8.94694
619 1 14.1533 17.2987 17.2987 -8.94903
620 1 15.7291 15.7286 15.7285 -8.94516
621 1 17.2984 17.2983 17.298 -8.94835
622 1 18.8708 15.7254 15.7253 -8.94978
623 1 20.4419 17.2972 17.2972 -8.94958
624 1 -0.000648139 18.8696 15.7248 -8.94956
625 1 1.57166 20.4419 17.2973 -8.94916
626 1 3.14293 18.8707 15.7259 -8.94823
627 1 4.71651 20.4422 17.2976 -8.94957
628 1 6.28834 18.8714 15.7262 -8.94952
629 1 7.86186 20.4422 17.2976 -8.94943
630 1 9.43446 18.8713 15.7259 -8.94924
631 1 11.0072 20.4422 17.2975 -8.94948
632 1 12.5806 18.8714 15.726 -8.94895
633 1 14.1525 20.4422 17.2975 -8.9494
634 1 15.7258 18.871 15.7255 -8.94944
635 1 17.2973 20.4421 17.2972 -8.94948
636 1 18.8695 18.8697 15.7246 -8.94986
637 1 20.4415 20.4418 17.2969 -8.94958
638 1 1.57209 11.007 20.4416 -8.94956
639 1 4.71648 11.007 20.4421 -8.94924
640 1 7.86173 11.007 20.4438 -8.952
641 1 11.007 11.007 20.4423 -8.94854
642 1 14.153 11.007 20.4418 -8.95027
643 1 17.2978 11.007 20.4416 -8.94945
644 1 20.4419 11.007 20.4415 -8.94954
645 1 22.0139 12.5795 18.8694 -8.94954
646 1 1.57207 14.1519 20.4416 -8.94959
647 1 3.14413 12.5794 18.8696 -8.94968
648 1 4.71635 14.1523 20.4422 -8.94939
649 1 6.28822 12.5803 18.8717 -8.94871
650 1 7.86181 14.1522 20.4422 -8.95023
651 1 9.43518 12.5803 18.8717 -8.94792
652 1 11.0071 14.1527 20.4423 -8.9502
653 1 12.5802 12.5797 18.8716 -8.95173
654 1 14.1527 14.1526 20.4418 -8.95065
655 1 15.7259 12.5799 18.8706 -8.94936
656 1 17.2977 14.1524 20.4416 -8.94938
657 1 18.87 12.5796 18.8696 -8.94948
658 1 20.4419 14.152 20.4415 -8.94953
659 1 -5.94462e-05 15.7245 18.8694 -8.9496
660 1 1.57205 17.297 20.4417 -8.94956
661 1 3.14394 15.7248 18.87 -8.94925
662 1 4.71656 17.2973 20.4417 -8.95014
663 1 6.28888 15.7251 18.8707 -8.95099
664 1 7.86173 17.2975 20.4418 -8.94951
665 1 9.43425 15.7256 18.8707 -8.94958
666 1 11.007 17.2977 20.4418 -8.94957
667 1 12.5801 15.7257 18.871 -8.94971
668 1 14.1524 17.2976 20.4418 -8.94955
669 1 15.7257 15.7256 18.8705 -8.94989
670 1 17.2976 17.2975 20.4416 -8.9495
671 1 18.8699 15.7248 18.8696 -8.9495
672 1 20.4418 17.297 20.4415 -8.94954
673 1 22.0138 18.8694 18.8694 -8.94956
674 1 1.57202 20.4418 20.4416 -8.94936
675 1 3.14402 18.8698 18.8698 -8.94942
676 1 4.71693 20.4418 20.4416 -8.94956
677 1 6.28922 18.8699 18.8699 -8.94949
351 1 4.03706e-05 12.5795 22.0137 -8.94954
385 1 9.43444 18.8698 22.0135 -8.9495
355 1 6.28903 12.5795 22.0142 -8.94963
357 1 9.43463 12.5795 22.014 -8.94954
359 1 12.5799 12.5796 22.0125 -8.95145
367 1 3.14423 15.7245 22.0137 -8.94965
375 1 15.7255 15.7255 22.0128 -8.94998
383 1 6.2893 18.8697 22.0135 -8.94949
379 1 -0.000108539 18.8694 22.0137 -8.94952
363 1 18.87 12.5796 22.0135 -8.94948
387 1 12.5796 18.8699 22.0135 -8.94948
526 1 1.57018 17.2981 11.0073 -8.94928
