ITEM: TIMESTEP
40
ITEM: NUMBER OF ATOMS
688
ITEM: BOX BOUNDS pp pp pp
0.0000000000000000e+00 2.2013900999999997e+01
0.0000000000000000e+00 2.2013900999999997e+01
0.0000000000000000e+00 2.2013900999999997e+01
ITEM: ATOMS id type x y z c_pot
191 1 4.71708 7.86199 11.0069 -8.94942
2 1 1.57242 1.57242 1.57242 -8.94963
3 1 3.14484 1.71501e-16 2.51099e-10 -8.94963
4 1 4.71726 1.57242 1.57242 -8.94963
175 1 18.8691 9.43453 9.43453 -8.94966
6 1 7.86211 1.57242 1.57242 -8.94963
7 1 9.43453 4.7062e-16 2.03282e-10 -8.94963
8 1 11.007 1.57242 1.57242 -8.94963
174 1 15.7244 9.43449 9.43453 -8.95007
10 1 14.1518 1.57242 1.57242 -8.94963
173 1 12.5829 9.43167 9.43444 -8.9106
12 1 17.2966 1.57242 1.57242 -8.94963
190 1 1.57241 7.8621 11.0069 -8.94966
14 1 20.4415 1.57242 1.57242 -8.94963
172 1 9.38679 9.33484 9.4346 -8.03991
16 1 1.57242 4.71726 1.57242 -8.94963
17 1 3.14484 3.14484 -5.82669e-10 -8.94963
18 1 4.71726 4.71726 1.57242 -8.94963
171 1 6.28814 9.4341 9.43497 -8.99978
20 1 7.86211 4.71726 1.57242 -8.94963
170 1 3.14483 9.43455 9.43455 -8.95024
22 1 11.007 4.71726 1.57242 -8.94963
189 1 20.4415 4.71726 11.007 -8.94963
24 1 14.1518 4.71726 1.57242 -8.94964
169 1 3.16413e-07 9.43453 9.43453 -8.94964
26 1 17.2966 4.71726 1.57242 -8.94963
168 1 18.8691 6.28969 9.43453 -8.94963
28 1 20.4415 4.71726 1.57242 -8.94963
29 1 22.0139 6.28969 7.29961e-10 -8.94963
30 1 1.57242 7.86211 1.57242 -8.94963
167 1 15.7242 6.28969 9.43453 -8.9497
32 1 4.71726 7.86211 1.57242 -8.94963
33 1 6.28969 6.28969 -1.0386e-07 -8.94963
34 1 7.86211 7.86211 1.57242 -8.94963
35 1 9.43453 6.28969 9.28758e-08 -8.94963
36 1 11.0069 7.86211 1.57242 -8.94964
37 1 12.5794 6.28969 1.67688e-07 -8.94963
38 1 14.1518 7.86211 1.57242 -8.94962
166 1 12.5793 6.28966 9.43454 -8.95107
40 1 17.2966 7.86211 1.57242 -8.94964
165 1 9.43448 6.2865 9.43455 -8.96838
42 1 20.4415 7.86211 1.57242 -8.94963
164 1 6.28973 6.28972 9.43453 -8.95153
163 1 3.14484 6.28968 9.43453 -8.94957
162 1 22.0139 6.28969 9.43453 -8.94963
161 1 18.8691 3.14484 9.43453 -8.94963
160 1 15.7242 3.14484 9.43453 -8.94963
48 1 15.7242 9.43453 1.66238e-07 -8.94963
188 1 17.2966 4.71726 11.007 -8.94964
50 1 1.66219e-10 2.93146e-16 3.14484 -8.94963
51 1 1.57242 1.57242 4.71726 -8.94963
52 1 3.14484 2.48439e-16 3.14484 -8.94963
53 1 4.71726 1.57242 4.71726 -8.94963
54 1 6.28969 4.81744e-16 3.14484 -8.94963
55 1 7.86211 1.57242 4.71726 -8.94963
56 1 9.43453 1.08467e-16 3.14484 -8.94963
57 1 11.007 1.57242 4.71726 -8.94963
58 1 12.5794 2.39979e-16 3.14484 -8.94963
59 1 14.1518 1.57242 4.71726 -8.94963
60 1 15.7242 5.78201e-16 3.14484 -8.94963
61 1 17.2966 1.57242 4.71726 -8.94963
62 1 18.8691 1.00146e-16 3.14484 -8.94963
63 1 20.4415 1.57242 4.71726 -8.94963
64 1 22.0139 3.14484 3.14484 -8.94963
65 1 1.57242 4.71726 4.71726 -8.94963
66 1 3.14484 3.14484 3.14484 -8.94963
67 1 4.71726 4.71726 4.71726 -8.94959
68 1 6.28969 3.14484 3.14484 -8.94964
69 1 7.86211 4.71727 4.71727 -8.94973
70 1 9.43453 3.14484 3.14484 -8.94963
71 1 11.0069 4.71727 4.71727 -8.94965
72 1 12.5794 3.14484 3.14484 -8.94963
73 1 14.1518 4.71726 4.71726 -8.94963
74 1 15.7242 3.14484 3.14484 -8.94963
75 1 17.2966 4.71726 4.71726 -8.94963
76 1 18.8691 3.14484 3.14484 -8.94963
77 1 20.4415 4.71726 4.71726 -8.94963
78 1 22.0139 6.28969 3.14484 -8.94963
79 1 1.57242 7.86211 4.71726 -8.94963
80 1 3.14484 6.28969 3.14484 -8.94963
81 1 4.71726 7.8621 4.71726 -8.94967
82 1 6.28968 6.28968 3.14484 -8.94963
83 1 7.86207 7.86208 4.71717 -8.95
84 1 9.43453 6.28969 3.14485 -8.94965
85 1 11.0069 7.86216 4.71729 -8.95107
86 1 12.5794 6.28969 3.14485 -8.94974
87 1 14.1519 7.86201 4.71717 -8.94832
88 1 15.7242 6.28968 3.14484 -8.94959
89 1 17.2966 7.86211 4.71726 -8.94964
90 1 18.8691 6.28969 3.14484 -8.94963
91 1 20.4415 7.86211 4.71726 -8.94963
92 1 9.29835e-09 9.43453 3.14484 -8.94963
93 1 3.14484 9.43453 3.14484 -8.94964
94 1 6.28969 9.43453 3.14484 -8.94967
95 1 9.43448 9.43448 3.14478 -8.94926
96 1 12.5794 9.43448 3.14473 -8.94982
97 1 15.7242 9.43453 3.14485 -8.94973
98 1 18.8691 9.43453 3.14484 -8.94963
99 1 22.0139 2.7909e-16 6.28969 -8.94963
100 1 1.57242 1.57242 7.86211 -8.94963
101 1 3.14484 -5.58876e-17 6.28969 -8.94963
102 1 4.71726 1.57242 7.86211 -8.94963
103 1 6.28969 4.48921e-16 6.28969 -8.94963
104 1 7.86211 1.57242 7.86211 -8.94965
105 1 9.43453 6.42938e-16 6.28969 -8.94963
106 1 11.007 1.57242 7.86211 -8.94964
107 1 12.5794 1.97248e-16 6.28969 -8.94963
108 1 14.1518 1.57242 7.86211 -8.94963
109 1 15.7242 2.81202e-16 6.28969 -8.94963
110 1 17.2966 1.57242 7.86211 -8.94963
111 1 18.8691 7.61271e-17 6.28969 -8.94963
112 1 20.4415 1.57242 7.86211 -8.94963
113 1 22.0139 3.14484 6.28969 -8.94963
114 1 1.57242 4.71726 7.86211 -8.94963
115 1 3.14484 3.14484 6.28969 -8.94964
116 1 4.71727 4.71727 7.86211 -8.94973
117 1 6.28968 3.14484 6.28968 -8.94962
118 1 7.86206 4.71715 7.86206 -8.94982
119 1 9.43453 3.14484 6.28969 -8.94964
120 1 11.007 4.7172 7.86206 -8.94927
121 1 12.5794 3.14484 6.28968 -8.94963
122 1 14.1518 4.71726 7.86211 -8.94968
123 1 15.7242 3.14484 6.28969 -8.94963
124 1 17.2966 4.71726 7.86211 -8.94964
125 1 18.8691 3.14484 6.28969 -8.94963
126 1 20.4415 4.71726 7.86211 -8.94963
127 1 -1.66805e-08 6.28969 6.28969 -8.94963
128 1 1.57242 7.86211 7.86211 -8.94966
129 1 3.14484 6.28969 6.28968 -8.94964
130 1 4.71719 7.8621 7.86209 -8.95019
131 1 6.28959 6.28959 6.28959 -8.94833
132 1 7.85925 7.8594 7.85926 -8.91527
133 1 9.43455 6.28971 6.28974 -8.95107
134 1 11.0079 7.86144 7.86102 -8.93937
135 1 12.5794 6.28959 6.28966 -8.94999
136 1 14.1519 7.86203 7.86203 -8.94912
137 1 15.7242 6.28969 6.28968 -8.94967
138 1 17.2966 7.86211 7.86211 -8.94964
139 1 18.8691 6.28969 6.28969 -8.94963
140 1 20.4415 7.86211 7.86211 -8.94963
141 1 22.0139 9.43453 6.28969 -8.94963
142 1 3.14484 9.43453 6.28968 -8.94965
143 1 6.28958 9.43444 6.28961 -8.9489
144 1 9.43354 9.43344 6.28901 -8.9392
145 1 12.5822 9.43166 6.28695 -8.91489
146 1 15.7243 9.4345 6.28966 -8.95013
147 1 18.8691 9.43453 6.28969 -8.94965
148 1 9.62807e-10 3.29787e-16 9.43453 -8.94963
149 1 3.14484 -1.67134e-16 9.43453 -8.94963
150 1 6.28969 -6.69269e-17 9.43453 -8.94963
151 1 9.43453 1.63676e-16 9.43453 -8.94967
152 1 12.5794 4.85103e-17 9.43453 -8.94963
153 1 15.7242 6.99593e-16 9.43453 -8.94963
154 1 18.8691 2.40543e-16 9.43453 -8.94963
155 1 7.09565e-09 3.14484 9.43453 -8.94963
156 1 3.14484 3.14484 9.43453 -8.94963
157 1 6.28969 3.14484 9.43453 -8.94963
158 1 9.43453 3.14476 9.43453 -8.95048
159 1 12.5794 3.14484 9.43453 -8.94966
177 1 4.71726 1.57242 11.007 -8.94963
181 1 17.2966 1.57242 11.007 -8.94963
184 1 4.71727 4.71727 11.0069 -8.94975
11 1 15.7242 3.70829e-16 2.99071e-10 -8.94963
25 1 15.7242 3.14484 3.23089e-09 -8.94963
41 1 18.8691 6.28969 4.17637e-09 -8.94963
44 1 3.14484 9.43453 -2.62663e-08 -8.94963
176 1 1.57242 1.57242 11.007 -8.94963
343 1 18.8691 9.43453 18.8691 -8.94963
178 1 7.86211 1.57242 11.007 -8.94965
179 1 11.007 1.57242 11.007 -8.94963
180 1 14.1518 1.57242 11.007 -8.94964
342 1 15.7242 9.43453 18.8691 -8.94964
182 1 20.4415 1.57242 11.007 -8.94963
341 1 12.5794 9.43453 18.8691 -8.94967
340 1 9.43454 9.43452 18.8691 -8.94945
185 1 7.86205 4.71714 11.007 -8.94963
186 1 11.007 4.71721 11.007 -8.949
187 1 14.1518 4.71726 11.007 -8.94968
339 1 6.28968 9.43452 18.8691 -8.94938
338 1 3.14484 9.43453 18.8691 -8.94964
337 1 22.0139 9.43453 18.8691 -8.94963
336 1 20.4415 7.86211 20.4415 -8.94963
192 1 7.85899 7.85948 11.0098 -8.97008
193 1 11.0078 7.86188 11.0078 -8.97938
194 1 14.1519 7.86205 11.007 -8.94939
195 1 17.2966 7.86211 11.007 -8.94964
196 1 20.4415 7.86211 11.007 -8.94963
197 1 22.0139 4.39857e-17 12.5794 -8.94963
198 1 1.57242 1.57242 14.1518 -8.94963
199 1 3.14484 4.3747e-17 12.5794 -8.94963
200 1 4.71726 1.57242 14.1518 -8.94963
201 1 6.28969 -2.19301e-16 12.5794 -8.94963
202 1 7.86211 1.57242 14.1518 -8.94963
203 1 9.43453 -2.67227e-16 12.5794 -8.94964
204 1 11.007 1.57242 14.1518 -8.94963
205 1 12.5794 1.21165e-17 12.5794 -8.94963
206 1 14.1518 1.57242 14.1518 -8.94963
207 1 15.7242 5.0398e-16 12.5794 -8.94963
208 1 17.2966 1.57242 14.1518 -8.94963
209 1 18.8691 4.28161e-16 12.5794 -8.94963
210 1 20.4415 1.57242 14.1518 -8.94963
211 1 22.0139 3.14484 12.5794 -8.94963
212 1 1.57242 4.71726 14.1518 -8.94964
213 1 3.14484 3.14484 12.5794 -8.94964
214 1 4.71726 4.71726 14.1518 -8.94961
215 1 6.28968 3.14484 12.5794 -8.94965
216 1 7.8621 4.71726 14.1518 -8.94955
217 1 9.43453 3.14483 12.5794 -8.94987
218 1 11.007 4.71727 14.1518 -8.94939
219 1 12.5794 3.14484 12.5794 -8.94963
220 1 14.1518 4.71726 14.1518 -8.94964
221 1 15.7242 3.14484 12.5794 -8.94963
222 1 17.2966 4.71726 14.1518 -8.94963
223 1 18.8691 3.14484 12.5794 -8.94963
224 1 20.4415 4.71726 14.1518 -8.94963
225 1 22.0139 6.28969 12.5794 -8.94963
226 1 1.57242 7.8621 14.1518 -8.94964
227 1 3.14484 6.28969 12.5794 -8.94968
228 1 4.71717 7.86201 14.1519 -8.94897
229 1 6.28958 6.28952 12.5795 -8.94905
230 1 7.86182 7.86218 14.1519 -9.00519
231 1 9.43451 6.2889 12.5793 -8.95674
232 1 11.0068 7.8626 14.152 -8.9911
233 1 12.5794 6.28965 12.5794 -8.95058
234 1 14.1519 7.86204 14.1519 -8.94853
235 1 15.7242 6.28969 12.5794 -8.94965
236 1 17.2966 7.86211 14.1518 -8.94963
237 1 18.8691 6.28969 12.5794 -8.94963
238 1 20.4415 7.86211 14.1518 -8.94963
239 1 22.0139 9.43453 12.5794 -8.94966
240 1 3.14475 9.43453 12.5794 -8.95058
241 1 6.2864 9.43228 12.5794 -8.98467
242 1 9.44425 9.41217 12.58 -9.22967
243 1 12.5815 9.4322 12.5821 -8.96247
244 1 15.7243 9.4345 12.5794 -8.94988
245 1 18.8691 9.43453 12.5794 -8.94964
246 1 5.89331e-10 -3.93295e-16 15.7242 -8.94963
247 1 1.57242 1.57242 17.2966 -8.94963
248 1 3.14484 1.36128e-16 15.7242 -8.94963
249 1 4.71726 1.57242 17.2966 -8.94963
250 1 6.28969 4.79794e-16 15.7242 -8.94963
251 1 7.86211 1.57242 17.2966 -8.94963
252 1 9.43453 7.49094e-16 15.7242 -8.94963
253 1 11.007 1.57242 17.2966 -8.94963
254 1 12.5794 3.89876e-16 15.7242 -8.94963
255 1 14.1518 1.57242 17.2966 -8.94963
256 1 15.7242 2.04675e-17 15.7242 -8.94963
257 1 17.2966 1.57242 17.2966 -8.94963
258 1 18.8691 2.79539e-17 15.7242 -8.94963
259 1 20.4415 1.57242 17.2966 -8.94963
260 1 6.75389e-09 3.14484 15.7242 -8.94963
261 1 1.57242 4.71726 17.2966 -8.94963
262 1 3.14484 3.14484 15.7242 -8.94963
263 1 4.71726 4.71727 17.2966 -8.94963
264 1 6.28969 3.14484 15.7242 -8.94963
265 1 7.86211 4.71726 17.2966 -8.94964
266 1 9.43453 3.14484 15.7242 -8.94964
267 1 11.007 4.71726 17.2966 -8.94964
268 1 12.5794 3.14484 15.7242 -8.94963
269 1 14.1518 4.71727 17.2966 -8.94964
270 1 15.7242 3.14484 15.7242 -8.94963
271 1 17.2966 4.71726 17.2966 -8.94963
272 1 18.8691 3.14484 15.7242 -8.94963
273 1 20.4415 4.71726 17.2966 -8.94963
274 1 22.0139 6.28969 15.7242 -8.94963
275 1 1.57242 7.86211 17.2966 -8.94964
276 1 3.14484 6.28968 15.7242 -8.94959
277 1 4.71728 7.86212 17.2966 -8.94971
278 1 6.28969 6.28968 15.7242 -8.94968
279 1 7.86211 7.86213 17.2966 -8.95004
280 1 9.43453 6.28971 15.7242 -8.95006
281 1 11.0069 7.86211 17.2966 -8.94969
282 1 12.5794 6.2897 15.7242 -8.94981
283 1 14.1518 7.8621 17.2966 -8.94958
284 1 15.7242 6.28968 15.7242 -8.9496
285 1 17.2966 7.86211 17.2966 -8.94964
286 1 18.8691 6.28969 15.7242 -8.94963
287 1 20.4415 7.86211 17.2966 -8.94963
288 1 1.09883e-06 9.43453 15.7242 -8.94963
289 1 3.14487 9.43455 15.7242 -8.94984
290 1 6.28981 9.43432 15.7238 -8.98974
291 1 9.43474 9.4345 15.7242 -9.00447
292 1 12.5795 9.4344 15.7244 -8.94909
293 1 15.7242 9.43453 15.7242 -8.94974
294 1 18.8691 9.43453 15.7242 -8.94963
295 1 22.0139 -5.93007e-17 18.8691 -8.94963
296 1 1.57242 1.57242 20.4415 -8.94963
297 1 3.14484 -9.12096e-17 18.8691 -8.94963
298 1 4.71726 1.57242 20.4415 -8.94963
299 1 6.28969 4.68515e-16 18.8691 -8.94963
300 1 7.86211 1.57242 20.4415 -8.94963
301 1 9.43453 6.14169e-16 18.8691 -8.94963
302 1 11.007 1.57242 20.4415 -8.94963
303 1 12.5794 6.69014e-16 18.8691 -8.94963
304 1 14.1518 1.57242 20.4415 -8.94963
305 1 15.7242 8.17233e-17 18.8691 -8.94963
306 1 17.2966 1.57242 20.4415 -8.94963
307 1 18.8691 3.38461e-16 18.8691 -8.94963
308 1 20.4415 1.57242 20.4415 -8.94963
309 1 22.0139 3.14484 18.8691 -8.94963
310 1 1.57242 4.71726 20.4415 -8.94963
311 1 3.14484 3.14484 18.8691 -8.94963
312 1 4.71726 4.71726 20.4415 -8.94963
313 1 6.28969 3.14484 18.8691 -8.94963
314 1 7.86211 4.71726 20.4415 -8.94963
315 1 9.43453 3.14484 18.8691 -8.94963
316 1 11.007 4.71726 20.4415 -8.94963
317 1 12.5794 3.14484 18.8691 -8.94963
318 1 14.1518 4.71726 20.4415 -8.94963
319 1 15.7242 3.14484 18.8691 -8.94963
320 1 17.2966 4.71726 20.4415 -8.94963
321 1 18.8691 3.14484 18.8691 -8.94963
322 1 20.4415 4.71726 20.4415 -8.94963
323 1 4.82136e-08 6.28969 18.8691 -8.94963
324 1 1.57242 7.86211 20.4415 -8.94963
325 1 3.14484 6.28969 18.8691 -8.94964
326 1 4.71726 7.86211 20.4415 -8.94963
327 1 6.28969 6.28969 18.8691 -8.94964
328 1 7.86211 7.86211 20.4415 -8.94964
329 1 9.43453 6.28969 18.8691 -8.94964
330 1 11.007 7.86211 20.4415 -8.94963
331 1 12.5794 6.28969 18.8691 -8.94963
332 1 14.1518 7.86211 20.4415 -8.94963
333 1 15.7242 6.28969 18.8691 -8.94963
334 1 17.2966 7.86211 20.4415 -8.94963
335 1 18.8691 6.28969 18.8691 -8.94963
5 1 6.28969 3.69625e-16 22.0139 -8.94963
9 1 12.5794 2.88357e-16 22.0139 -8.94963
47 1 12.5794 9.43453 22.0139 -8.94965
15 1 2.98441e-10 3.14484 22.0139 -8.94963
19 1 6.28969 3.14484 22.0139 -8.94963
21 1 9.43453 3.14484 22.0139 -8.94963
46 1 9.43453 9.43453 22.0139 -8.94964
27 1 18.8691 3.14484 22.0139 -8.94963
31 1 3.14484 6.28969 22.0139 -8.94963
39 1 15.7242 6.28969 22.0139 -8.94963
45 1 6.28969 9.43453 22.0139 -8.94963
43 1 8.52435e-11 9.43453 22.0139 -8.94963
1 1 3.93389e-12 1.30753e-16 22.0139 -8.94963
13 1 18.8691 4.09453e-16 22.0139 -8.94963
23 1 12.5794 3.14484 22.0139 -8.94963
49 1 18.8691 9.43453 22.0139 -8.94963
183 1 1.57242 4.71726 11.007 -8.94964
344 1 1.57242 11.007 1.57242 -8.94963
345 1 4.71726 11.007 1.57242 -8.94963
346 1 7.86211 11.007 1.57242 -8.94968
347 1 11.0069 11.007 1.57234 -8.95047
348 1 14.1518 11.007 1.57242 -8.94963
349 1 17.2966 11.007 1.57242 -8.94963
350 1 20.4415 11.007 1.57242 -8.94963
688 3 10.2206 11.007 9.43449 3.5521
352 1 1.57242 14.1518 1.57242 -8.94963
511 1 18.8691 18.8691 9.43453 -8.94963
354 1 4.71726 14.1518 1.57242 -8.94963
510 1 15.7242 18.8691 9.43453 -8.94963
356 1 7.86211 14.1518 1.57242 -8.94963
509 1 12.5794 18.8691 9.43453 -8.94966
358 1 11.0069 14.1518 1.57242 -8.94964
508 1 9.43453 18.8691 9.43453 -8.95048
360 1 14.1518 14.1518 1.57242 -8.94962
361 1 15.7242 12.5794 1.66238e-07 -8.94963
362 1 17.2966 14.1518 1.57242 -8.94964
538 1 17.2966 20.4415 11.007 -8.94963
364 1 20.4415 14.1518 1.57242 -8.94963
365 1 22.0139 15.7242 7.29961e-10 -8.94963
366 1 1.57242 17.2966 1.57242 -8.94963
507 1 6.28969 18.8691 9.43453 -8.94963
368 1 4.71726 17.2966 1.57242 -8.94963
369 1 6.28969 15.7242 -1.0386e-07 -8.94963
370 1 7.86211 17.2966 1.57242 -8.94963
371 1 9.43453 15.7242 9.28758e-08 -8.94963
372 1 11.007 17.2966 1.57242 -8.94963
373 1 12.5794 15.7242 1.67688e-07 -8.94963
374 1 14.1518 17.2966 1.57242 -8.94964
506 1 3.14484 18.8691 9.43453 -8.94963
376 1 17.2966 17.2966 1.57242 -8.94963
505 1 7.09565e-09 18.8691 9.43453 -8.94963
378 1 20.4415 17.2966 1.57242 -8.94963
504 1 18.8691 15.7242 9.43453 -8.94963
380 1 1.57242 20.4415 1.57242 -8.94963
381 1 3.14484 18.8691 -5.82669e-10 -8.94963
382 1 4.71726 20.4415 1.57242 -8.94963
503 1 15.7242 15.7242 9.43453 -8.9497
384 1 7.86211 20.4415 1.57242 -8.94963
502 1 12.5793 15.7242 9.43454 -8.95107
386 1 11.007 20.4415 1.57242 -8.94963
534 1 4.71726 20.4415 11.007 -8.94963
388 1 14.1518 20.4415 1.57242 -8.94963
501 1 9.43448 15.7274 9.43455 -8.96838
390 1 17.2966 20.4415 1.57242 -8.94963
500 1 6.28973 15.7242 9.43453 -8.95153
392 1 20.4415 20.4415 1.57242 -8.94963
393 1 1.57242 11.007 4.71726 -8.94963
394 1 4.71727 11.007 4.71727 -8.94969
395 1 7.86215 11.007 4.71721 -8.95122
396 1 11.007 11.007 4.71406 -8.96799
397 1 14.1518 11.007 4.7173 -8.95148
398 1 17.2966 11.007 4.71726 -8.94962
399 1 20.4415 11.007 4.71726 -8.94963
400 1 9.29835e-09 12.5794 3.14484 -8.94963
401 1 1.57242 14.1518 4.71726 -8.94963
402 1 3.14484 12.5794 3.14484 -8.94964
403 1 4.71726 14.1518 4.71726 -8.94967
404 1 6.28969 12.5794 3.14484 -8.94967
405 1 7.86207 14.1518 4.71717 -8.95
406 1 9.43448 12.5794 3.14478 -8.94926
407 1 11.0069 14.1517 4.71729 -8.95107
408 1 12.5794 12.5794 3.14473 -8.94982
409 1 14.1519 14.1519 4.71717 -8.94832
410 1 15.7242 12.5794 3.14485 -8.94973
411 1 17.2966 14.1518 4.71726 -8.94964
412 1 18.8691 12.5794 3.14484 -8.94963
413 1 20.4415 14.1518 4.71726 -8.94963
414 1 22.0139 15.7242 3.14484 -8.94963
415 1 1.57242 17.2966 4.71726 -8.94963
416 1 3.14484 15.7242 3.14484 -8.94963
417 1 4.71726 17.2966 4.71726 -8.94959
418 1 6.28968 15.7242 3.14484 -8.94963
419 1 7.86211 17.2966 4.71727 -8.94973
420 1 9.43453 15.7242 3.14485 -8.94965
421 1 11.0069 17.2966 4.71727 -8.94965
422 1 12.5794 15.7242 3.14485 -8.94974
423 1 14.1518 17.2966 4.71726 -8.94963
424 1 15.7242 15.7242 3.14484 -8.94959
425 1 17.2966 17.2966 4.71726 -8.94963
426 1 18.8691 15.7242 3.14484 -8.94963
427 1 20.4415 17.2966 4.71726 -8.94963
428 1 22.0139 18.8691 3.14484 -8.94963
429 1 1.57242 20.4415 4.71726 -8.94963
430 1 3.14484 18.8691 3.14484 -8.94963
431 1 4.71726 20.4415 4.71726 -8.94963
432 1 6.28969 18.8691 3.14484 -8.94964
433 1 7.86211 20.4415 4.71726 -8.94963
434 1 9.43453 18.8691 3.14484 -8.94963
435 1 11.007 20.4415 4.71726 -8.94963
436 1 12.5794 18.8691 3.14484 -8.94963
437 1 14.1518 20.4415 4.71726 -8.94963
438 1 15.7242 18.8691 3.14484 -8.94963
439 1 17.2966 20.4415 4.71726 -8.94963
440 1 18.8691 18.8691 3.14484 -8.94963
441 1 20.4415 20.4415 4.71726 -8.94963
442 1 1.57242 11.007 7.86211 -8.94964
443 1 4.71717 11.007 7.86213 -8.95066
444 1 7.85874 11.007 7.8585 -8.91691
445 1 11.0549 11.007 7.76246 -7.98703
446 1 14.1535 11.007 7.86189 -8.95975
447 1 17.2967 11.007 7.86211 -8.95004
448 1 20.4415 11.007 7.86211 -8.94964
449 1 22.0139 12.5794 6.28969 -8.94963
450 1 1.57242 14.1518 7.86211 -8.94966
451 1 3.14484 12.5794 6.28968 -8.94965
452 1 4.71719 14.1518 7.86209 -8.95019
453 1 6.28958 12.5795 6.28961 -8.9489
454 1 7.85925 14.1545 7.85926 -8.91527
455 1 9.43354 12.5805 6.28901 -8.9392
456 1 11.0079 14.1525 7.86102 -8.93937
457 1 12.5822 12.5822 6.28695 -8.91489
458 1 14.1519 14.1519 7.86203 -8.94912
459 1 15.7243 12.5794 6.28966 -8.95013
460 1 17.2966 14.1518 7.86211 -8.94964
461 1 18.8691 12.5794 6.28969 -8.94965
462 1 20.4415 14.1518 7.86211 -8.94963
463 1 -1.66805e-08 15.7242 6.28969 -8.94963
464 1 1.57242 17.2966 7.86211 -8.94963
465 1 3.14484 15.7242 6.28968 -8.94964
466 1 4.71727 17.2966 7.86211 -8.94973
467 1 6.28959 15.7243 6.28959 -8.94833
468 1 7.86206 17.2967 7.86206 -8.94982
469 1 9.43455 15.7242 6.28974 -8.95107
470 1 11.007 17.2967 7.86206 -8.94927
471 1 12.5794 15.7243 6.28966 -8.94999
472 1 14.1518 17.2966 7.86211 -8.94968
473 1 15.7242 15.7242 6.28968 -8.94967
474 1 17.2966 17.2966 7.86211 -8.94964
475 1 18.8691 15.7242 6.28969 -8.94963
476 1 20.4415 17.2966 7.86211 -8.94963
477 1 22.0139 18.8691 6.28969 -8.94963
478 1 1.57242 20.4415 7.86211 -8.94963
479 1 3.14484 18.8691 6.28969 -8.94964
480 1 4.71726 20.4415 7.86211 -8.94963
481 1 6.28968 18.8691 6.28968 -8.94962
482 1 7.86211 20.4415 7.86211 -8.94965
483 1 9.43453 18.8691 6.28969 -8.94964
484 1 11.007 20.4415 7.86211 -8.94964
485 1 12.5794 18.8691 6.28968 -8.94963
486 1 14.1518 20.4415 7.86211 -8.94963
487 1 15.7242 18.8691 6.28969 -8.94963
488 1 17.2966 20.4415 7.86211 -8.94963
489 1 18.8691 18.8691 6.28969 -8.94963
490 1 20.4415 20.4415 7.86211 -8.94963
491 1 3.16413e-07 12.5794 9.43453 -8.94964
492 1 3.14483 12.5794 9.43455 -8.95024
493 1 6.28814 12.5798 9.43497 -8.99978
494 1 9.38679 12.6791 9.4346 -8.03991
495 1 12.5829 12.5822 9.43444 -8.9106
496 1 15.7244 12.5794 9.43453 -8.95007
497 1 18.8691 12.5794 9.43453 -8.94966
498 1 22.0139 15.7242 9.43453 -8.94963
499 1 3.14484 15.7242 9.43453 -8.94957
512 1 1.57244 11.007 11.0069 -8.94943
514 1 7.84799 11.007 10.9884 -9.20533
519 1 1.57241 14.1518 11.0069 -8.94966
520 1 4.71708 14.1519 11.0069 -8.94942
532 1 20.4415 17.2966 11.007 -8.94963
527 1 4.71727 17.2966 11.0069 -8.94975
531 1 17.2966 17.2966 11.007 -8.94964
518 1 20.4415 11.007 11.007 -8.94964
353 1 3.14484 12.5794 -2.62663e-08 -8.94963
389 1 15.7242 18.8691 3.23089e-09 -8.94963
377 1 18.8691 15.7242 4.17637e-09 -8.94963
687 2 8.64834 11.007 12.5793 1.03149
513 1 4.71786 11.007 11.0075 -8.99818
686 1 20.4415 20.4415 20.4415 -8.94963
515 1 11.0583 11.007 11.1045 -8.01937
516 1 14.1536 11.007 11.0072 -8.96042
517 1 17.2967 11.007 11.007 -8.95008
391 1 18.8691 18.8691 22.0139 -8.94963
685 1 18.8691 18.8691 18.8691 -8.94963
684 1 17.2966 20.4415 20.4415 -8.94963
521 1 7.85899 14.1544 11.0098 -8.97008
522 1 11.0078 14.152 11.0078 -8.97938
523 1 14.1519 14.1518 11.007 -8.94939
524 1 17.2966 14.1518 11.007 -8.94964
525 1 20.4415 14.1518 11.007 -8.94963
683 1 15.7242 18.8691 18.8691 -8.94963
682 1 14.1518 20.4415 20.4415 -8.94963
528 1 7.86205 17.2968 11.007 -8.94963
529 1 11.007 17.2967 11.007 -8.949
530 1 14.1518 17.2966 11.007 -8.94968
681 1 12.5794 18.8691 18.8691 -8.94963
680 1 11.007 20.4415 20.4415 -8.94963
533 1 1.57242 20.4415 11.007 -8.94963
679 1 9.43453 18.8691 18.8691 -8.94963
535 1 7.86211 20.4415 11.007 -8.94965
536 1 11.007 20.4415 11.007 -8.94963
537 1 14.1518 20.4415 11.007 -8.94964
678 1 7.86211 20.4415 20.4415 -8.94963
539 1 20.4415 20.4415 11.007 -8.94963
540 1 1.57244 11.007 14.1518 -8.94939
541 1 4.71802 11.007 14.1512 -8.99785
542 1 7.85147 11.007 14.1731 -9.24122
543 1 11.0102 11.007 14.1572 -9.0041
544 1 14.1518 11.007 14.1518 -8.95244
545 1 17.2966 11.007 14.1518 -8.94965
546 1 20.4415 11.007 14.1518 -8.94963
547 1 22.0139 12.5794 12.5794 -8.94966
548 1 1.57242 14.1518 14.1518 -8.94964
549 1 3.14475 12.5794 12.5794 -8.95058
550 1 4.71717 14.1519 14.1519 -8.94897
551 1 6.2864 12.5816 12.5794 -8.98467
552 1 7.86182 14.1517 14.1519 -9.00519
553 1 9.44425 12.6017 12.58 -9.22967
554 1 11.0068 14.1513 14.152 -8.9911
555 1 12.5815 12.5817 12.5821 -8.96247
556 1 14.1519 14.1519 14.1519 -8.94853
557 1 15.7243 12.5794 12.5794 -8.94988
558 1 17.2966 14.1518 14.1518 -8.94963
559 1 18.8691 12.5794 12.5794 -8.94964
560 1 20.4415 14.1518 14.1518 -8.94963
561 1 22.0139 15.7242 12.5794 -8.94963
562 1 1.57242 17.2966 14.1518 -8.94964
563 1 3.14484 15.7242 12.5794 -8.94968
564 1 4.71726 17.2966 14.1518 -8.94961
565 1 6.28958 15.7244 12.5795 -8.94905
566 1 7.8621 17.2966 14.1518 -8.94955
567 1 9.43451 15.725 12.5793 -8.95674
568 1 11.007 17.2966 14.1518 -8.94939
569 1 12.5794 15.7242 12.5794 -8.95058
570 1 14.1518 17.2966 14.1518 -8.94964
571 1 15.7242 15.7242 12.5794 -8.94965
572 1 17.2966 17.2966 14.1518 -8.94963
573 1 18.8691 15.7242 12.5794 -8.94963
574 1 20.4415 17.2966 14.1518 -8.94963
575 1 22.0139 18.8691 12.5794 -8.94963
576 1 1.57242 20.4415 14.1518 -8.94963
577 1 3.14484 18.8691 12.5794 -8.94964
578 1 4.71726 20.4415 14.1518 -8.94963
579 1 6.28968 18.8691 12.5794 -8.94965
580 1 7.86211 20.4415 14.1518 -8.94963
581 1 9.43453 18.8691 12.5794 -8.94987
582 1 11.007 20.4415 14.1518 -8.94963
583 1 12.5794 18.8691 12.5794 -8.94963
584 1 14.1518 20.4415 14.1518 -8.94963
585 1 15.7242 18.8691 12.5794 -8.94963
586 1 17.2966 20.4415 14.1518 -8.94963
587 1 18.8691 18.8691 12.5794 -8.94963
588 1 20.4415 20.4415 14.1518 -8.94963
589 1 1.57242 11.007 17.2966 -8.94961
590 1 4.71731 11.007 17.2966 -8.95021
591 1 7.86215 11.007 17.2974 -8.95538
592 1 11.007 11.007 17.2968 -8.9512
593 1 14.1518 11.007 17.2966 -8.94968
594 1 17.2966 11.007 17.2966 -8.94963
595 1 20.4415 11.007 17.2966 -8.94963
596 1 1.09883e-06 12.5794 15.7242 -8.94963
597 1 1.57242 14.1518 17.2966 -8.94964
598 1 3.14487 12.5794 15.7242 -8.94984
599 1 4.71728 14.1518 17.2966 -8.94971
600 1 6.28981 12.5796 15.7238 -8.98974
601 1 7.86211 14.1518 17.2966 -8.95004
602 1 9.43474 12.5794 15.7242 -9.00447
603 1 11.0069 14.1518 17.2966 -8.94969
604 1 12.5795 12.5795 15.7244 -8.94909
605 1 14.1518 14.1518 17.2966 -8.94958
606 1 15.7242 12.5794 15.7242 -8.94974
607 1 17.2966 14.1518 17.2966 -8.94964
608 1 18.8691 12.5794 15.7242 -8.94963
609 1 20.4415 14.1518 17.2966 -8.94963
610 1 22.0139 15.7242 15.7242 -8.94963
611 1 1.57242 17.2966 17.2966 -8.94963
612 1 3.14484 15.7242 15.7242 -8.94959
613 1 4.71726 17.2966 17.2966 -8.94963
614 1 6.28969 15.7242 15.7242 -8.94968
615 1 7.86211 17.2966 17.2966 -8.94964
616 1 9.43453 15.7242 15.7242 -8.95006
617 1 11.007 17.2966 17.2966 -8.94964
618 1 12.5794 15.7242 15.7242 -8.94981
619 1 14.1518 17.2966 17.2966 -8.94964
620 1 15.7242 15.7242 15.7242 -8.9496
621 1 17.2966 17.2966 17.2966 -8.94963
622 1 18.8691 15.7242 15.7242 -8.94963
623 1 20.4415 17.2966 17.2966 -8.94963
624 1 6.75389e-09 18.8691 15.7242 -8.94963
625 1 1.57242 20.4415 17.2966 -8.94963
626 1 3.14484 18.8691 15.7242 -8.94963
627 1 4.71726 20.4415 17.2966 -8.94963
628 1 6.28969 18.8691 15.7242 -8.94963
629 1 7.86211 20.4415 17.2966 -8.94963
630 1 9.43453 18.8691 15.7242 -8.94964
631 1 11.007 20.4415 17.2966 -8.94963
632 1 12.5794 18.8691 15.7242 -8.94963
633 1 14.1518 20.4415 17.2966 -8.94963
634 1 15.7242 18.8691 15.7242 -8.94963
635 1 17.2966 20.4415 17.2966 -8.94963
636 1 18.8691 18.8691 15.7242 -8.94963
637 1 20.4415 20.4415 17.2966 -8.94963
638 1 1.57242 11.007 20.4415 -8.94963
639 1 4.71727 11.007 20.4415 -8.94963
640 1 7.86211 11.007 20.4415 -8.94986
641 1 11.0069 11.007 20.4415 -8.9497
642 1 14.1518 11.007 20.4415 -8.94963
643 1 17.2966 11.007 20.4415 -8.94963
644 1 20.4415 11.007 20.4415 -8.94963
645 1 22.0139 12.5794 18.8691 -8.94963
646 1 1.57242 14.1518 20.4415 -8.94963
647 1 3.14484 12.5794 18.8691 -8.94964
648 1 4.71726 14.1518 20.4415 -8.94963
649 1 6.28968 12.5794 18.8691 -8.94938
650 1 7.86211 14.1518 20.4415 -8.94964
651 1 9.43454 12.5794 18.8691 -8.94945
652 1 11.007 14.1518 20.4415 -8.94963
653 1 12.5794 12.5794 18.8691 -8.94967
654 1 14.1518 14.1518 20.4415 -8.94963
655 1 15.7242 12.5794 18.8691 -8.94964
656 1 17.2966 14.1518 20.4415 -8.94963
657 1 18.8691 12.5794 18.8691 -8.94963
658 1 20.4415 14.1518 20.4415 -8.94963
659 1 4.82136e-08 15.7242 18.8691 -8.94963
660 1 1.57242 17.2966 20.4415 -8.94963
661 1 3.14484 15.7242 18.8691 -8.94964
662 1 4.71726 17.2966 20.4415 -8.94963
663 1 6.28969 15.7242 18.8691 -8.94964
664 1 7.86211 17.2966 20.4415 -8.94963
665 1 9.43453 15.7242 18.8691 -8.94964
666 1 11.007 17.2966 20.4415 -8.94963
667 1 12.5794 15.7242 18.8691 -8.94963
668 1 14.1518 17.2966 20.4415 -8.94963
669 1 15.7242 15.7242 18.8691 -8.94963
670 1 17.2966 17.2966 20.4415 -8.94963
671 1 18.8691 15.7242 18.8691 -8.94963
672 1 20.4415 17.2966 20.4415 -8.94963
673 1 22.0139 18.8691 18.8691 -8.94963
674 1 1.57242 20.4415 20.4415 -8.94963
675 1 3.14484 18.8691 18.8691 -8.94963
676 1 4.71726 20.4415 20.4415 -8.94963
677 1 6.28969 18.8691 18.8691 -8.94963
351 1 8.52436e-11 12.5794 22.0139 -8.94963
385 1 9.43453 18.8691 22.0139 -8.94963
355 1 6.28969 12.5794 22.0139 -8.94963
357 1 9.43453 12.5794 22.0139 -8.94964
359 1 12.5794 12.5794 22.0139 -8.94965
367 1 3.14484 15.7242 22.0139 -8.94963
375 1 15.7242 15.7242 22.0139 -8.94963
383 1 6.28969 18.8691 22.0139 -8.94963
379 1 2.98441e-10 18.8691 22.0139 -8.94963
363 1 18.8691 12.5794 22.0139 -8.94963
387 1 12.5794 18.8691 22.0139 -8.94963
526 1 1.57242 17.2966 11.007 -8.94964
