ITEM: TIMESTEP
103
ITEM: NUMBER OF ATOMS
688
ITEM: BOX BOUNDS pp pp pp
0.0000000000000000e+00 2.2013900999999997e+01
0.0000000000000000e+00 2.2013900999999997e+01
0.0000000000000000e+00 2.2013900999999997e+01
ITEM: ATOMS id type x y z c_pot
191 1 4.70514 7.85613 11.0088 -8.95695
2 1 1.57164 1.57198 1.57175 -8.94914
3 1 3.14434 1.44356e-15 -0.000296039 -8.94957
4 1 4.7166 1.57184 1.57159 -8.9496
175 1 18.8692 9.43433 9.43457 -8.94765
6 1 7.86188 1.57183 1.57166 -8.94944
7 1 9.4345 1.5827e-15 -0.000263672 -8.94952
8 1 11.0071 1.57181 1.57172 -8.94949
174 1 15.7213 9.43533 9.43462 -8.94
10 1 14.1523 1.57178 1.57182 -8.94949
173 1 12.5564 9.44442 9.43415 -8.9039
12 1 17.2974 1.57176 1.57185 -8.94943
190 1 1.56926 7.86141 11.0072 -8.95209
14 1 20.4415 1.57209 1.57212 -8.94952
172 1 9.35962 9.19785 9.4316 -8.17374
16 1 1.57173 4.71672 1.57171 -8.94979
17 1 3.14404 3.14413 -0.00053387 -8.94949
18 1 4.71567 4.71578 1.57041 -8.94945
171 1 6.27878 9.42145 9.43053 -9.00442
20 1 7.86149 4.71579 1.57078 -8.94913
170 1 3.14217 9.43483 9.43455 -8.95261
22 1 11.0072 4.71563 1.57085 -8.94935
189 1 20.4411 4.7165 11.0071 -8.94957
24 1 14.153 4.71543 1.57078 -8.94961
169 1 -0.0007763 9.43463 9.43452 -8.94941
26 1 17.2985 4.71549 1.57101 -8.9482
168 1 18.8696 6.28885 9.43453 -8.94968
28 1 20.442 4.71661 1.57187 -8.94955
29 1 22.0139 6.28941 -0.000228132 -8.94952
30 1 1.57203 7.86195 1.57187 -8.94938
167 1 15.726 6.28805 9.43447 -8.94706
32 1 4.71641 7.862 1.5716 -8.94971
33 1 6.28891 6.28895 -0.000860628 -8.9507
34 1 7.86161 7.8614 1.57013 -8.95253
35 1 9.43423 6.28851 -0.000824494 -8.94963
36 1 11.0072 7.86055 1.5695 -8.95072
37 1 12.58 6.28837 -0.000942854 -8.94972
38 1 14.1542 7.8601 1.56845 -8.95154
166 1 12.5793 6.28994 9.43256 -8.94216
40 1 17.2987 7.861 1.57081 -8.94915
165 1 9.42915 6.29115 9.43349 -9.00387
42 1 20.4422 7.86171 1.57178 -8.94942
164 1 6.2773 6.27688 9.43314 -8.94205
163 1 3.13908 6.28634 9.43411 -8.94867
162 1 22.0122 6.28879 9.43445 -8.95003
161 1 18.8692 3.14422 9.4345 -8.94956
160 1 15.725 3.14398 9.43443 -8.94965
48 1 15.726 9.43395 -0.00127234 -8.94936
188 1 17.2975 4.71629 11.0069 -8.949
50 1 -0.000513015 1.66067e-15 3.14443 -8.94948
51 1 1.57134 1.57185 4.71651 -8.94941
52 1 3.14381 1.21588e-15 3.14382 -8.94951
53 1 4.71583 1.57101 4.71578 -8.95001
54 1 6.28921 6.62083e-16 3.14386 -8.9496
55 1 7.8618 1.57111 4.71605 -8.94972
56 1 9.43459 1.46717e-15 3.14393 -8.94954
57 1 11.0074 1.57124 4.7162 -8.94966
58 1 12.5798 1.1129e-15 3.14409 -8.94953
59 1 14.1526 1.57123 4.71664 -8.95074
60 1 15.7249 1.29787e-15 3.1443 -8.95006
61 1 17.2971 1.57196 4.71711 -8.94965
62 1 18.8692 1.27676e-15 3.14465 -8.94965
63 1 20.4413 1.5721 4.717 -8.94948
64 1 22.0132 3.1442 3.14419 -8.94948
65 1 1.57028 4.71592 4.71582 -8.94954
66 1 3.14296 3.14326 3.14302 -8.9482
67 1 4.71224 4.7125 4.7124 -8.94455
68 1 6.28861 3.14305 3.14306 -8.94962
69 1 7.86038 4.7129 4.71382 -8.94911
70 1 9.43443 3.14311 3.1433 -8.94934
71 1 11.0078 4.71331 4.71405 -8.94772
72 1 12.5801 3.14305 3.14345 -8.94914
73 1 14.1554 4.71202 4.71386 -8.94971
74 1 15.7258 3.14272 3.14346 -8.94938
75 1 17.2981 4.71589 4.71671 -8.95045
76 1 18.8696 3.14408 3.14443 -8.94985
77 1 20.4414 4.7166 4.71685 -8.94989
78 1 22.0138 6.28928 3.14419 -8.94989
79 1 1.57138 7.86203 4.7165 -8.94994
80 1 3.14317 6.28894 3.14332 -8.95036
81 1 4.71415 7.86131 4.71474 -8.95153
82 1 6.28628 6.28634 3.13965 -8.94984
83 1 7.8556 7.85458 4.70581 -8.95305
84 1 9.43398 6.28653 3.14099 -8.9477
85 1 11.0086 7.85603 4.70717 -8.95087
86 1 12.5814 6.28631 3.14053 -8.94915
87 1 14.1655 7.84982 4.70408 -8.93009
88 1 15.7291 6.28508 3.14038 -8.94456
89 1 17.3015 7.85983 4.71488 -8.95088
90 1 18.8709 6.28841 3.14368 -8.94968
91 1 20.4425 7.86164 4.71663 -8.95024
92 1 0.000165744 9.43438 3.14411 -8.94954
93 1 3.14385 9.43448 3.14379 -8.94888
94 1 6.289 9.43494 3.14357 -8.94919
95 1 9.43556 9.434 3.14277 -8.9519
96 1 12.5832 9.43297 3.1363 -8.95921
97 1 15.7289 9.43293 3.14059 -8.94757
98 1 18.8712 9.43402 3.14349 -8.94927
99 1 22.0133 1.69597e-15 6.28936 -8.9495
100 1 1.57117 1.57178 7.86174 -8.94945
101 1 3.14349 1.13869e-15 6.28887 -8.94932
102 1 4.71535 1.57076 7.86124 -8.94933
103 1 6.28886 1.57207e-15 6.28875 -8.95068
104 1 7.86159 1.57044 7.86157 -8.95141
105 1 9.43476 1.88718e-15 6.28896 -8.95028
106 1 11.0072 1.57164 7.86188 -8.94941
107 1 12.5798 1.68209e-15 6.28941 -8.95043
108 1 14.1525 1.57184 7.86191 -8.94924
109 1 15.7248 1.32107e-15 6.28957 -8.94943
110 1 17.2971 1.57203 7.86204 -8.94955
111 1 18.8692 1.65027e-15 6.28957 -8.94953
112 1 20.4412 1.57208 7.86198 -8.94953
113 1 22.013 3.1441 6.28922 -8.94942
114 1 1.56994 4.7157 7.86141 -8.94921
115 1 3.14255 3.14292 6.28834 -8.94909
116 1 4.71211 4.71225 7.85991 -8.94738
117 1 6.28727 3.14048 6.28741 -8.95157
118 1 7.85838 4.70803 7.85985 -8.95919
119 1 9.43461 3.14154 6.28805 -8.95061
120 1 11.0066 4.71486 7.86113 -8.95216
121 1 12.5801 3.1422 6.28888 -8.95263
122 1 14.153 4.71589 7.86209 -8.94808
123 1 15.7251 3.14381 6.28961 -8.9494
124 1 17.2976 4.71627 7.86204 -8.94909
125 1 18.8693 3.14423 6.28954 -8.94942
126 1 20.4411 4.7165 7.86192 -8.94959
127 1 -0.00129949 6.28902 6.28913 -8.95033
128 1 1.56939 7.86153 7.86166 -8.95218
129 1 3.13947 6.28681 6.28684 -8.95041
130 1 4.70533 7.85643 7.85802 -8.95672
131 1 6.27581 6.276 6.27667 -8.93006
132 1 7.82087 7.82373 7.82709 -8.85384
133 1 9.43354 6.2797 6.28336 -8.95089
134 1 11.0231 7.85238 7.83583 -8.9043
135 1 12.5866 6.27833 6.28158 -8.95293
136 1 14.1554 7.86151 7.86409 -8.95313
137 1 15.727 6.28783 6.28927 -8.95175
138 1 17.2981 7.8616 7.86274 -8.94989
139 1 18.8699 6.28902 6.28963 -8.94992
140 1 20.4413 7.86179 7.86212 -8.94998
141 1 22.0138 9.43456 6.28928 -8.94988
142 1 3.14313 9.43515 6.28891 -8.94994
143 1 6.28554 9.43568 6.28683 -8.9523
144 1 9.42107 9.40922 6.27982 -8.9037
145 1 12.6204 9.40135 6.25201 -8.85516
146 1 15.7348 9.43202 6.28537 -8.95815
147 1 18.8717 9.43423 6.28918 -8.95179
148 1 -0.00068805 9.59562e-16 9.43448 -8.94951
149 1 3.14335 1.66523e-15 9.43441 -8.94946
150 1 6.28832 1.57261e-15 9.43419 -8.95042
151 1 9.4347 1.40425e-15 9.43419 -8.94846
152 1 12.5801 1.45593e-15 9.43418 -8.94924
153 1 15.7248 1.15041e-15 9.43444 -8.94959
154 1 18.8692 1.54845e-15 9.4345 -8.94956
155 1 -0.00100448 3.14405 9.43447 -8.9495
156 1 3.14235 3.14282 9.43434 -8.94944
157 1 6.28622 3.13971 9.43393 -8.94943
158 1 9.4342 3.14307 9.43401 -8.94614
159 1 12.5802 3.14382 9.43383 -8.94806
177 1 4.71535 1.57075 11.0074 -8.94942
181 1 17.2971 1.57204 11.0069 -8.94953
184 1 4.71209 4.71214 11.0083 -8.94784
11 1 15.7246 1.81801e-15 -0.000208863 -8.94954
25 1 15.725 3.1439 -0.000419579 -8.94957
41 1 18.87 6.28901 -0.000446242 -8.94944
44 1 3.14423 9.43446 -0.000189828 -8.94944
176 1 1.57116 1.57178 11.0072 -8.94944
343 1 18.8702 9.43426 18.8697 -8.94946
178 1 7.86141 1.56997 11.0068 -8.95163
179 1 11.0074 1.57112 11.0065 -8.94985
180 1 14.1525 1.5719 11.0067 -8.94923
342 1 15.7261 9.43393 18.8707 -8.94937
182 1 20.4412 1.57208 11.007 -8.94953
341 1 12.5803 9.43415 18.8716 -8.95173
340 1 9.43522 9.43362 18.8718 -8.94793
185 1 7.85758 4.70604 11.0072 -8.95771
186 1 11.0077 4.71247 11.0058 -8.95139
187 1 14.1527 4.71617 11.0062 -8.94889
339 1 6.28824 9.43362 18.8717 -8.94867
338 1 3.14414 9.43449 18.8697 -8.94968
337 1 22.014 9.43443 18.8694 -8.94953
336 1 20.442 7.86183 20.4415 -8.94951
192 1 7.81871 7.82047 11.0372 -8.90381
193 1 11.0271 7.84693 11.0251 -8.93415
194 1 14.1552 7.86175 11.0051 -8.95566
195 1 17.2979 7.86167 11.0064 -8.95003
196 1 20.4413 7.86179 11.0069 -8.94999
197 1 22.0132 9.26779e-16 12.5796 -8.9495
198 1 1.57127 1.57183 14.1525 -8.94942
199 1 3.14344 4.37082e-16 12.58 -8.94937
200 1 4.71563 1.57085 14.1532 -8.95002
201 1 6.28869 1.14783e-15 12.5801 -8.95067
202 1 7.86153 1.57051 14.1531 -8.94988
203 1 9.43476 1.33173e-15 12.5799 -8.95133
204 1 11.0077 1.57061 14.153 -8.94999
205 1 12.58 5.70031e-16 12.5794 -8.95034
206 1 14.1528 1.57116 14.1523 -8.95059
207 1 15.7248 1.28023e-15 12.5793 -8.94949
208 1 17.2971 1.57197 14.1519 -8.94971
209 1 18.8692 1.11571e-15 12.5794 -8.94952
210 1 20.4412 1.5721 14.152 -8.9495
211 1 22.013 3.14409 12.5798 -8.94943
212 1 1.57021 4.71589 14.1531 -8.94967
213 1 3.1425 3.14285 12.5805 -8.9491
214 1 4.71189 4.71196 14.1566 -8.9448
215 1 6.28708 3.13985 12.5813 -8.95152
216 1 7.8595 4.71056 14.1559 -8.94763
217 1 9.43463 3.13899 12.5806 -8.95385
218 1 11.009 4.71067 14.1559 -8.94709
219 1 12.5804 3.1417 12.5798 -8.95213
220 1 14.1556 4.71195 14.155 -8.94977
221 1 15.725 3.14387 12.5792 -8.94959
222 1 17.2981 4.7159 14.1523 -8.95043
223 1 18.8693 3.14423 12.5795 -8.94941
224 1 20.4413 4.71659 14.1522 -8.94988
225 1 22.0125 6.28897 12.5798 -8.9502
226 1 1.57107 7.86186 14.1525 -8.9502
227 1 3.13951 6.28674 12.5817 -8.95036
228 1 4.71301 7.85995 14.1544 -8.95041
229 1 6.27581 6.27434 12.5916 -8.93122
230 1 7.85299 7.85086 14.1653 -9.00195
231 1 9.434 6.26738 12.5845 -8.96507
232 1 11.0128 7.85032 14.1665 -8.98129
233 1 12.5863 6.27775 12.5867 -8.95216
234 1 14.1652 7.85015 14.1645 -8.93294
235 1 15.7269 6.28783 12.5797 -8.95155
236 1 17.3012 7.85996 14.154 -8.95103
237 1 18.8698 6.28903 12.5794 -8.94991
238 1 20.4424 7.86166 14.1524 -8.95033
239 1 22.0137 9.43461 12.5797 -8.95005
240 1 3.14277 9.43498 12.58 -8.95143
241 1 6.28201 9.43028 12.5805 -8.98806
242 1 9.44114 9.35378 12.5866 -9.16134
243 1 12.6155 9.40251 12.6169 -8.91027
244 1 15.7336 9.43219 12.5836 -8.95716
245 1 18.8714 9.43427 12.5798 -8.95157
246 1 -0.000560869 1.45187e-15 15.7246 -8.9495
247 1 1.57153 1.57195 17.2974 -8.94913
248 1 3.14364 3.33666e-16 15.7253 -8.94952
249 1 4.71636 1.57167 17.2978 -8.94955
250 1 6.28895 5.24938e-16 15.7254 -8.94963
251 1 7.86179 1.57166 17.2977 -8.94941
252 1 9.43461 4.76542e-16 15.7253 -8.94955
253 1 11.0072 1.57164 17.2977 -8.94946
254 1 12.5802 7.40997e-16 15.7252 -8.94962
255 1 14.1526 1.57161 17.2976 -8.94939
256 1 15.7251 5.73819e-16 15.7248 -8.95002
257 1 17.2974 1.57175 17.2973 -8.94947
258 1 18.8693 1.28255e-15 15.7244 -8.9497
259 1 20.4415 1.57208 17.297 -8.94957
260 1 -0.000735432 3.14419 15.7249 -8.94956
261 1 1.57157 4.71665 17.2976 -8.94976
262 1 3.14273 3.14309 15.7261 -8.94823
263 1 4.71521 4.71522 17.2992 -8.9493
264 1 6.28815 3.14232 15.7264 -8.9495
265 1 7.86135 4.71528 17.2989 -8.94899
266 1 9.43443 3.14235 15.7261 -8.94922
267 1 11.0074 4.71512 17.2988 -8.94961
268 1 12.5807 3.14229 15.7261 -8.94894
269 1 14.1535 4.71496 17.2989 -8.949
270 1 15.726 3.14271 15.7256 -8.94944
271 1 17.2986 4.71548 17.2981 -8.94835
272 1 18.8696 3.14408 15.7246 -8.94986
273 1 20.442 4.71659 17.2973 -8.94958
274 1 22.0136 6.28921 15.7249 -8.94991
275 1 1.57185 7.86194 17.2973 -8.94982
276 1 3.14273 6.28861 15.726 -8.94998
277 1 4.71533 7.86086 17.299 -8.94813
278 1 6.28533 6.2846 15.7305 -8.94991
279 1 7.86168 7.86097 17.3005 -8.95301
280 1 9.43384 6.28483 15.7286 -8.94796
281 1 11.0078 7.85956 17.3016 -8.95125
282 1 12.5829 6.28465 15.7301 -8.94687
283 1 14.1547 7.8598 17.3012 -8.95108
284 1 15.7293 6.28512 15.7287 -8.94517
285 1 17.2988 7.861 17.2984 -8.94924
286 1 18.8709 6.28844 15.7253 -8.94979
287 1 20.4422 7.86172 17.2973 -8.94951
288 1 0.000145938 9.43443 15.7249 -8.9496
289 1 3.14386 9.43466 15.7251 -8.95063
290 1 6.28617 9.43051 15.729 -8.97975
291 1 9.43737 9.43127 15.7283 -9.0035
292 1 12.5842 9.43234 15.7344 -8.95824
293 1 15.7289 9.43297 15.7286 -8.94799
294 1 18.8711 9.43406 15.7255 -8.94935
295 1 22.0136 1.72025e-15 18.8694 -8.94922
296 1 1.57193 1.57207 20.4416 -8.94933
297 1 3.14423 8.65347e-16 18.8696 -8.94953
298 1 4.71682 1.57204 20.4416 -8.94955
299 1 6.28933 1.2969e-15 18.8697 -8.94949
300 1 7.86191 1.572 20.4417 -8.94951
301 1 9.43451 1.5158e-15 18.8696 -8.94951
302 1 11.0071 1.57197 20.4417 -8.94952
303 1 12.5797 1.18734e-15 18.8696 -8.94952
304 1 14.1522 1.57197 20.4416 -8.94952
305 1 15.7248 9.93155e-16 18.8695 -8.94945
306 1 17.2972 1.57201 20.4416 -8.94949
307 1 18.8694 1.28444e-15 18.8694 -8.94936
308 1 20.4417 1.57216 20.4415 -8.94922
309 1 22.0137 3.14444 18.8695 -8.94954
310 1 1.572 4.71689 20.4417 -8.94956
311 1 3.14389 3.144 18.8699 -8.9494
312 1 4.71646 4.71649 20.4418 -8.95016
313 1 6.28911 3.14394 18.87 -8.94948
314 1 7.86167 4.71628 20.4418 -8.94952
315 1 9.43443 3.14381 18.8699 -8.94947
316 1 11.007 4.71612 20.4418 -8.94957
317 1 12.5798 3.14379 18.8699 -8.94952
318 1 14.1525 4.7161 20.4418 -8.94956
319 1 15.7251 3.14381 18.8698 -8.94941
320 1 17.2977 4.71624 20.4416 -8.94949
321 1 18.8698 3.14412 18.8695 -8.94916
322 1 20.4419 4.71684 20.4415 -8.94952
323 1 -2.47908e-05 6.28939 18.8694 -8.94959
324 1 1.57208 7.86196 20.4416 -8.94958
325 1 3.14389 6.28911 18.87 -8.94928
326 1 4.71631 7.86164 20.4423 -8.94939
327 1 6.2888 6.28869 18.8708 -8.95102
328 1 7.8618 7.86167 20.4423 -8.95026
329 1 9.43425 6.28817 18.8708 -8.94959
330 1 11.0072 7.86111 20.4423 -8.95023
331 1 12.5802 6.2881 18.8711 -8.94974
332 1 14.1529 7.86125 20.4418 -8.95066
333 1 15.7259 6.28821 18.8706 -8.9499
334 1 17.2979 7.86144 20.4416 -8.94937
335 1 18.87 6.289 18.8696 -8.94948
5 1 6.2894 1.63364e-15 22.0136 -8.9495
9 1 12.5796 6.15385e-16 22.0137 -8.94952
47 1 12.5801 9.43424 22.0125 -8.95146
15 1 -0.000135221 3.14445 22.0137 -8.9495
19 1 6.2892 3.14408 22.0134 -8.94948
21 1 9.43442 3.14397 22.0135 -8.94948
46 1 9.43468 9.43436 22.014 -8.94954
27 1 18.8698 3.14413 22.0136 -8.94913
31 1 3.14416 6.28935 22.0137 -8.94966
39 1 15.7257 6.28828 22.0127 -8.94998
45 1 6.28902 9.43441 22.0142 -8.94963
43 1 9.76268e-05 9.43442 22.0136 -8.94952
1 1 -0.000290799 1.35198e-15 22.0137 -8.9492
13 1 18.8694 1.09333e-15 22.0137 -8.9493
23 1 12.5797 3.14392 22.0135 -8.94946
49 1 18.8701 9.43426 22.0134 -8.94946
183 1 1.56995 4.7157 11.0074 -8.94928
344 1 1.57208 11.007 1.57185 -8.94953
345 1 4.71643 11.007 1.5717 -8.94952
346 1 7.86202 11.007 1.57246 -8.94908
347 1 11.0076 11.007 1.57172 -8.94625
348 1 14.1549 11.007 1.56831 -8.94955
349 1 17.2988 11.007 1.57075 -8.94942
350 1 20.4423 11.007 1.57174 -8.94948
688 3 10.2137 11.007 9.43268 2.30619
352 1 1.57203 14.1519 1.57187 -8.94938
511 1 18.8692 18.8697 9.4345 -8.94956
354 1 4.71641 14.1519 1.5716 -8.94971
510 1 15.725 18.8699 9.43443 -8.94965
356 1 7.86161 14.1525 1.57013 -8.95253
509 1 12.5802 18.8701 9.43383 -8.94806
358 1 11.0072 14.1533 1.5695 -8.95072
508 1 9.4342 18.8708 9.43401 -8.94614
360 1 14.1542 14.1538 1.56845 -8.95154
361 1 15.726 12.58 -0.00127234 -8.94936
362 1 17.2987 14.1529 1.57081 -8.94915
538 1 17.2971 20.4419 11.0069 -8.94953
364 1 20.4422 14.1522 1.57178 -8.94942
365 1 22.0139 15.7245 -0.000228132 -8.94952
366 1 1.57173 17.2972 1.57171 -8.94979
507 1 6.28622 18.8742 9.43393 -8.94943
368 1 4.71567 17.2981 1.57041 -8.94945
369 1 6.28891 15.7249 -0.000860628 -8.9507
370 1 7.86149 17.2981 1.57078 -8.94913
371 1 9.43423 15.7254 -0.000824494 -8.94963
372 1 11.0072 17.2983 1.57085 -8.94935
373 1 12.58 15.7255 -0.000942854 -8.94972
374 1 14.153 17.2985 1.57078 -8.94961
506 1 3.14235 18.8711 9.43434 -8.94944
376 1 17.2985 17.2984 1.57101 -8.9482
505 1 -0.00100448 18.8699 9.43447 -8.9495
378 1 20.442 17.2973 1.57187 -8.94955
504 1 18.8696 15.7251 9.43453 -8.94968
380 1 1.57164 20.4419 1.57175 -8.94914
381 1 3.14404 18.8698 -0.00053387 -8.94949
382 1 4.7166 20.4421 1.57159 -8.9496
503 1 15.726 15.7259 9.43447 -8.94706
384 1 7.86188 20.4421 1.57166 -8.94944
502 1 12.5793 15.724 9.43256 -8.94216
386 1 11.0071 20.4421 1.57172 -8.94949
534 1 4.71535 20.4432 11.0074 -8.94942
388 1 14.1523 20.4421 1.57182 -8.94949
501 1 9.42915 15.7227 9.43349 -9.00387
390 1 17.2974 20.4421 1.57185 -8.94943
500 1 6.2773 15.737 9.43314 -8.94205
392 1 20.4415 20.4418 1.57212 -8.94952
393 1 1.5717 11.007 4.71629 -8.94953
394 1 4.71553 11.007 4.71515 -8.94592
395 1 7.8645 11.007 4.71759 -8.94839
396 1 11.0126 11.007 4.72038 -9.00273
397 1 14.1633 11.007 4.70648 -8.94198
398 1 17.3017 11.007 4.71444 -8.94904
399 1 20.4428 11.007 4.71644 -8.94998
400 1 0.000165744 12.5795 3.14411 -8.94954
401 1 1.57138 14.1519 4.7165 -8.94994
402 1 3.14385 12.5794 3.14379 -8.94888
403 1 4.71415 14.1526 4.71474 -8.95153
404 1 6.289 12.579 3.14357 -8.94919
405 1 7.8556 14.1593 4.70581 -8.95305
406 1 9.43556 12.5799 3.14277 -8.9519
407 1 11.0086 14.1579 4.70717 -8.95087
408 1 12.5832 12.5809 3.1363 -8.95921
409 1 14.1655 14.1641 4.70408 -8.93009
410 1 15.7289 12.581 3.14059 -8.94757
411 1 17.3015 14.1541 4.71488 -8.95088
412 1 18.8712 12.5799 3.14349 -8.94927
413 1 20.4425 14.1523 4.71663 -8.95024
414 1 22.0138 15.7246 3.14419 -8.94989
415 1 1.57028 17.298 4.71582 -8.94954
416 1 3.14317 15.725 3.14332 -8.95036
417 1 4.71224 17.3014 4.7124 -8.94455
418 1 6.28628 15.7276 3.13965 -8.94984
419 1 7.86038 17.301 4.71382 -8.94911
420 1 9.43398 15.7274 3.14099 -8.9477
421 1 11.0078 17.3006 4.71405 -8.94772
422 1 12.5814 15.7276 3.14053 -8.94915
423 1 14.1554 17.3019 4.71386 -8.94971
424 1 15.7291 15.7288 3.14038 -8.94456
425 1 17.2981 17.298 4.71671 -8.95045
426 1 18.8709 15.7255 3.14368 -8.94968
427 1 20.4414 17.2973 4.71685 -8.94989
428 1 22.0132 18.8697 3.14419 -8.94948
429 1 1.57134 20.4421 4.71651 -8.94941
430 1 3.14296 18.8706 3.14302 -8.9482
431 1 4.71583 20.4429 4.71578 -8.95001
432 1 6.28861 18.8709 3.14306 -8.94962
433 1 7.8618 20.4428 4.71605 -8.94972
434 1 9.43443 18.8708 3.1433 -8.94934
435 1 11.0074 20.4427 4.7162 -8.94966
436 1 12.5801 18.8709 3.14345 -8.94914
437 1 14.1526 20.4427 4.71664 -8.95074
438 1 15.7258 18.8712 3.14346 -8.94938
439 1 17.2971 20.4419 4.71711 -8.94965
440 1 18.8696 18.8698 3.14443 -8.94985
441 1 20.4413 20.4418 4.717 -8.94948
442 1 1.57199 11.007 7.8617 -8.94735
443 1 4.72018 11.007 7.86236 -8.93998
444 1 7.8848 11.007 7.86098 -8.91231
445 1 11.0842 11.007 7.63101 -8.12436
446 1 14.1594 11.007 7.85405 -8.97257
447 1 17.2989 11.007 7.86232 -8.95105
448 1 20.442 11.007 7.86214 -8.94935
449 1 22.0138 12.5793 6.28928 -8.94988
450 1 1.56939 14.1524 7.86166 -8.95218
451 1 3.14313 12.5787 6.28891 -8.94994
452 1 4.70533 14.1575 7.85802 -8.95672
453 1 6.28554 12.5782 6.28683 -8.9523
454 1 7.82087 14.1902 7.82709 -8.85384
455 1 9.42107 12.6047 6.27982 -8.9037
456 1 11.0231 14.1615 7.83583 -8.9043
457 1 12.6204 12.6126 6.25201 -8.85516
458 1 14.1554 14.1524 7.86409 -8.95313
459 1 15.7348 12.5819 6.28537 -8.95815
460 1 17.2981 14.1523 7.86274 -8.94989
461 1 18.8717 12.5797 6.28918 -8.95179
462 1 20.4413 14.1521 7.86212 -8.94998
463 1 -0.00129949 15.7249 6.28913 -8.95033
464 1 1.56994 17.2982 7.86141 -8.94921
465 1 3.13947 15.7271 6.28684 -8.95041
466 1 4.71211 17.3017 7.85991 -8.94738
467 1 6.27581 15.7379 6.27667 -8.93006
468 1 7.85838 17.3059 7.85985 -8.95919
469 1 9.43354 15.7342 6.28336 -8.95089
470 1 11.0066 17.299 7.86113 -8.95216
471 1 12.5866 15.7356 6.28158 -8.95293
472 1 14.153 17.298 7.86209 -8.94808
473 1 15.727 15.7261 6.28927 -8.95175
474 1 17.2976 17.2976 7.86204 -8.94909
475 1 18.8699 15.7249 6.28963 -8.94992
476 1 20.4411 17.2974 7.86192 -8.94959
477 1 22.013 18.8698 6.28922 -8.94942
478 1 1.57117 20.4421 7.86174 -8.94945
479 1 3.14255 18.871 6.28834 -8.94909
480 1 4.71535 20.4431 7.86124 -8.94933
481 1 6.28727 18.8734 6.28741 -8.95157
482 1 7.86159 20.4435 7.86157 -8.95141
483 1 9.43461 18.8724 6.28805 -8.95061
484 1 11.0072 20.4423 7.86188 -8.94941
485 1 12.5801 18.8717 6.28888 -8.95263
486 1 14.1525 20.4421 7.86191 -8.94924
487 1 15.7251 18.8701 6.28961 -8.9494
488 1 17.2971 20.4419 7.86204 -8.94955
489 1 18.8693 18.8697 6.28954 -8.94942
490 1 20.4412 20.4418 7.86198 -8.94953
491 1 -0.0007763 12.5793 9.43452 -8.94941
492 1 3.14217 12.5791 9.43455 -8.95261
493 1 6.27878 12.5924 9.43053 -9.00442
494 1 9.35962 12.8161 9.4316 -8.17374
495 1 12.5564 12.5695 9.43415 -8.9039
496 1 15.7213 12.5786 9.43462 -8.94
497 1 18.8692 12.5796 9.43457 -8.94765
498 1 22.0122 15.7251 9.43445 -8.95003
499 1 3.13908 15.7276 9.43411 -8.94867
512 1 1.57221 11.007 11.0072 -8.94662
514 1 7.86119 11.007 10.9487 -9.17409
519 1 1.56926 14.1525 11.0072 -8.95209
520 1 4.70514 14.1578 11.0088 -8.95695
532 1 20.4411 17.2974 11.0071 -8.94957
527 1 4.71209 17.3018 11.0083 -8.94784
531 1 17.2975 17.2976 11.0069 -8.949
518 1 20.4419 11.007 11.0069 -8.94914
353 1 3.14423 12.5794 -0.000189828 -8.94944
389 1 15.725 18.87 -0.000419579 -8.94957
377 1 18.87 15.7249 -0.000446242 -8.94944
687 2 8.68355 11.007 12.5712 0.753554
513 1 4.72207 11.007 11.0076 -8.992
686 1 20.4417 20.4417 20.4415 -8.94922
515 1 11.0802 11.007 11.236 -8.15359
516 1 14.1576 11.007 11.0153 -8.97288
517 1 17.2984 11.007 11.0068 -8.95085
391 1 18.8698 18.8698 22.0136 -8.94913
685 1 18.8698 18.8698 18.8695 -8.94916
684 1 17.2972 20.4419 20.4416 -8.94949
521 1 7.81871 14.1934 11.0372 -8.90381
522 1 11.0271 14.167 11.0251 -8.93415
523 1 14.1552 14.1522 11.0051 -8.95566
524 1 17.2979 14.1522 11.0064 -8.95003
525 1 20.4413 14.1521 11.0069 -8.94999
683 1 15.7251 18.8701 18.8698 -8.94941
682 1 14.1522 20.4419 20.4416 -8.94952
528 1 7.85758 17.3079 11.0072 -8.95771
529 1 11.0077 17.3014 11.0058 -8.95139
530 1 14.1527 17.2977 11.0062 -8.94889
681 1 12.5798 18.8701 18.8699 -8.94952
680 1 11.0071 20.4419 20.4417 -8.94952
533 1 1.57116 20.4421 11.0072 -8.94944
679 1 9.43443 18.8701 18.8699 -8.94947
535 1 7.86141 20.4439 11.0068 -8.95163
536 1 11.0074 20.4428 11.0065 -8.94985
537 1 14.1525 20.442 11.0067 -8.94923
678 1 7.86191 20.4419 20.4417 -8.94951
539 1 20.4412 20.4418 11.007 -8.94953
540 1 1.57206 11.007 14.1527 -8.9484
541 1 4.71855 11.007 14.1521 -8.99583
542 1 7.84458 11.007 14.197 -9.20639
543 1 11.0146 11.007 14.1544 -9.03518
544 1 14.1625 11.007 14.1624 -8.94389
545 1 17.3014 11.007 14.1545 -8.94916
546 1 20.4427 11.007 14.1526 -8.9498
547 1 22.0137 12.5793 12.5797 -8.95005
548 1 1.57107 14.152 14.1525 -8.9502
549 1 3.14277 12.5789 12.58 -8.95143
550 1 4.71301 14.1539 14.1544 -8.95041
551 1 6.28201 12.5836 12.5805 -8.98806
552 1 7.85299 14.163 14.1653 -9.00195
553 1 9.44114 12.6601 12.5866 -9.16134
554 1 11.0128 14.1636 14.1665 -8.98129
555 1 12.6155 12.6114 12.6169 -8.91027
556 1 14.1652 14.1637 14.1645 -8.93294
557 1 15.7336 12.5817 12.5836 -8.95716
558 1 17.3012 14.1539 14.154 -8.95103
559 1 18.8714 12.5796 12.5798 -8.95157
560 1 20.4424 14.1522 14.1524 -8.95033
561 1 22.0125 15.7249 12.5798 -8.9502
562 1 1.57021 17.298 14.1531 -8.94967
563 1 3.13951 15.7272 12.5817 -8.95036
564 1 4.71189 17.3019 14.1566 -8.9448
565 1 6.27581 15.7396 12.5916 -8.93122
566 1 7.8595 17.3033 14.1559 -8.94763
567 1 9.434 15.7465 12.5845 -8.96507
568 1 11.009 17.3032 14.1559 -8.94709
569 1 12.5863 15.7361 12.5867 -8.95216
570 1 14.1556 17.302 14.155 -8.94977
571 1 15.7269 15.7261 12.5797 -8.95155
572 1 17.2981 17.298 14.1523 -8.95043
573 1 18.8698 15.7249 12.5794 -8.94991
574 1 20.4413 17.2973 14.1522 -8.94988
575 1 22.013 18.8698 12.5798 -8.94943
576 1 1.57127 20.4421 14.1525 -8.94942
577 1 3.1425 18.8711 12.5805 -8.9491
578 1 4.71563 20.443 14.1532 -8.95002
579 1 6.28708 18.874 12.5813 -8.95152
580 1 7.86153 20.4434 14.1531 -8.94988
581 1 9.43463 18.8749 12.5806 -8.95385
582 1 11.0077 20.4433 14.153 -8.94999
583 1 12.5804 18.8722 12.5798 -8.95213
584 1 14.1528 20.4427 14.1523 -8.95059
585 1 15.725 18.87 12.5792 -8.94959
586 1 17.2971 20.4419 14.1519 -8.94971
587 1 18.8693 18.8697 12.5795 -8.94941
588 1 20.4412 20.4418 14.152 -8.9495
589 1 1.57209 11.007 17.2974 -8.94937
590 1 4.71678 11.007 17.2979 -8.94956
591 1 7.86174 11.007 17.3072 -8.9627
592 1 11.0073 11.007 17.2994 -8.94794
593 1 14.1551 11.007 17.3014 -8.94896
594 1 17.2989 11.007 17.2984 -8.94941
595 1 20.4423 11.007 17.2974 -8.94951
596 1 0.000145938 12.5795 15.7249 -8.9496
597 1 1.57185 14.152 17.2973 -8.94982
598 1 3.14386 12.5792 15.7251 -8.95063
599 1 4.71533 14.153 17.299 -8.94813
600 1 6.28617 12.5834 15.729 -8.97975
601 1 7.86168 14.1529 17.3005 -8.95301
602 1 9.43737 12.5826 15.7283 -9.0035
603 1 11.0078 14.1543 17.3016 -8.95125
604 1 12.5842 12.5816 15.7344 -8.95824
605 1 14.1547 14.1541 17.3012 -8.95108
606 1 15.7289 12.5809 15.7286 -8.94799
607 1 17.2988 14.1529 17.2984 -8.94924
608 1 18.8711 12.5798 15.7255 -8.94935
609 1 20.4422 14.1522 17.2973 -8.94951
610 1 22.0136 15.7247 15.7249 -8.94991
611 1 1.57157 17.2973 17.2976 -8.94976
612 1 3.14273 15.7253 15.726 -8.94998
613 1 4.71521 17.2987 17.2992 -8.9493
614 1 6.28533 15.7293 15.7305 -8.94991
615 1 7.86135 17.2986 17.2989 -8.94899
616 1 9.43384 15.7291 15.7286 -8.94796
617 1 11.0074 17.2988 17.2988 -8.94961
618 1 12.5829 15.7293 15.7301 -8.94687
619 1 14.1535 17.2989 17.2989 -8.949
620 1 15.7293 15.7288 15.7287 -8.94517
621 1 17.2986 17.2984 17.2981 -8.94835
622 1 18.8709 15.7255 15.7253 -8.94979
623 1 20.442 17.2973 17.2973 -8.94958
624 1 -0.000735432 18.8697 15.7249 -8.94956
625 1 1.57153 20.442 17.2974 -8.94913
626 1 3.14273 18.8708 15.7261 -8.94823
627 1 4.71636 20.4422 17.2978 -8.94955
628 1 6.28815 18.8716 15.7264 -8.9495
629 1 7.86179 20.4422 17.2977 -8.94941
630 1 9.43443 18.8716 15.7261 -8.94922
631 1 11.0072 20.4423 17.2977 -8.94946
632 1 12.5807 18.8716 15.7261 -8.94894
633 1 14.1526 20.4423 17.2976 -8.94939
634 1 15.726 18.8712 15.7256 -8.94944
635 1 17.2974 20.4421 17.2973 -8.94947
636 1 18.8696 18.8698 15.7246 -8.94986
637 1 20.4415 20.4418 17.297 -8.94957
638 1 1.5721 11.007 20.4416 -8.94955
639 1 4.71647 11.007 20.4421 -8.94922
640 1 7.86175 11.007 20.4438 -8.95196
641 1 11.0071 11.007 20.4424 -8.94851
642 1 14.1532 11.007 20.4418 -8.95029
643 1 17.298 11.007 20.4416 -8.94944
644 1 20.442 11.007 20.4415 -8.94952
645 1 22.014 12.5795 18.8694 -8.94953
646 1 1.57208 14.1519 20.4416 -8.94958
647 1 3.14414 12.5794 18.8697 -8.94968
648 1 4.71631 14.1523 20.4423 -8.94939
649 1 6.28824 12.5803 18.8717 -8.94867
650 1 7.8618 14.1522 20.4423 -8.95026
651 1 9.43522 12.5803 18.8718 -8.94793
652 1 11.0072 14.1528 20.4423 -8.95023
653 1 12.5803 12.5797 18.8716 -8.95173
654 1 14.1529 14.1526 20.4418 -8.95066
655 1 15.7261 12.58 18.8707 -8.94937
656 1 17.2979 14.1525 20.4416 -8.94937
657 1 18.8702 12.5796 18.8697 -8.94946
658 1 20.442 14.1521 20.4415 -8.94951
659 1 -2.47908e-05 15.7245 18.8694 -8.94959
660 1 1.572 17.297 20.4417 -8.94956
661 1 3.14389 15.7248 18.87 -8.94928
662 1 4.71646 17.2974 20.4418 -8.95016
663 1 6.2888 15.7252 18.8708 -8.95102
664 1 7.86167 17.2976 20.4418 -8.94952
665 1 9.43425 15.7257 18.8708 -8.94959
666 1 11.007 17.2978 20.4418 -8.94957
667 1 12.5802 15.7258 18.8711 -8.94974
668 1 14.1525 17.2978 20.4418 -8.94956
669 1 15.7259 15.7257 18.8706 -8.9499
670 1 17.2977 17.2977 20.4416 -8.94949
671 1 18.87 15.7249 18.8696 -8.94948
672 1 20.4419 17.2971 20.4415 -8.94952
673 1 22.0137 18.8695 18.8695 -8.94954
674 1 1.57193 20.4418 20.4416 -8.94933
675 1 3.14389 18.8699 18.8699 -8.9494
676 1 4.71682 20.4419 20.4416 -8.94955
677 1 6.28911 18.87 18.87 -8.94948
351 1 9.76268e-05 12.5795 22.0136 -8.94952
385 1 9.43442 18.8699 22.0135 -8.94948
355 1 6.28902 12.5795 22.0142 -8.94963
357 1 9.43468 12.5795 22.014 -8.94954
359 1 12.5801 12.5797 22.0125 -8.95146
367 1 3.14416 15.7246 22.0137 -8.94966
375 1 15.7257 15.7256 22.0127 -8.94998
383 1 6.2892 18.8698 22.0134 -8.94948
379 1 -0.000135221 18.8694 22.0137 -8.9495
363 1 18.8701 12.5796 22.0134 -8.94946
387 1 12.5797 18.87 22.0135 -8.94946
526 1 1.56995 17.2982 11.0074 -8.94928
