ITEM: TIMESTEP
75
ITEM: NUMBER OF ATOMS
688
ITEM: BOX BOUNDS pp pp pp
0.0000000000000000e+00 2.2013900999999997e+01
0.0000000000000000e+00 2.2013900999999997e+01
0.0000000000000000e+00 2.2013900999999997e+01
ITEM: ATOMS id type x y z c_pot
191 1 4.70634 7.85763 11.0088 -8.95679
2 1 1.5722 1.57228 1.57222 -8.94932
3 1 3.14478 1.73725e-15 -6.14125e-05 -8.94968
4 1 4.71714 1.57223 1.57219 -8.94969
175 1 18.8696 9.4342 9.43452 -8.94808
6 1 7.86207 1.57221 1.57217 -8.94955
7 1 9.43452 1.51969e-15 -7.78248e-05 -8.94962
8 1 11.007 1.5722 1.57216 -8.94958
174 1 15.723 9.43478 9.43445 -8.94043
10 1 14.1519 1.57221 1.57222 -8.94955
173 1 12.5596 9.44387 9.43358 -8.90218
12 1 17.2969 1.57217 1.57221 -8.94951
190 1 1.56992 7.86168 11.0071 -8.9518
14 1 20.4415 1.57234 1.57236 -8.94962
172 1 9.35761 9.20022 9.43166 -8.16887
16 1 1.5722 4.71712 1.57221 -8.94975
17 1 3.14461 3.14459 -0.000212522 -8.94955
18 1 4.71653 4.71654 1.57132 -8.94947
171 1 6.27685 9.42273 9.43045 -9.00483
20 1 7.86191 4.7166 1.57158 -8.94921
170 1 3.14162 9.43502 9.43451 -8.95283
22 1 11.007 4.71651 1.57162 -8.94943
189 1 20.4414 4.71693 11.007 -8.94957
24 1 14.1521 4.71648 1.57166 -8.9497
169 1 -0.00069329 9.43461 9.4345 -8.94976
26 1 17.2975 4.71641 1.57167 -8.94838
168 1 18.8696 6.28908 9.43452 -8.94959
28 1 20.4417 4.71708 1.57223 -8.94958
29 1 22.0139 6.28965 -5.54814e-05 -8.94961
30 1 1.57224 7.86208 1.57221 -8.94947
167 1 15.7259 6.28813 9.43452 -8.94719
32 1 4.71684 7.86217 1.57198 -8.94971
33 1 6.28934 6.28933 -0.000560595 -8.95039
34 1 7.86175 7.86179 1.57059 -8.95216
35 1 9.43433 6.28908 -0.000542344 -8.94955
36 1 11.0068 7.86117 1.57024 -8.95036
37 1 12.5795 6.28909 -0.000506491 -8.94957
38 1 14.1531 7.86083 1.56956 -8.95141
166 1 12.5792 6.29006 9.43296 -8.94315
40 1 17.2975 7.86169 1.57164 -8.94935
165 1 9.42981 6.2915 9.43401 -9.00386
42 1 20.4417 7.86201 1.5722 -8.94953
164 1 6.27971 6.27937 9.43362 -8.9428
163 1 3.14092 6.28758 9.43424 -8.94867
162 1 22.013 6.28921 9.43447 -8.94988
161 1 18.8692 3.14457 9.43453 -8.94962
160 1 15.7248 3.1442 9.43452 -8.94971
48 1 15.7249 9.43429 -0.000722064 -8.94937
188 1 17.2973 4.71662 11.0069 -8.94907
50 1 -9.31715e-05 8.93611e-16 3.14478 -8.94963
51 1 1.57214 1.57222 4.71709 -8.94959
52 1 3.14453 1.07791e-15 3.14452 -8.94956
53 1 4.71668 1.57165 4.71662 -8.94993
54 1 6.28961 5.82094e-16 3.14455 -8.9496
55 1 7.86209 1.57174 4.71675 -8.94959
56 1 9.43455 1.12033e-15 3.14451 -8.94958
57 1 11.0072 1.57173 4.71674 -8.94957
58 1 12.5795 1.25633e-15 3.14455 -8.94953
59 1 14.1521 1.57173 4.71698 -8.95045
60 1 15.7244 1.1573e-15 3.14463 -8.9499
61 1 17.2968 1.57227 4.71726 -8.94965
62 1 18.8691 9.26936e-16 3.14483 -8.94967
63 1 20.4415 1.57234 4.71722 -8.94958
64 1 22.0136 3.14463 3.14464 -8.94953
65 1 1.57131 4.71658 4.71655 -8.94951
66 1 3.14399 3.14405 3.14397 -8.9484
67 1 4.71394 4.71399 4.71387 -8.94475
68 1 6.28938 3.14404 3.14409 -8.94972
69 1 7.86144 4.71463 4.71524 -8.94922
70 1 9.43452 3.14399 3.14412 -8.94943
71 1 11.0074 4.7147 4.71536 -8.9479
72 1 12.5796 3.14396 3.14421 -8.94922
73 1 14.1541 4.71349 4.71511 -8.94987
74 1 15.725 3.14371 3.14414 -8.94943
75 1 17.2973 4.71664 4.71712 -8.95026
76 1 18.8692 3.14462 3.14474 -8.9498
77 1 20.4414 4.71704 4.71714 -8.94977
78 1 22.0139 6.28958 3.14462 -8.94979
79 1 1.57184 7.86217 4.71687 -8.94977
80 1 3.14407 6.28944 3.14411 -8.95021
81 1 4.71522 7.86198 4.71552 -8.95133
82 1 6.2875 6.2876 3.1411 -8.94997
83 1 7.85677 7.85655 4.70738 -8.9536
84 1 9.43413 6.2878 3.14229 -8.94787
85 1 11.0076 7.85767 4.7092 -8.9509
86 1 12.5802 6.28767 3.14218 -8.94925
87 1 14.1635 7.85105 4.70592 -8.93012
88 1 15.7275 6.28641 3.14168 -8.94473
89 1 17.3 7.86051 4.71572 -8.95078
90 1 18.8701 6.28907 3.14425 -8.94965
91 1 20.4421 7.86188 4.71697 -8.95009
92 1 -8.02507e-06 9.43447 3.14453 -8.94957
93 1 3.14419 9.43453 3.14417 -8.94902
94 1 6.28915 9.43514 3.14375 -8.94935
95 1 9.43501 9.43445 3.14284 -8.95153
96 1 12.5818 9.43332 3.13736 -8.95893
97 1 15.727 9.43352 3.1421 -8.94783
98 1 18.8701 9.43432 3.14421 -8.94933
99 1 22.0138 4.03666e-16 6.28964 -8.94961
100 1 1.57208 1.57218 7.86202 -8.94958
101 1 3.14444 1.33405e-16 6.28947 -8.94945
102 1 4.71648 1.5715 7.86175 -8.94935
103 1 6.2894 9.3487e-16 6.2893 -8.95051
104 1 7.86203 1.57095 7.86189 -8.95128
105 1 9.43473 1.6636e-15 6.28933 -8.95009
106 1 11.0072 1.57179 7.86206 -8.9495
107 1 12.5796 1.22222e-15 6.28957 -8.95028
108 1 14.1522 1.572 7.86205 -8.94935
109 1 15.7244 1.63922e-15 6.28965 -8.94949
110 1 17.2969 1.57223 7.86209 -8.94961
111 1 18.8691 5.60547e-16 6.28966 -8.9496
112 1 20.4415 1.57232 7.86208 -8.94962
113 1 22.0136 3.14458 6.28956 -8.94951
114 1 1.57125 4.71651 7.8618 -8.94926
115 1 3.14391 3.14391 6.28916 -8.94931
116 1 4.71421 4.71402 7.86075 -8.94776
117 1 6.28842 3.14183 6.28831 -8.95144
118 1 7.85974 4.70953 7.86056 -8.95891
119 1 9.43486 3.14252 6.28876 -8.95029
120 1 11.0068 4.71528 7.86187 -8.95185
121 1 12.5798 3.14288 6.28936 -8.9523
122 1 14.1526 4.71616 7.86247 -8.94842
123 1 15.7246 3.14429 6.28978 -8.94947
124 1 17.2973 4.71662 7.8621 -8.94917
125 1 18.8692 3.14461 6.28965 -8.94949
126 1 20.4414 4.71694 7.86203 -8.94958
127 1 -0.000704564 6.28937 6.2894 -8.95015
128 1 1.57012 7.86181 7.86177 -8.95192
129 1 3.14109 6.28778 6.28767 -8.95025
130 1 4.70656 7.85766 7.85843 -8.95631
131 1 6.27794 6.27808 6.27823 -8.93014
132 1 7.82198 7.82594 7.82798 -8.85336
133 1 9.43429 6.28185 6.28518 -8.95094
134 1 11.0222 7.85403 7.83856 -8.90547
135 1 12.5852 6.27985 6.28367 -8.9535
136 1 14.1553 7.86136 7.86462 -8.95248
137 1 15.726 6.28841 6.28983 -8.95142
138 1 17.2981 7.86153 7.8627 -8.94966
139 1 18.8696 6.28932 6.28973 -8.94972
140 1 20.4415 7.86187 7.8621 -8.94994
141 1 22.0137 9.43456 6.28941 -8.94985
142 1 3.14329 9.43519 6.289 -8.94974
143 1 6.28573 9.43642 6.28714 -8.95202
144 1 9.42163 9.41189 6.28125 -8.90501
145 1 12.6193 9.40172 6.25367 -8.85468
146 1 15.7336 9.43222 6.28649 -8.95794
147 1 18.8711 9.4343 6.28944 -8.95158
148 1 -0.000129795 5.4526e-16 9.43452 -8.94962
149 1 3.14439 2.67313e-16 9.4345 -8.94956
150 1 6.28909 4.98927e-16 9.43438 -8.95023
151 1 9.43477 1.25937e-15 9.4344 -8.94884
152 1 12.5798 1.54374e-15 9.43438 -8.94941
153 1 15.7245 1.91711e-15 9.43452 -8.94967
154 1 18.8691 1.18712e-15 9.43453 -8.94962
155 1 -0.000295234 3.14456 9.43451 -8.94957
156 1 3.1438 3.14385 9.43445 -8.94955
157 1 6.28772 3.14124 9.43418 -8.94935
158 1 9.43464 3.14334 9.4343 -8.94654
159 1 12.5801 3.14394 9.43411 -8.94823
177 1 4.71648 1.5715 11.0071 -8.94944
181 1 17.2969 1.57222 11.007 -8.94959
184 1 4.71413 4.71398 11.0079 -8.94811
11 1 15.7243 1.71084e-15 -5.37855e-05 -8.94962
25 1 15.7244 3.14458 -0.000146887 -8.94967
41 1 18.8693 6.28954 -0.000161797 -8.94961
44 1 3.14454 9.4345 -0.000114264 -8.94951
176 1 1.57207 1.57218 11.007 -8.94957
343 1 18.8694 9.43447 18.8693 -8.94958
178 1 7.86187 1.57062 11.0068 -8.95141
179 1 11.0073 1.57143 11.0067 -8.94981
180 1 14.1522 1.57207 11.0068 -8.94934
342 1 15.7251 9.43426 18.87 -8.94936
182 1 20.4415 1.57232 11.007 -8.94962
341 1 12.5799 9.43431 18.8711 -8.95164
340 1 9.43507 9.43371 18.8714 -8.94795
185 1 7.859 4.70804 11.0072 -8.95738
186 1 11.0078 4.71344 11.0058 -8.95097
187 1 14.1524 4.71648 11.0062 -8.94913
339 1 6.2884 9.43365 18.8713 -8.94888
338 1 3.14438 9.4345 18.8694 -8.94971
337 1 22.0138 9.43451 18.8692 -8.94959
336 1 20.4416 7.86207 20.4415 -8.94962
192 1 7.82007 7.8238 11.0374 -8.90464
193 1 11.0262 7.84979 11.0232 -8.93573
194 1 14.1552 7.86184 11.0045 -8.95512
195 1 17.298 7.86159 11.0064 -8.94976
196 1 20.4414 7.86185 11.0069 -8.94995
197 1 22.0138 5.18911e-16 12.5794 -8.94961
198 1 1.5721 1.5722 14.152 -8.94959
199 1 3.14441 5.6164e-16 12.5795 -8.94949
200 1 4.71658 1.57154 14.1524 -8.94997
201 1 6.28931 8.65561e-17 12.5797 -8.95049
202 1 7.86191 1.57134 14.1525 -8.94968
203 1 9.43473 -1.2895e-16 12.5797 -8.95098
204 1 11.0074 1.57131 14.1525 -8.94984
205 1 12.5797 1.0815e-15 12.5794 -8.95019
206 1 14.1522 1.5717 14.1521 -8.95034
207 1 15.7244 1.76018e-15 12.5793 -8.94954
208 1 17.2968 1.57227 14.1518 -8.94969
209 1 18.8691 1.09556e-15 12.5794 -8.94959
210 1 20.4415 1.57234 14.1518 -8.94959
211 1 22.0136 3.14457 12.5795 -8.94953
212 1 1.57124 4.71653 14.1524 -8.94964
213 1 3.14384 3.14384 12.5798 -8.94929
214 1 4.7136 4.71355 14.1552 -8.94503
215 1 6.28829 3.14144 12.5806 -8.95136
216 1 7.86064 4.71298 14.1545 -8.94768
217 1 9.43487 3.14055 12.5802 -8.95327
218 1 11.0085 4.71269 14.1546 -8.94727
219 1 12.58 3.14261 12.5796 -8.95181
220 1 14.1542 4.71351 14.1538 -8.94998
221 1 15.7246 3.14434 12.5792 -8.94962
222 1 17.2973 4.71663 14.1519 -8.95024
223 1 18.8692 3.14461 12.5794 -8.94948
224 1 20.4414 4.71701 14.1519 -8.94976
225 1 22.0131 6.2893 12.5796 -8.95005
226 1 1.57139 7.86194 14.1522 -8.94993
227 1 3.141 6.2877 12.581 -8.95023
228 1 4.71391 7.86081 14.1536 -8.95014
229 1 6.27787 6.27699 12.5904 -8.9313
230 1 7.85452 7.85424 14.1634 -9.00416
231 1 9.43479 6.27108 12.5831 -8.96471
232 1 11.0117 7.85298 14.1643 -8.98159
233 1 12.585 6.27973 12.5849 -8.953
234 1 14.1636 7.85138 14.1628 -8.93265
235 1 15.726 6.28843 12.5791 -8.95125
236 1 17.3 7.86056 14.1532 -8.95089
237 1 18.8695 6.28931 12.5793 -8.94972
238 1 20.442 7.86185 14.1521 -8.95018
239 1 22.0135 9.43455 12.5796 -8.95004
240 1 3.14253 9.43495 12.58 -8.95085
241 1 6.28228 9.43206 12.5805 -8.98668
242 1 9.44301 9.36049 12.5851 -9.16599
243 1 12.6154 9.40314 12.6156 -8.90753
244 1 15.733 9.43233 12.5825 -8.95686
245 1 18.8709 9.4343 12.5796 -8.95143
246 1 -0.000109664 5.55513e-16 15.7243 -8.94963
247 1 1.57215 1.57224 17.2969 -8.94931
248 1 3.14447 5.04222e-16 15.7246 -8.94958
249 1 4.71703 1.57211 17.297 -8.94966
250 1 6.28948 9.10111e-16 15.7246 -8.94963
251 1 7.86204 1.57212 17.297 -8.94953
252 1 9.43456 1.02496e-15 15.7247 -8.94955
253 1 11.007 1.57211 17.297 -8.94956
254 1 12.5797 1.07799e-15 15.7246 -8.9496
255 1 14.152 1.57209 17.297 -8.94948
256 1 15.7245 7.7972e-17 15.7244 -8.94987
257 1 17.2969 1.57217 17.2969 -8.94954
258 1 18.8691 7.71688e-16 15.7242 -8.94969
259 1 20.4415 1.57234 17.2967 -8.94964
260 1 -0.000283393 3.14461 15.7244 -8.94958
261 1 1.57209 4.71704 17.297 -8.94971
262 1 3.14384 3.1439 15.7251 -8.9484
263 1 4.71622 4.71608 17.2981 -8.94944
264 1 6.28908 3.14353 15.7253 -8.94962
265 1 7.86185 4.7163 17.2978 -8.94909
266 1 9.4345 3.14356 15.7251 -8.94931
267 1 11.0071 4.71622 17.2978 -8.94971
268 1 12.58 3.14342 15.7252 -8.94906
269 1 14.1525 4.7161 17.2978 -8.94916
270 1 15.725 3.1437 15.7249 -8.9495
271 1 17.2976 4.71638 17.2974 -8.94848
272 1 18.8692 3.14461 15.7243 -8.9498
273 1 20.4417 4.71704 17.2969 -8.94958
274 1 22.0137 6.28949 15.7245 -8.94977
275 1 1.57196 7.862 17.297 -8.94983
276 1 3.14365 6.28913 15.7251 -8.94983
277 1 4.71557 7.86091 17.2985 -8.94778
278 1 6.28671 6.28621 15.7287 -8.95051
279 1 7.86185 7.86157 17.2995 -8.95254
280 1 9.43397 6.28669 15.727 -8.9483
281 1 11.0074 7.8604 17.3004 -8.95083
282 1 12.5816 6.2863 15.7282 -8.94724
283 1 14.1537 7.86049 17.3 -8.95081
284 1 15.7277 6.28639 15.7274 -8.94524
285 1 17.2976 7.86164 17.2975 -8.94939
286 1 18.8701 6.28906 15.7248 -8.94973
287 1 20.4417 7.862 17.2969 -8.9496
288 1 -0.00014435 9.43448 15.7245 -8.94967
289 1 3.14368 9.43458 15.7248 -8.95073
290 1 6.28526 9.43044 15.7293 -8.98
291 1 9.4371 9.43207 15.7281 -9.00235
292 1 12.5834 9.43262 15.7335 -8.95764
293 1 15.7274 9.43348 15.7271 -8.94819
294 1 18.8701 9.43431 15.7249 -8.94943
295 1 22.0138 1.9415e-15 18.8691 -8.94948
296 1 1.57231 1.57232 20.4415 -8.94951
297 1 3.14473 1.34717e-15 18.8692 -8.94965
298 1 4.71721 1.57232 20.4415 -8.94962
299 1 6.28964 1.31207e-15 18.8692 -8.9496
300 1 7.86208 1.5723 20.4415 -8.94961
301 1 9.43453 1.71483e-15 18.8692 -8.94962
302 1 11.007 1.57229 20.4415 -8.94961
303 1 12.5794 1.6612e-15 18.8692 -8.94962
304 1 14.1518 1.57231 20.4415 -8.94962
305 1 15.7243 7.91895e-16 18.8692 -8.94956
306 1 17.2967 1.57233 20.4415 -8.94963
307 1 18.8691 1.43594e-15 18.8691 -8.94954
308 1 20.4415 1.57237 20.4415 -8.94948
309 1 22.0139 3.14475 18.8692 -8.94962
310 1 1.57227 4.71715 20.4416 -8.94954
311 1 3.14452 3.14449 18.8694 -8.94949
312 1 4.717 4.71695 20.4416 -8.94997
313 1 6.28957 3.1445 18.8694 -8.94955
314 1 7.86197 4.71685 20.4416 -8.94952
315 1 9.43451 3.14444 18.8694 -8.94957
316 1 11.007 4.71682 20.4416 -8.9496
317 1 12.5795 3.14448 18.8694 -8.94963
318 1 14.152 4.71686 20.4416 -8.94956
319 1 15.7244 3.1445 18.8693 -8.94954
320 1 17.297 4.71692 20.4415 -8.94953
321 1 18.8693 3.14462 18.8692 -8.94933
322 1 20.4415 4.71719 20.4415 -8.94964
323 1 -8.30256e-05 6.28961 18.8692 -8.94965
324 1 1.57225 7.86207 20.4415 -8.94965
325 1 3.1443 6.28931 18.8696 -8.94916
326 1 4.71668 7.86174 20.4421 -8.94943
327 1 6.28929 6.28913 18.87 -8.9507
328 1 7.86194 7.86182 20.4419 -8.95007
329 1 9.43434 6.28884 18.8701 -8.94951
330 1 11.0071 7.86147 20.4421 -8.95003
331 1 12.5797 6.28888 18.8702 -8.94959
332 1 14.1523 7.86169 20.4417 -8.9505
333 1 15.725 6.28897 18.8699 -8.94979
334 1 17.2971 7.86193 20.4415 -8.94947
335 1 18.8693 6.28951 18.8693 -8.94961
5 1 6.28965 9.34854e-16 22.0138 -8.9496
9 1 12.5794 1.76183e-15 22.0138 -8.94961
47 1 12.5796 9.4344 22.0127 -8.95137
15 1 -2.16154e-05 3.14476 22.0138 -8.94959
19 1 6.2896 3.14459 22.0137 -8.94954
21 1 9.4345 3.14454 22.0137 -8.94958
46 1 9.43451 9.43439 22.0138 -8.94961
27 1 18.8693 3.14463 22.0138 -8.94931
31 1 3.14457 6.28956 22.0139 -8.94963
39 1 15.7248 6.28905 22.0132 -8.94991
45 1 6.28923 9.43443 22.0141 -8.94969
43 1 -2.4479e-05 9.43451 22.0138 -8.94961
1 1 -6.30837e-05 1.44599e-15 22.0139 -8.94947
13 1 18.8691 1.5369e-15 22.0138 -8.94951
23 1 12.5794 3.14455 22.0137 -8.94956
49 1 18.8694 9.43448 22.0137 -8.94959
183 1 1.57123 4.71649 11.0071 -8.94932
344 1 1.57221 11.007 1.57216 -8.94961
345 1 4.71669 11.007 1.57182 -8.94957
346 1 7.86184 11.007 1.57215 -8.94917
347 1 11.0069 11.007 1.57142 -8.94673
348 1 14.1535 11.007 1.56942 -8.94946
349 1 17.2975 11.007 1.57162 -8.94952
350 1 20.4417 11.007 1.57218 -8.94957
688 3 10.2155 11.007 9.43288 2.30775
352 1 1.57224 14.1518 1.57221 -8.94947
511 1 18.8692 18.8693 9.43453 -8.94962
354 1 4.71684 14.1517 1.57198 -8.94971
510 1 15.7248 18.8697 9.43452 -8.94971
356 1 7.86175 14.1521 1.57059 -8.95216
509 1 12.5801 18.87 9.43411 -8.94823
358 1 11.0068 14.1527 1.57024 -8.95036
508 1 9.43464 18.8706 9.4343 -8.94654
360 1 14.1531 14.1531 1.56956 -8.95141
361 1 15.7249 12.5796 -0.000722064 -8.94937
362 1 17.2975 14.1522 1.57164 -8.94935
538 1 17.2969 20.4417 11.007 -8.94959
364 1 20.4417 14.1519 1.5722 -8.94953
365 1 22.0139 15.7243 -5.54814e-05 -8.94961
366 1 1.5722 17.2968 1.57221 -8.94975
507 1 6.28772 18.8727 9.43418 -8.94935
368 1 4.71653 17.2974 1.57132 -8.94947
369 1 6.28934 15.7246 -0.000560595 -8.95039
370 1 7.86191 17.2973 1.57158 -8.94921
371 1 9.43433 15.7248 -0.000542344 -8.94955
372 1 11.007 17.2974 1.57162 -8.94943
373 1 12.5795 15.7248 -0.000506491 -8.94957
374 1 14.1521 17.2974 1.57166 -8.9497
506 1 3.1438 18.8701 9.43445 -8.94955
376 1 17.2975 17.2975 1.57167 -8.94838
505 1 -0.000295234 18.8693 9.43451 -8.94957
378 1 20.4417 17.2968 1.57223 -8.94958
504 1 18.8696 15.7248 9.43452 -8.94959
380 1 1.5722 20.4416 1.57222 -8.94932
381 1 3.14461 18.8693 -0.000212522 -8.94955
382 1 4.71714 20.4417 1.57219 -8.94969
503 1 15.7259 15.7258 9.43452 -8.94719
384 1 7.86207 20.4417 1.57217 -8.94955
502 1 12.5792 15.7238 9.43296 -8.94315
386 1 11.007 20.4417 1.57216 -8.94958
534 1 4.71648 20.4424 11.0071 -8.94944
388 1 14.1519 20.4417 1.57222 -8.94955
501 1 9.42981 15.7224 9.43401 -9.00386
390 1 17.2969 20.4417 1.57221 -8.94951
500 1 6.27971 15.7345 9.43362 -8.9428
392 1 20.4415 20.4416 1.57236 -8.94962
393 1 1.57179 11.007 4.71661 -8.94951
394 1 4.71567 11.007 4.71539 -8.9462
395 1 7.86412 11.007 4.7174 -8.94881
396 1 11.0118 11.007 4.71976 -9.00263
397 1 14.1611 11.007 4.70836 -8.94239
398 1 17.3 11.007 4.71555 -8.94905
399 1 20.4421 11.007 4.71686 -8.94987
400 1 -8.02507e-06 12.5794 3.14453 -8.94957
401 1 1.57184 14.1517 4.71687 -8.94977
402 1 3.14419 12.5794 3.14417 -8.94902
403 1 4.71522 14.1519 4.71552 -8.95133
404 1 6.28915 12.5788 3.14375 -8.94935
405 1 7.85677 14.1574 4.70738 -8.9536
406 1 9.43501 12.5795 3.14284 -8.95153
407 1 11.0076 14.1562 4.7092 -8.9509
408 1 12.5818 12.5806 3.13736 -8.95893
409 1 14.1635 14.1628 4.70592 -8.93012
410 1 15.727 12.5804 3.1421 -8.94783
411 1 17.3 14.1534 4.71572 -8.95078
412 1 18.8701 12.5796 3.14421 -8.94933
413 1 20.4421 14.152 4.71697 -8.95009
414 1 22.0139 15.7243 3.14462 -8.94979
415 1 1.57131 17.2973 4.71655 -8.94951
416 1 3.14407 15.7245 3.14411 -8.95021
417 1 4.71394 17.2999 4.71387 -8.94475
418 1 6.2875 15.7263 3.1411 -8.94997
419 1 7.86144 17.2993 4.71524 -8.94922
420 1 9.43413 15.7261 3.14229 -8.94787
421 1 11.0074 17.2992 4.71536 -8.9479
422 1 12.5802 15.7262 3.14218 -8.94925
423 1 14.1541 17.3004 4.71511 -8.94987
424 1 15.7275 15.7275 3.14168 -8.94473
425 1 17.2973 17.2973 4.71712 -8.95026
426 1 18.8701 15.7248 3.14425 -8.94965
427 1 20.4414 17.2969 4.71714 -8.94977
428 1 22.0136 18.8693 3.14464 -8.94953
429 1 1.57214 20.4417 4.71709 -8.94959
430 1 3.14399 18.8699 3.14397 -8.9484
431 1 4.71668 20.4423 4.71662 -8.94993
432 1 6.28938 18.8699 3.14409 -8.94972
433 1 7.86209 20.4422 4.71675 -8.94959
434 1 9.43452 18.8699 3.14412 -8.94943
435 1 11.0072 20.4422 4.71674 -8.94957
436 1 12.5796 18.8699 3.14421 -8.94922
437 1 14.1521 20.4422 4.71698 -8.95045
438 1 15.725 18.8702 3.14414 -8.94943
439 1 17.2968 20.4416 4.71726 -8.94965
440 1 18.8692 18.8693 3.14474 -8.9498
441 1 20.4415 20.4416 4.71722 -8.94958
442 1 1.57168 11.007 7.86164 -8.94772
443 1 4.71869 11.007 7.862 -8.94
444 1 7.88286 11.007 7.8611 -8.91201
445 1 11.0866 11.007 7.6325 -8.12005
446 1 14.161 11.007 7.85502 -8.97251
447 1 17.2993 11.007 7.86251 -8.95129
448 1 20.442 11.007 7.86214 -8.94966
449 1 22.0137 12.5793 6.28941 -8.94985
450 1 1.57012 14.1521 7.86177 -8.95192
451 1 3.14329 12.5787 6.289 -8.94974
452 1 4.70656 14.1562 7.85843 -8.95631
453 1 6.28573 12.5775 6.28714 -8.95202
454 1 7.82198 14.188 7.82798 -8.85336
455 1 9.42163 12.602 6.28125 -8.90501
456 1 11.0222 14.1599 7.83856 -8.90547
457 1 12.6193 12.6122 6.25367 -8.85468
458 1 14.1553 14.1525 7.86462 -8.95248
459 1 15.7336 12.5817 6.28649 -8.95794
460 1 17.2981 14.1524 7.8627 -8.94966
461 1 18.8711 12.5796 6.28944 -8.95158
462 1 20.4415 14.152 7.8621 -8.94994
463 1 -0.000704564 15.7245 6.2894 -8.95015
464 1 1.57125 17.2974 7.8618 -8.94926
465 1 3.14109 15.7261 6.28767 -8.95025
466 1 4.71421 17.2999 7.86075 -8.94776
467 1 6.27794 15.7358 6.27823 -8.93014
468 1 7.85974 17.3044 7.86056 -8.95891
469 1 9.43429 15.7321 6.28518 -8.95094
470 1 11.0068 17.2986 7.86187 -8.95185
471 1 12.5852 15.734 6.28367 -8.9535
472 1 14.1526 17.2977 7.86247 -8.94842
473 1 15.726 15.7255 6.28983 -8.95142
474 1 17.2973 17.2973 7.8621 -8.94917
475 1 18.8696 15.7246 6.28973 -8.94972
476 1 20.4414 17.297 7.86203 -8.94958
477 1 22.0136 18.8693 6.28956 -8.94951
478 1 1.57208 20.4417 7.86202 -8.94958
479 1 3.14391 18.87 6.28916 -8.94931
480 1 4.71648 20.4424 7.86175 -8.94935
481 1 6.28842 18.8721 6.28831 -8.95144
482 1 7.86203 20.443 7.86189 -8.95128
483 1 9.43486 18.8714 6.28876 -8.95029
484 1 11.0072 20.4421 7.86206 -8.9495
485 1 12.5798 18.871 6.28936 -8.9523
486 1 14.1522 20.4419 7.86205 -8.94935
487 1 15.7246 18.8696 6.28978 -8.94947
488 1 17.2969 20.4417 7.86209 -8.94961
489 1 18.8692 18.8693 6.28965 -8.94949
490 1 20.4415 20.4416 7.86208 -8.94962
491 1 -0.00069329 12.5793 9.4345 -8.94976
492 1 3.14162 12.5789 9.43451 -8.95283
493 1 6.27685 12.5912 9.43045 -9.00483
494 1 9.35761 12.8137 9.43166 -8.16887
495 1 12.5596 12.57 9.43358 -8.90218
496 1 15.723 12.5791 9.43445 -8.94043
497 1 18.8696 12.5797 9.43452 -8.94808
498 1 22.013 15.7247 9.43447 -8.94988
499 1 3.14092 15.7263 9.43424 -8.94867
512 1 1.57165 11.007 11.0073 -8.94726
514 1 7.85922 11.007 10.9471 -9.17162
519 1 1.56992 14.1522 11.0071 -8.9518
520 1 4.70634 14.1563 11.0088 -8.95679
532 1 20.4414 17.297 11.007 -8.94957
527 1 4.71413 17.2999 11.0079 -8.94811
531 1 17.2973 17.2973 11.0069 -8.94907
518 1 20.4419 11.007 11.0069 -8.94957
353 1 3.14454 12.5794 -0.000114264 -8.94951
389 1 15.7244 18.8693 -0.000146887 -8.94967
377 1 18.8693 15.7244 -0.000161797 -8.94961
687 2 8.66569 11.007 12.5741 0.76202
513 1 4.71963 11.007 11.0078 -8.99293
686 1 20.4415 20.4415 20.4415 -8.94948
515 1 11.0868 11.007 11.2332 -8.14687
516 1 14.1601 11.007 11.0139 -8.97375
517 1 17.2991 11.007 11.0065 -8.95132
391 1 18.8693 18.8693 22.0138 -8.94931
685 1 18.8693 18.8693 18.8692 -8.94933
684 1 17.2967 20.4416 20.4415 -8.94963
521 1 7.82007 14.1901 11.0374 -8.90464
522 1 11.0262 14.1641 11.0232 -8.93573
523 1 14.1552 14.1521 11.0045 -8.95512
524 1 17.298 14.1523 11.0064 -8.94976
525 1 20.4414 14.1521 11.0069 -8.94995
683 1 15.7244 18.8694 18.8693 -8.94954
682 1 14.1518 20.4416 20.4415 -8.94962
528 1 7.859 17.3059 11.0072 -8.95738
529 1 11.0078 17.3005 11.0058 -8.95097
530 1 14.1524 17.2974 11.0062 -8.94913
681 1 12.5795 18.8694 18.8694 -8.94963
680 1 11.007 20.4416 20.4415 -8.94961
533 1 1.57207 20.4417 11.007 -8.94957
679 1 9.43451 18.8695 18.8694 -8.94957
535 1 7.86187 20.4433 11.0068 -8.95141
536 1 11.0073 20.4425 11.0067 -8.94981
537 1 14.1522 20.4418 11.0068 -8.94934
678 1 7.86208 20.4416 20.4415 -8.94961
539 1 20.4415 20.4416 11.007 -8.94962
540 1 1.57171 11.007 14.1524 -8.94868
541 1 4.71715 11.007 14.1523 -8.99739
542 1 7.84326 11.007 14.1998 -9.20712
543 1 11.0157 11.007 14.1562 -9.03495
544 1 14.1614 11.007 14.1606 -8.94441
545 1 17.3001 11.007 14.1534 -8.94927
546 1 20.4421 11.007 14.1522 -8.94981
547 1 22.0135 12.5794 12.5796 -8.95004
548 1 1.57139 14.152 14.1522 -8.94993
549 1 3.14253 12.5789 12.58 -8.95085
550 1 4.71391 14.1531 14.1536 -8.95014
551 1 6.28228 12.5818 12.5805 -8.98668
552 1 7.85452 14.1597 14.1634 -9.00416
553 1 9.44301 12.6534 12.5851 -9.16599
554 1 11.0117 14.1609 14.1643 -8.98159
555 1 12.6154 12.6108 12.6156 -8.90753
556 1 14.1636 14.1625 14.1628 -8.93265
557 1 15.733 12.5816 12.5825 -8.95686
558 1 17.3 14.1533 14.1532 -8.95089
559 1 18.8709 12.5796 12.5796 -8.95143
560 1 20.442 14.1521 14.1521 -8.95018
561 1 22.0131 15.7246 12.5796 -8.95005
562 1 1.57124 17.2974 14.1524 -8.94964
563 1 3.141 15.7262 12.581 -8.95023
564 1 4.7136 17.3003 14.1552 -8.94503
565 1 6.27787 15.7369 12.5904 -8.9313
566 1 7.86064 17.3009 14.1545 -8.94768
567 1 9.43479 15.7428 12.5831 -8.96471
568 1 11.0085 17.3012 14.1546 -8.94727
569 1 12.585 15.7342 12.5849 -8.953
570 1 14.1542 17.3004 14.1538 -8.94998
571 1 15.726 15.7255 12.5791 -8.95125
572 1 17.2973 17.2973 14.1519 -8.95024
573 1 18.8695 15.7246 12.5793 -8.94972
574 1 20.4414 17.2969 14.1519 -8.94976
575 1 22.0136 18.8693 12.5795 -8.94953
576 1 1.5721 20.4417 14.152 -8.94959
577 1 3.14384 18.8701 12.5798 -8.94929
578 1 4.71658 20.4424 14.1524 -8.94997
579 1 6.28829 18.8725 12.5806 -8.95136
580 1 7.86191 20.4426 14.1525 -8.94968
581 1 9.43487 18.8733 12.5802 -8.95327
582 1 11.0074 20.4426 14.1525 -8.94984
583 1 12.58 18.8713 12.5796 -8.95181
584 1 14.1522 20.4422 14.1521 -8.95034
585 1 15.7246 18.8696 12.5792 -8.94962
586 1 17.2968 20.4416 14.1518 -8.94969
587 1 18.8692 18.8693 12.5794 -8.94948
588 1 20.4415 20.4416 14.1518 -8.94959
589 1 1.57204 11.007 17.297 -8.94941
590 1 4.71662 11.007 17.2977 -8.94942
591 1 7.86146 11.007 17.3072 -8.96337
592 1 11.007 11.007 17.2996 -8.94871
593 1 14.154 11.007 17.3002 -8.94876
594 1 17.2977 11.007 17.2975 -8.94948
595 1 20.4417 11.007 17.2969 -8.94959
596 1 -0.00014435 12.5794 15.7245 -8.94967
597 1 1.57196 14.1519 17.297 -8.94983
598 1 3.14368 12.5793 15.7248 -8.95073
599 1 4.71557 14.153 17.2985 -8.94778
600 1 6.28526 12.5835 15.7293 -8.98
601 1 7.86185 14.1523 17.2995 -8.95254
602 1 9.4371 12.5818 15.7281 -9.00235
603 1 11.0074 14.1535 17.3004 -8.95083
604 1 12.5834 12.5813 15.7335 -8.95764
605 1 14.1537 14.1534 17.3 -8.95081
606 1 15.7274 12.5804 15.7271 -8.94819
607 1 17.2976 14.1523 17.2975 -8.94939
608 1 18.8701 12.5796 15.7249 -8.94943
609 1 20.4417 14.1519 17.2969 -8.9496
610 1 22.0137 15.7244 15.7245 -8.94977
611 1 1.57209 17.2969 17.297 -8.94971
612 1 3.14365 15.7248 15.7251 -8.94983
613 1 4.71622 17.2978 17.2981 -8.94944
614 1 6.28671 15.7277 15.7287 -8.95051
615 1 7.86185 17.2976 17.2978 -8.94909
616 1 9.43397 15.7272 15.727 -8.9483
617 1 11.0071 17.2977 17.2978 -8.94971
618 1 12.5816 15.7276 15.7282 -8.94724
619 1 14.1525 17.2978 17.2978 -8.94916
620 1 15.7277 15.7275 15.7274 -8.94524
621 1 17.2976 17.2975 17.2974 -8.94848
622 1 18.8701 15.7248 15.7248 -8.94973
623 1 20.4417 17.2969 17.2969 -8.94958
624 1 -0.000283393 18.8693 15.7244 -8.94958
625 1 1.57215 20.4417 17.2969 -8.94931
626 1 3.14384 18.87 15.7251 -8.9484
627 1 4.71703 20.4418 17.297 -8.94966
628 1 6.28908 18.8704 15.7253 -8.94962
629 1 7.86204 20.4418 17.297 -8.94953
630 1 9.4345 18.8703 15.7251 -8.94931
631 1 11.007 20.4418 17.297 -8.94956
632 1 12.58 18.8705 15.7252 -8.94906
633 1 14.152 20.4418 17.297 -8.94948
634 1 15.725 18.8702 15.7249 -8.9495
635 1 17.2969 20.4417 17.2969 -8.94954
636 1 18.8692 18.8693 15.7243 -8.9498
637 1 20.4415 20.4416 17.2967 -8.94964
638 1 1.57224 11.007 20.4415 -8.94962
639 1 4.71679 11.007 20.4419 -8.9493
640 1 7.86183 11.007 20.4434 -8.95216
641 1 11.0069 11.007 20.4421 -8.949
642 1 14.1524 11.007 20.4417 -8.95009
643 1 17.2971 11.007 20.4415 -8.94953
644 1 20.4416 11.007 20.4415 -8.94962
645 1 22.0138 12.5794 18.8692 -8.94959
646 1 1.57225 14.1518 20.4415 -8.94965
647 1 3.14438 12.5794 18.8694 -8.94971
648 1 4.71668 14.1522 20.4421 -8.94943
649 1 6.2884 12.5802 18.8713 -8.94888
650 1 7.86194 14.1521 20.4419 -8.95007
651 1 9.43507 12.5802 18.8714 -8.94795
652 1 11.0071 14.1524 20.4421 -8.95003
653 1 12.5799 12.5796 18.8711 -8.95164
654 1 14.1523 14.1522 20.4417 -8.9505
655 1 15.7251 12.5796 18.87 -8.94936
656 1 17.2971 14.152 20.4415 -8.94947
657 1 18.8694 12.5794 18.8693 -8.94958
658 1 20.4416 14.1518 20.4415 -8.94962
659 1 -8.30256e-05 15.7243 18.8692 -8.94965
660 1 1.57227 17.2968 20.4416 -8.94954
661 1 3.1443 15.7246 18.8696 -8.94916
662 1 4.717 17.297 20.4416 -8.94997
663 1 6.28929 15.7248 18.87 -8.9507
664 1 7.86197 17.297 20.4416 -8.94952
665 1 9.43434 15.7251 18.8701 -8.94951
666 1 11.007 17.2971 20.4416 -8.9496
667 1 12.5797 15.725 18.8702 -8.94959
668 1 14.152 17.297 20.4416 -8.94956
669 1 15.725 15.7249 18.8699 -8.94979
670 1 17.297 17.297 20.4415 -8.94953
671 1 18.8693 15.7244 18.8693 -8.94961
672 1 20.4415 17.2967 20.4415 -8.94964
673 1 22.0139 18.8691 18.8692 -8.94962
674 1 1.57231 20.4416 20.4415 -8.94951
675 1 3.14452 18.8694 18.8694 -8.94949
676 1 4.71721 20.4416 20.4415 -8.94962
677 1 6.28957 18.8694 18.8694 -8.94955
351 1 -2.4479e-05 12.5794 22.0138 -8.94961
385 1 9.4345 18.8694 22.0137 -8.94958
355 1 6.28923 12.5795 22.0141 -8.94969
357 1 9.43451 12.5795 22.0138 -8.94961
359 1 12.5796 12.5795 22.0127 -8.95137
367 1 3.14457 15.7243 22.0139 -8.94963
375 1 15.7248 15.7249 22.0132 -8.94991
383 1 6.2896 18.8693 22.0137 -8.94954
379 1 -2.16154e-05 18.8691 22.0138 -8.94959
363 1 18.8694 12.5794 22.0137 -8.94959
387 1 12.5794 18.8694 22.0137 -8.94956
526 1 1.57123 17.2974 11.0071 -8.94932
