ITEM: TIMESTEP
31
ITEM: NUMBER OF ATOMS
688
ITEM: BOX BOUNDS pp pp pp
0.0000000000000000e+00 2.2013900999999997e+01
0.0000000000000000e+00 2.2013900999999997e+01
0.0000000000000000e+00 2.2013900999999997e+01
ITEM: ATOMS id type x y z c_pot
191 1 4.71722 7.86208 11.0069 -8.94939
2 1 1.57242 1.57242 1.57242 -8.94963
3 1 3.14484 7.23433e-17 6.53351e-12 -8.94963
4 1 4.71726 1.57242 1.57242 -8.94963
175 1 18.8691 9.43453 9.43453 -8.94964
6 1 7.86211 1.57242 1.57242 -8.94963
7 1 9.43453 1.94266e-16 5.59188e-11 -8.94963
8 1 11.007 1.57242 1.57242 -8.94963
174 1 15.7243 9.43452 9.43453 -8.95015
10 1 14.1518 1.57242 1.57242 -8.94963
173 1 12.5818 9.43276 9.4345 -8.91284
12 1 17.2966 1.57242 1.57242 -8.94963
190 1 1.57242 7.86211 11.007 -8.94963
14 1 20.4415 1.57242 1.57242 -8.94963
172 1 9.40618 9.37718 9.43461 -7.94586
16 1 1.57242 4.71726 1.57242 -8.94963
17 1 3.14484 3.14484 6.20338e-11 -8.94963
18 1 4.71726 4.71726 1.57242 -8.94963
171 1 6.28944 9.4345 9.43488 -8.99874
20 1 7.86211 4.71726 1.57242 -8.94963
170 1 3.14485 9.43453 9.43454 -8.94983
22 1 11.007 4.71726 1.57242 -8.94963
189 1 20.4415 4.71726 11.007 -8.94963
24 1 14.1518 4.71726 1.57242 -8.94963
169 1 1.11717e-07 9.43453 9.43453 -8.94963
26 1 17.2966 4.71726 1.57242 -8.94963
168 1 18.8691 6.28969 9.43453 -8.94963
28 1 20.4415 4.71726 1.57242 -8.94963
29 1 22.0139 6.28969 8.04766e-11 -8.94963
30 1 1.57242 7.86211 1.57242 -8.94963
167 1 15.7242 6.28969 9.43453 -8.94969
32 1 4.71726 7.86211 1.57242 -8.94963
33 1 6.28969 6.28969 -1.94044e-09 -8.94963
34 1 7.86211 7.86211 1.57242 -8.94963
35 1 9.43453 6.28969 8.63682e-09 -8.94963
36 1 11.007 7.86211 1.57242 -8.94964
37 1 12.5794 6.28969 9.37533e-09 -8.94963
38 1 14.1518 7.86211 1.57242 -8.94963
166 1 12.5794 6.28968 9.43453 -8.95057
40 1 17.2966 7.86211 1.57242 -8.94963
165 1 9.43452 6.28879 9.43453 -8.96193
42 1 20.4415 7.86211 1.57242 -8.94963
164 1 6.28972 6.28972 9.43453 -8.95092
163 1 3.14484 6.28969 9.43453 -8.94961
162 1 22.0139 6.28969 9.43453 -8.94963
161 1 18.8691 3.14484 9.43453 -8.94963
160 1 15.7242 3.14484 9.43453 -8.94963
48 1 15.7242 9.43453 1.09506e-08 -8.94963
188 1 17.2966 4.71726 11.007 -8.94963
50 1 2.22821e-12 2.30276e-16 3.14484 -8.94963
51 1 1.57242 1.57242 4.71726 -8.94963
52 1 3.14484 1.91757e-16 3.14484 -8.94963
53 1 4.71726 1.57242 4.71726 -8.94963
54 1 6.28969 2.58009e-16 3.14484 -8.94963
55 1 7.86211 1.57242 4.71726 -8.94963
56 1 9.43453 1.46015e-16 3.14484 -8.94963
57 1 11.007 1.57242 4.71726 -8.94963
58 1 12.5794 1.40505e-16 3.14484 -8.94963
59 1 14.1518 1.57242 4.71726 -8.94963
60 1 15.7242 2.18108e-16 3.14484 -8.94963
61 1 17.2966 1.57242 4.71726 -8.94963
62 1 18.8691 4.00664e-17 3.14484 -8.94963
63 1 20.4415 1.57242 4.71726 -8.94963
64 1 22.0139 3.14484 3.14484 -8.94963
65 1 1.57242 4.71726 4.71726 -8.94963
66 1 3.14484 3.14484 3.14484 -8.94963
67 1 4.71726 4.71726 4.71726 -8.94963
68 1 6.28969 3.14484 3.14484 -8.94963
69 1 7.86211 4.71727 4.71727 -8.94966
70 1 9.43453 3.14484 3.14484 -8.94963
71 1 11.007 4.71726 4.71726 -8.94964
72 1 12.5794 3.14484 3.14484 -8.94963
73 1 14.1518 4.71726 4.71726 -8.94963
74 1 15.7242 3.14484 3.14484 -8.94963
75 1 17.2966 4.71726 4.71726 -8.94963
76 1 18.8691 3.14484 3.14484 -8.94963
77 1 20.4415 4.71726 4.71726 -8.94963
78 1 22.0139 6.28969 3.14484 -8.94963
79 1 1.57242 7.86211 4.71726 -8.94963
80 1 3.14484 6.28969 3.14484 -8.94963
81 1 4.71726 7.86211 4.71726 -8.94964
82 1 6.28969 6.28969 3.14484 -8.94963
83 1 7.8621 7.8621 4.71725 -8.94973
84 1 9.43453 6.28969 3.14484 -8.94964
85 1 11.0069 7.86213 4.71729 -8.9505
86 1 12.5794 6.28969 3.14484 -8.94966
87 1 14.1518 7.8621 4.71725 -8.94932
88 1 15.7242 6.28969 3.14484 -8.94963
89 1 17.2966 7.86211 4.71726 -8.94963
90 1 18.8691 6.28969 3.14484 -8.94963
91 1 20.4415 7.86211 4.71726 -8.94963
92 1 1.12859e-09 9.43453 3.14484 -8.94963
93 1 3.14484 9.43453 3.14484 -8.94963
94 1 6.28969 9.43453 3.14484 -8.94964
95 1 9.43452 9.43452 3.14483 -8.94953
96 1 12.5794 9.43452 3.14483 -8.94966
97 1 15.7242 9.43453 3.14484 -8.94966
98 1 18.8691 9.43453 3.14484 -8.94963
99 1 22.0139 1.73905e-16 6.28969 -8.94963
100 1 1.57242 1.57242 7.86211 -8.94963
101 1 3.14484 3.79582e-17 6.28969 -8.94963
102 1 4.71726 1.57242 7.86211 -8.94963
103 1 6.28969 2.2056e-16 6.28969 -8.94963
104 1 7.86211 1.57242 7.86211 -8.94963
105 1 9.43453 2.93516e-16 6.28969 -8.94963
106 1 11.007 1.57242 7.86211 -8.94963
107 1 12.5794 1.98329e-16 6.28969 -8.94963
108 1 14.1518 1.57242 7.86211 -8.94963
109 1 15.7242 1.86435e-16 6.28969 -8.94963
110 1 17.2966 1.57242 7.86211 -8.94963
111 1 18.8691 1.03663e-16 6.28969 -8.94963
112 1 20.4415 1.57242 7.86211 -8.94963
113 1 22.0139 3.14484 6.28969 -8.94963
114 1 1.57242 4.71726 7.86211 -8.94963
115 1 3.14484 3.14484 6.28969 -8.94963
116 1 4.71727 4.71727 7.86211 -8.94966
117 1 6.28969 3.14484 6.28969 -8.94963
118 1 7.8621 4.71725 7.8621 -8.94966
119 1 9.43453 3.14484 6.28969 -8.94963
120 1 11.007 4.71725 7.8621 -8.94953
121 1 12.5794 3.14484 6.28969 -8.94963
122 1 14.1518 4.71726 7.86211 -8.94965
123 1 15.7242 3.14484 6.28969 -8.94963
124 1 17.2966 4.71726 7.86211 -8.94963
125 1 18.8691 3.14484 6.28969 -8.94963
126 1 20.4415 4.71726 7.86211 -8.94963
127 1 1.54263e-09 6.28969 6.28969 -8.94963
128 1 1.57242 7.86211 7.86211 -8.94964
129 1 3.14484 6.28969 6.28969 -8.94963
130 1 4.71726 7.86211 7.86211 -8.94986
131 1 6.28967 6.28967 6.28967 -8.94931
132 1 7.8614 7.86143 7.86139 -8.93224
133 1 9.43453 6.28971 6.28971 -8.9505
134 1 11.0072 7.86193 7.86183 -8.94409
135 1 12.5794 6.28967 6.28968 -8.94973
136 1 14.1518 7.86209 7.86208 -8.94933
137 1 15.7242 6.28969 6.28969 -8.94964
138 1 17.2966 7.86211 7.86211 -8.94963
139 1 18.8691 6.28969 6.28969 -8.94963
140 1 20.4415 7.86211 7.86211 -8.94963
141 1 22.0139 9.43453 6.28969 -8.94963
142 1 3.14484 9.43453 6.28969 -8.94963
143 1 6.28966 9.4345 6.28967 -8.94921
144 1 9.43427 9.43425 6.2895 -8.94402
145 1 12.5801 9.43381 6.28901 -8.93202
146 1 15.7242 9.43453 6.28968 -8.94977
147 1 18.8691 9.43453 6.28969 -8.94963
148 1 9.67741e-11 1.18634e-16 9.43453 -8.94963
149 1 3.14484 1.93727e-17 9.43453 -8.94963
150 1 6.28969 9.55207e-17 9.43453 -8.94963
151 1 9.43453 9.62523e-17 9.43453 -8.94964
152 1 12.5794 5.70171e-17 9.43453 -8.94963
153 1 15.7242 2.44339e-16 9.43453 -8.94963
154 1 18.8691 1.68489e-16 9.43453 -8.94963
155 1 5.79643e-10 3.14484 9.43453 -8.94963
156 1 3.14484 3.14484 9.43453 -8.94963
157 1 6.28969 3.14484 9.43453 -8.94963
158 1 9.43453 3.14483 9.43453 -8.94987
159 1 12.5794 3.14484 9.43453 -8.94964
177 1 4.71726 1.57242 11.007 -8.94963
181 1 17.2966 1.57242 11.007 -8.94963
184 1 4.71726 4.71726 11.0069 -8.94967
11 1 15.7242 1.74197e-16 5.52372e-12 -8.94963
25 1 15.7242 3.14484 6.49378e-11 -8.94963
41 1 18.8691 6.28969 1.09283e-10 -8.94963
44 1 3.14484 9.43453 5.13242e-10 -8.94963
176 1 1.57242 1.57242 11.007 -8.94963
343 1 18.8691 9.43453 18.8691 -8.94963
178 1 7.86211 1.57242 11.007 -8.94963
179 1 11.007 1.57242 11.007 -8.94963
180 1 14.1518 1.57242 11.007 -8.94963
342 1 15.7242 9.43453 18.8691 -8.94963
182 1 20.4415 1.57242 11.007 -8.94963
341 1 12.5794 9.43453 18.8691 -8.94964
340 1 9.43453 9.43453 18.8691 -8.94956
185 1 7.8621 4.71725 11.007 -8.94959
186 1 11.007 4.71726 11.007 -8.94939
187 1 14.1518 4.71726 11.007 -8.94964
339 1 6.28968 9.43453 18.8691 -8.9495
338 1 3.14484 9.43453 18.8691 -8.94963
337 1 22.0139 9.43453 18.8691 -8.94963
336 1 20.4415 7.86211 20.4415 -8.94963
192 1 7.86132 7.86152 11.0077 -8.98812
193 1 11.007 7.86228 11.0073 -8.98701
194 1 14.1518 7.8621 11.007 -8.94944
195 1 17.2966 7.86211 11.007 -8.94963
196 1 20.4415 7.86211 11.007 -8.94963
197 1 22.0139 6.64472e-19 12.5794 -8.94963
198 1 1.57242 1.57242 14.1518 -8.94963
199 1 3.14484 1.02144e-16 12.5794 -8.94963
200 1 4.71726 1.57242 14.1518 -8.94963
201 1 6.28969 -2.62309e-17 12.5794 -8.94963
202 1 7.86211 1.57242 14.1518 -8.94963
203 1 9.43453 -4.96269e-17 12.5794 -8.94963
204 1 11.007 1.57242 14.1518 -8.94963
205 1 12.5794 2.94234e-17 12.5794 -8.94963
206 1 14.1518 1.57242 14.1518 -8.94963
207 1 15.7242 2.03048e-16 12.5794 -8.94963
208 1 17.2966 1.57242 14.1518 -8.94963
209 1 18.8691 1.92466e-16 12.5794 -8.94963
210 1 20.4415 1.57242 14.1518 -8.94963
211 1 22.0139 3.14484 12.5794 -8.94963
212 1 1.57242 4.71726 14.1518 -8.94963
213 1 3.14484 3.14484 12.5794 -8.94963
214 1 4.71726 4.71726 14.1518 -8.94963
215 1 6.28969 3.14484 12.5794 -8.94964
216 1 7.86211 4.71726 14.1518 -8.94959
217 1 9.43453 3.14484 12.5794 -8.9497
218 1 11.007 4.71727 14.1518 -8.9495
219 1 12.5794 3.14484 12.5794 -8.94963
220 1 14.1518 4.71726 14.1518 -8.94963
221 1 15.7242 3.14484 12.5794 -8.94963
222 1 17.2966 4.71726 14.1518 -8.94963
223 1 18.8691 3.14484 12.5794 -8.94963
224 1 20.4415 4.71726 14.1518 -8.94963
225 1 22.0139 6.28969 12.5794 -8.94963
226 1 1.57242 7.86211 14.1518 -8.94963
227 1 3.14484 6.28969 12.5794 -8.94967
228 1 4.71724 7.86208 14.1518 -8.94926
229 1 6.28967 6.28965 12.5794 -8.94971
230 1 7.86202 7.86219 14.1518 -9.00584
231 1 9.43451 6.28947 12.5793 -8.95367
232 1 11.0068 7.86249 14.1517 -8.99344
233 1 12.5794 6.28969 12.5794 -8.95006
234 1 14.1518 7.8621 14.1518 -8.9494
235 1 15.7242 6.28969 12.5794 -8.94963
236 1 17.2966 7.86211 14.1518 -8.94963
237 1 18.8691 6.28969 12.5794 -8.94963
238 1 20.4415 7.86211 14.1518 -8.94963
239 1 22.0139 9.43453 12.5794 -8.94964
240 1 3.14482 9.43453 12.5794 -8.95017
241 1 6.2879 9.43334 12.5794 -8.98531
242 1 9.43996 9.42293 12.5795 -9.24014
243 1 12.5796 9.43411 12.5801 -8.9789
244 1 15.7242 9.43452 12.5794 -8.94964
245 1 18.8691 9.43453 12.5794 -8.94963
246 1 2.09106e-11 -5.37302e-17 15.7242 -8.94963
247 1 1.57242 1.57242 17.2966 -8.94963
248 1 3.14484 9.04775e-17 15.7242 -8.94963
249 1 4.71726 1.57242 17.2966 -8.94963
250 1 6.28969 1.66385e-16 15.7242 -8.94963
251 1 7.86211 1.57242 17.2966 -8.94963
252 1 9.43453 2.77913e-16 15.7242 -8.94963
253 1 11.007 1.57242 17.2966 -8.94963
254 1 12.5794 1.38825e-16 15.7242 -8.94963
255 1 14.1518 1.57242 17.2966 -8.94963
256 1 15.7242 7.1648e-18 15.7242 -8.94963
257 1 17.2966 1.57242 17.2966 -8.94963
258 1 18.8691 1.33608e-16 15.7242 -8.94963
259 1 20.4415 1.57242 17.2966 -8.94963
260 1 7.38577e-10 3.14484 15.7242 -8.94963
261 1 1.57242 4.71726 17.2966 -8.94963
262 1 3.14484 3.14484 15.7242 -8.94963
263 1 4.71726 4.71726 17.2966 -8.94963
264 1 6.28969 3.14484 15.7242 -8.94963
265 1 7.86211 4.71726 17.2966 -8.94963
266 1 9.43453 3.14484 15.7242 -8.94963
267 1 11.007 4.71726 17.2966 -8.94963
268 1 12.5794 3.14484 15.7242 -8.94963
269 1 14.1518 4.71726 17.2966 -8.94963
270 1 15.7242 3.14484 15.7242 -8.94963
271 1 17.2966 4.71726 17.2966 -8.94963
272 1 18.8691 3.14484 15.7242 -8.94963
273 1 20.4415 4.71726 17.2966 -8.94963
274 1 22.0139 6.28969 15.7242 -8.94963
275 1 1.57242 7.86211 17.2966 -8.94963
276 1 3.14484 6.28969 15.7242 -8.94962
277 1 4.71727 7.86211 17.2966 -8.94973
278 1 6.28969 6.28969 15.7242 -8.94964
279 1 7.86211 7.86211 17.2966 -8.94985
280 1 9.43453 6.28969 15.7242 -8.94986
281 1 11.0069 7.86211 17.2966 -8.94965
282 1 12.5794 6.28969 15.7242 -8.94975
283 1 14.1518 7.86211 17.2966 -8.94961
284 1 15.7242 6.28969 15.7242 -8.94963
285 1 17.2966 7.86211 17.2966 -8.94963
286 1 18.8691 6.28969 15.7242 -8.94963
287 1 20.4415 7.86211 17.2966 -8.94963
288 1 1.73344e-07 9.43453 15.7242 -8.94963
289 1 3.14485 9.43453 15.7242 -8.94972
290 1 6.28988 9.43456 15.7239 -8.99259
291 1 9.4346 9.43458 15.7241 -9.00564
292 1 12.5794 9.4345 15.7243 -8.94928
293 1 15.7242 9.43453 15.7242 -8.94966
294 1 18.8691 9.43453 15.7242 -8.94963
295 1 22.0139 6.35645e-17 18.8691 -8.94963
296 1 1.57242 1.57242 20.4415 -8.94963
297 1 3.14484 -1.45199e-17 18.8691 -8.94963
298 1 4.71726 1.57242 20.4415 -8.94963
299 1 6.28969 2.53351e-16 18.8691 -8.94963
300 1 7.86211 1.57242 20.4415 -8.94963
301 1 9.43453 2.85345e-16 18.8691 -8.94963
302 1 11.007 1.57242 20.4415 -8.94963
303 1 12.5794 2.42366e-16 18.8691 -8.94963
304 1 14.1518 1.57242 20.4415 -8.94963
305 1 15.7242 1.37743e-16 18.8691 -8.94963
306 1 17.2966 1.57242 20.4415 -8.94963
307 1 18.8691 1.63641e-16 18.8691 -8.94963
308 1 20.4415 1.57242 20.4415 -8.94963
309 1 22.0139 3.14484 18.8691 -8.94963
310 1 1.57242 4.71726 20.4415 -8.94963
311 1 3.14484 3.14484 18.8691 -8.94963
312 1 4.71726 4.71726 20.4415 -8.94963
313 1 6.28969 3.14484 18.8691 -8.94963
314 1 7.86211 4.71726 20.4415 -8.94963
315 1 9.43453 3.14484 18.8691 -8.94963
316 1 11.007 4.71726 20.4415 -8.94963
317 1 12.5794 3.14484 18.8691 -8.94963
318 1 14.1518 4.71726 20.4415 -8.94963
319 1 15.7242 3.14484 18.8691 -8.94963
320 1 17.2966 4.71726 20.4415 -8.94963
321 1 18.8691 3.14484 18.8691 -8.94963
322 1 20.4415 4.71726 20.4415 -8.94963
323 1 4.14232e-09 6.28969 18.8691 -8.94963
324 1 1.57242 7.86211 20.4415 -8.94963
325 1 3.14484 6.28969 18.8691 -8.94963
326 1 4.71726 7.86211 20.4415 -8.94963
327 1 6.28969 6.28969 18.8691 -8.94963
328 1 7.86211 7.86211 20.4415 -8.94964
329 1 9.43453 6.28969 18.8691 -8.94963
330 1 11.007 7.86211 20.4415 -8.94963
331 1 12.5794 6.28969 18.8691 -8.94963
332 1 14.1518 7.86211 20.4415 -8.94963
333 1 15.7242 6.28969 18.8691 -8.94963
334 1 17.2966 7.86211 20.4415 -8.94963
335 1 18.8691 6.28969 18.8691 -8.94963
5 1 6.28969 1.67516e-16 22.0139 -8.94963
9 1 12.5794 1.55599e-16 22.0139 -8.94963
47 1 12.5794 9.43453 22.0139 -8.94963
15 1 1.09513e-11 3.14484 22.0139 -8.94963
19 1 6.28969 3.14484 22.0139 -8.94963
21 1 9.43453 3.14484 22.0139 -8.94963
46 1 9.43453 9.43453 22.0139 -8.94963
27 1 18.8691 3.14484 22.0139 -8.94963
31 1 3.14484 6.28969 22.0139 -8.94963
39 1 15.7242 6.28969 22.0139 -8.94963
45 1 6.28969 9.43453 22.0139 -8.94963
43 1 4.80595e-10 9.43453 22.0139 -8.94963
1 1 3.44106e-13 1.37707e-16 22.0139 -8.94963
13 1 18.8691 2.09743e-16 22.0139 -8.94963
23 1 12.5794 3.14484 22.0139 -8.94963
49 1 18.8691 9.43453 22.0139 -8.94963
183 1 1.57242 4.71726 11.007 -8.94963
344 1 1.57242 11.007 1.57242 -8.94963
345 1 4.71726 11.007 1.57242 -8.94963
346 1 7.86211 11.007 1.57242 -8.94965
347 1 11.007 11.007 1.57241 -8.94987
348 1 14.1518 11.007 1.57242 -8.94963
349 1 17.2966 11.007 1.57242 -8.94963
350 1 20.4415 11.007 1.57242 -8.94963
688 3 10.2207 11.007 9.43454 4.23884
352 1 1.57242 14.1518 1.57242 -8.94963
511 1 18.8691 18.8691 9.43453 -8.94963
354 1 4.71726 14.1518 1.57242 -8.94963
510 1 15.7242 18.8691 9.43453 -8.94963
356 1 7.86211 14.1518 1.57242 -8.94963
509 1 12.5794 18.8691 9.43453 -8.94964
358 1 11.007 14.1518 1.57242 -8.94964
508 1 9.43453 18.8691 9.43453 -8.94987
360 1 14.1518 14.1518 1.57242 -8.94963
361 1 15.7242 12.5794 1.09506e-08 -8.94963
362 1 17.2966 14.1518 1.57242 -8.94963
538 1 17.2966 20.4415 11.007 -8.94963
364 1 20.4415 14.1518 1.57242 -8.94963
365 1 22.0139 15.7242 8.04767e-11 -8.94963
366 1 1.57242 17.2966 1.57242 -8.94963
507 1 6.28969 18.8691 9.43453 -8.94963
368 1 4.71726 17.2966 1.57242 -8.94963
369 1 6.28969 15.7242 -1.94044e-09 -8.94963
370 1 7.86211 17.2966 1.57242 -8.94963
371 1 9.43453 15.7242 8.63682e-09 -8.94963
372 1 11.007 17.2966 1.57242 -8.94963
373 1 12.5794 15.7242 9.37533e-09 -8.94963
374 1 14.1518 17.2966 1.57242 -8.94963
506 1 3.14484 18.8691 9.43453 -8.94963
376 1 17.2966 17.2966 1.57242 -8.94963
505 1 5.79643e-10 18.8691 9.43453 -8.94963
378 1 20.4415 17.2966 1.57242 -8.94963
504 1 18.8691 15.7242 9.43453 -8.94963
380 1 1.57242 20.4415 1.57242 -8.94963
381 1 3.14484 18.8691 6.20339e-11 -8.94963
382 1 4.71726 20.4415 1.57242 -8.94963
503 1 15.7242 15.7242 9.43453 -8.94969
384 1 7.86211 20.4415 1.57242 -8.94963
502 1 12.5794 15.7242 9.43453 -8.95057
386 1 11.007 20.4415 1.57242 -8.94963
534 1 4.71726 20.4415 11.007 -8.94963
388 1 14.1518 20.4415 1.57242 -8.94963
501 1 9.43452 15.7251 9.43453 -8.96193
390 1 17.2966 20.4415 1.57242 -8.94963
500 1 6.28972 15.7242 9.43453 -8.95092
392 1 20.4415 20.4415 1.57242 -8.94963
393 1 1.57242 11.007 4.71726 -8.94963
394 1 4.71727 11.007 4.71727 -8.94969
395 1 7.86212 11.007 4.71725 -8.95055
396 1 11.007 11.007 4.71636 -8.96171
397 1 14.1518 11.007 4.7173 -8.9509
398 1 17.2966 11.007 4.71726 -8.94963
399 1 20.4415 11.007 4.71726 -8.94963
400 1 1.12859e-09 12.5794 3.14484 -8.94963
401 1 1.57242 14.1518 4.71726 -8.94963
402 1 3.14484 12.5794 3.14484 -8.94963
403 1 4.71726 14.1518 4.71726 -8.94964
404 1 6.28969 12.5794 3.14484 -8.94964
405 1 7.8621 14.1518 4.71725 -8.94973
406 1 9.43452 12.5794 3.14483 -8.94953
407 1 11.0069 14.1518 4.71729 -8.9505
408 1 12.5794 12.5794 3.14483 -8.94966
409 1 14.1518 14.1518 4.71725 -8.94932
410 1 15.7242 12.5794 3.14484 -8.94966
411 1 17.2966 14.1518 4.71726 -8.94963
412 1 18.8691 12.5794 3.14484 -8.94963
413 1 20.4415 14.1518 4.71726 -8.94963
414 1 22.0139 15.7242 3.14484 -8.94963
415 1 1.57242 17.2966 4.71726 -8.94963
416 1 3.14484 15.7242 3.14484 -8.94963
417 1 4.71726 17.2966 4.71726 -8.94963
418 1 6.28969 15.7242 3.14484 -8.94963
419 1 7.86211 17.2966 4.71727 -8.94966
420 1 9.43453 15.7242 3.14484 -8.94964
421 1 11.007 17.2966 4.71726 -8.94964
422 1 12.5794 15.7242 3.14484 -8.94966
423 1 14.1518 17.2966 4.71726 -8.94963
424 1 15.7242 15.7242 3.14484 -8.94963
425 1 17.2966 17.2966 4.71726 -8.94963
426 1 18.8691 15.7242 3.14484 -8.94963
427 1 20.4415 17.2966 4.71726 -8.94963
428 1 22.0139 18.8691 3.14484 -8.94963
429 1 1.57242 20.4415 4.71726 -8.94963
430 1 3.14484 18.8691 3.14484 -8.94963
431 1 4.71726 20.4415 4.71726 -8.94963
432 1 6.28969 18.8691 3.14484 -8.94963
433 1 7.86211 20.4415 4.71726 -8.94963
434 1 9.43453 18.8691 3.14484 -8.94963
435 1 11.007 20.4415 4.71726 -8.94963
436 1 12.5794 18.8691 3.14484 -8.94963
437 1 14.1518 20.4415 4.71726 -8.94963
438 1 15.7242 18.8691 3.14484 -8.94963
439 1 17.2966 20.4415 4.71726 -8.94963
440 1 18.8691 18.8691 3.14484 -8.94963
441 1 20.4415 20.4415 4.71726 -8.94963
442 1 1.57242 11.007 7.86211 -8.94963
443 1 4.71724 11.007 7.86211 -8.95048
444 1 7.85974 11.007 7.86011 -8.91637
445 1 11.0354 11.007 7.8047 -7.89138
446 1 14.1522 11.007 7.86205 -8.95585
447 1 17.2966 11.007 7.86211 -8.94974
448 1 20.4415 11.007 7.86211 -8.94963
449 1 22.0139 12.5794 6.28969 -8.94963
450 1 1.57242 14.1518 7.86211 -8.94964
451 1 3.14484 12.5794 6.28969 -8.94963
452 1 4.71726 14.1518 7.86211 -8.94986
453 1 6.28966 12.5794 6.28967 -8.94921
454 1 7.8614 14.1525 7.86139 -8.93224
455 1 9.43427 12.5797 6.2895 -8.94402
456 1 11.0072 14.152 7.86183 -8.94409
457 1 12.5801 12.5801 6.28901 -8.93202
458 1 14.1518 14.1518 7.86208 -8.94933
459 1 15.7242 12.5794 6.28968 -8.94977
460 1 17.2966 14.1518 7.86211 -8.94963
461 1 18.8691 12.5794 6.28969 -8.94963
462 1 20.4415 14.1518 7.86211 -8.94963
463 1 1.54263e-09 15.7242 6.28969 -8.94963
464 1 1.57242 17.2966 7.86211 -8.94963
465 1 3.14484 15.7242 6.28969 -8.94963
466 1 4.71727 17.2966 7.86211 -8.94966
467 1 6.28967 15.7242 6.28967 -8.94931
468 1 7.8621 17.2967 7.8621 -8.94966
469 1 9.43453 15.7242 6.28971 -8.9505
470 1 11.007 17.2966 7.8621 -8.94953
471 1 12.5794 15.7242 6.28968 -8.94973
472 1 14.1518 17.2966 7.86211 -8.94965
473 1 15.7242 15.7242 6.28969 -8.94964
474 1 17.2966 17.2966 7.86211 -8.94963
475 1 18.8691 15.7242 6.28969 -8.94963
476 1 20.4415 17.2966 7.86211 -8.94963
477 1 22.0139 18.8691 6.28969 -8.94963
478 1 1.57242 20.4415 7.86211 -8.94963
479 1 3.14484 18.8691 6.28969 -8.94963
480 1 4.71726 20.4415 7.86211 -8.94963
481 1 6.28969 18.8691 6.28969 -8.94963
482 1 7.86211 20.4415 7.86211 -8.94963
483 1 9.43453 18.8691 6.28969 -8.94963
484 1 11.007 20.4415 7.86211 -8.94963
485 1 12.5794 18.8691 6.28969 -8.94963
486 1 14.1518 20.4415 7.86211 -8.94963
487 1 15.7242 18.8691 6.28969 -8.94963
488 1 17.2966 20.4415 7.86211 -8.94963
489 1 18.8691 18.8691 6.28969 -8.94963
490 1 20.4415 20.4415 7.86211 -8.94963
491 1 1.11717e-07 12.5794 9.43453 -8.94963
492 1 3.14485 12.5794 9.43454 -8.94983
493 1 6.28944 12.5794 9.43488 -8.99874
494 1 9.40618 12.6367 9.43461 -7.94586
495 1 12.5818 12.5811 9.4345 -8.91284
496 1 15.7243 12.5794 9.43453 -8.95015
497 1 18.8691 12.5794 9.43453 -8.94964
498 1 22.0139 15.7242 9.43453 -8.94963
499 1 3.14484 15.7242 9.43453 -8.94961
512 1 1.57243 11.007 11.007 -8.94951
514 1 7.85402 11.007 10.9974 -9.21164
519 1 1.57242 14.1518 11.007 -8.94963
520 1 4.71722 14.1518 11.0069 -8.94939
532 1 20.4415 17.2966 11.007 -8.94963
527 1 4.71726 17.2966 11.0069 -8.94967
531 1 17.2966 17.2966 11.007 -8.94963
518 1 20.4415 11.007 11.007 -8.94963
353 1 3.14484 12.5794 5.13242e-10 -8.94963
389 1 15.7242 18.8691 6.49377e-11 -8.94963
377 1 18.8691 15.7242 1.09283e-10 -8.94963
687 2 8.64832 11.007 12.5794 1.12273
513 1 4.71769 11.007 11.0073 -8.9972
686 1 20.4415 20.4415 20.4415 -8.94963
515 1 11.0372 11.007 11.0632 -7.92537
516 1 14.1523 11.007 11.007 -8.95627
517 1 17.2966 11.007 11.007 -8.94975
391 1 18.8691 18.8691 22.0139 -8.94963
685 1 18.8691 18.8691 18.8691 -8.94963
684 1 17.2966 20.4415 20.4415 -8.94963
521 1 7.86132 14.1524 11.0077 -8.98812
522 1 11.007 14.1516 11.0073 -8.98701
523 1 14.1518 14.1518 11.007 -8.94944
524 1 17.2966 14.1518 11.007 -8.94963
525 1 20.4415 14.1518 11.007 -8.94963
683 1 15.7242 18.8691 18.8691 -8.94963
682 1 14.1518 20.4415 20.4415 -8.94963
528 1 7.8621 17.2967 11.007 -8.94959
529 1 11.007 17.2966 11.007 -8.94939
530 1 14.1518 17.2966 11.007 -8.94964
681 1 12.5794 18.8691 18.8691 -8.94963
680 1 11.007 20.4415 20.4415 -8.94963
533 1 1.57242 20.4415 11.007 -8.94963
679 1 9.43453 18.8691 18.8691 -8.94963
535 1 7.86211 20.4415 11.007 -8.94963
536 1 11.007 20.4415 11.007 -8.94963
537 1 14.1518 20.4415 11.007 -8.94963
678 1 7.86211 20.4415 20.4415 -8.94963
539 1 20.4415 20.4415 11.007 -8.94963
540 1 1.57243 11.007 14.1518 -8.9495
541 1 4.71773 11.007 14.1515 -8.99676
542 1 7.85643 11.007 14.1631 -9.2467
543 1 11.0087 11.007 14.1539 -8.99793
544 1 14.1518 11.007 14.1518 -8.95145
545 1 17.2966 11.007 14.1518 -8.94964
546 1 20.4415 11.007 14.1518 -8.94963
547 1 22.0139 12.5794 12.5794 -8.94964
548 1 1.57242 14.1518 14.1518 -8.94963
549 1 3.14482 12.5794 12.5794 -8.95017
550 1 4.71724 14.1518 14.1518 -8.94926
551 1 6.2879 12.5806 12.5794 -8.98531
552 1 7.86202 14.1517 14.1518 -9.00584
553 1 9.43996 12.591 12.5795 -9.24014
554 1 11.0068 14.1514 14.1517 -8.99344
555 1 12.5796 12.5798 12.5801 -8.9789
556 1 14.1518 14.1518 14.1518 -8.9494
557 1 15.7242 12.5794 12.5794 -8.94964
558 1 17.2966 14.1518 14.1518 -8.94963
559 1 18.8691 12.5794 12.5794 -8.94963
560 1 20.4415 14.1518 14.1518 -8.94963
561 1 22.0139 15.7242 12.5794 -8.94963
562 1 1.57242 17.2966 14.1518 -8.94963
563 1 3.14484 15.7242 12.5794 -8.94967
564 1 4.71726 17.2966 14.1518 -8.94963
565 1 6.28967 15.7242 12.5794 -8.94971
566 1 7.86211 17.2966 14.1518 -8.94959
567 1 9.43451 15.7244 12.5793 -8.95367
568 1 11.007 17.2966 14.1518 -8.9495
569 1 12.5794 15.7242 12.5794 -8.95006
570 1 14.1518 17.2966 14.1518 -8.94963
571 1 15.7242 15.7242 12.5794 -8.94963
572 1 17.2966 17.2966 14.1518 -8.94963
573 1 18.8691 15.7242 12.5794 -8.94963
574 1 20.4415 17.2966 14.1518 -8.94963
575 1 22.0139 18.8691 12.5794 -8.94963
576 1 1.57242 20.4415 14.1518 -8.94963
577 1 3.14484 18.8691 12.5794 -8.94963
578 1 4.71726 20.4415 14.1518 -8.94963
579 1 6.28969 18.8691 12.5794 -8.94964
580 1 7.86211 20.4415 14.1518 -8.94963
581 1 9.43453 18.8691 12.5794 -8.9497
582 1 11.007 20.4415 14.1518 -8.94963
583 1 12.5794 18.8691 12.5794 -8.94963
584 1 14.1518 20.4415 14.1518 -8.94963
585 1 15.7242 18.8691 12.5794 -8.94963
586 1 17.2966 20.4415 14.1518 -8.94963
587 1 18.8691 18.8691 12.5794 -8.94963
588 1 20.4415 20.4415 14.1518 -8.94963
589 1 1.57242 11.007 17.2966 -8.94962
590 1 4.71727 11.007 17.2966 -8.94996
591 1 7.86213 11.007 17.2969 -8.95282
592 1 11.007 11.007 17.2967 -8.95026
593 1 14.1518 11.007 17.2966 -8.94966
594 1 17.2966 11.007 17.2966 -8.94963
595 1 20.4415 11.007 17.2966 -8.94963
596 1 1.73344e-07 12.5794 15.7242 -8.94963
597 1 1.57242 14.1518 17.2966 -8.94963
598 1 3.14485 12.5794 15.7242 -8.94972
599 1 4.71727 14.1518 17.2966 -8.94973
600 1 6.28988 12.5793 15.7239 -8.99259
601 1 7.86211 14.1518 17.2966 -8.94985
602 1 9.4346 12.5793 15.7241 -9.00564
603 1 11.0069 14.1518 17.2966 -8.94965
604 1 12.5794 12.5794 15.7243 -8.94928
605 1 14.1518 14.1518 17.2966 -8.94961
606 1 15.7242 12.5794 15.7242 -8.94966
607 1 17.2966 14.1518 17.2966 -8.94963
608 1 18.8691 12.5794 15.7242 -8.94963
609 1 20.4415 14.1518 17.2966 -8.94963
610 1 22.0139 15.7242 15.7242 -8.94963
611 1 1.57242 17.2966 17.2966 -8.94963
612 1 3.14484 15.7242 15.7242 -8.94962
613 1 4.71726 17.2966 17.2966 -8.94963
614 1 6.28969 15.7242 15.7242 -8.94964
615 1 7.86211 17.2966 17.2966 -8.94963
616 1 9.43453 15.7242 15.7242 -8.94986
617 1 11.007 17.2966 17.2966 -8.94963
618 1 12.5794 15.7242 15.7242 -8.94975
619 1 14.1518 17.2966 17.2966 -8.94963
620 1 15.7242 15.7242 15.7242 -8.94963
621 1 17.2966 17.2966 17.2966 -8.94963
622 1 18.8691 15.7242 15.7242 -8.94963
623 1 20.4415 17.2966 17.2966 -8.94963
624 1 7.38577e-10 18.8691 15.7242 -8.94963
625 1 1.57242 20.4415 17.2966 -8.94963
626 1 3.14484 18.8691 15.7242 -8.94963
627 1 4.71726 20.4415 17.2966 -8.94963
628 1 6.28969 18.8691 15.7242 -8.94963
629 1 7.86211 20.4415 17.2966 -8.94963
630 1 9.43453 18.8691 15.7242 -8.94963
631 1 11.007 20.4415 17.2966 -8.94963
632 1 12.5794 18.8691 15.7242 -8.94963
633 1 14.1518 20.4415 17.2966 -8.94963
634 1 15.7242 18.8691 15.7242 -8.94963
635 1 17.2966 20.4415 17.2966 -8.94963
636 1 18.8691 18.8691 15.7242 -8.94963
637 1 20.4415 20.4415 17.2966 -8.94963
638 1 1.57242 11.007 20.4415 -8.94963
639 1 4.71726 11.007 20.4415 -8.94963
640 1 7.86211 11.007 20.4415 -8.9497
641 1 11.007 11.007 20.4415 -8.94965
642 1 14.1518 11.007 20.4415 -8.94963
643 1 17.2966 11.007 20.4415 -8.94963
644 1 20.4415 11.007 20.4415 -8.94963
645 1 22.0139 12.5794 18.8691 -8.94963
646 1 1.57242 14.1518 20.4415 -8.94963
647 1 3.14484 12.5794 18.8691 -8.94963
648 1 4.71726 14.1518 20.4415 -8.94963
649 1 6.28968 12.5794 18.8691 -8.9495
650 1 7.86211 14.1518 20.4415 -8.94964
651 1 9.43453 12.5794 18.8691 -8.94956
652 1 11.007 14.1518 20.4415 -8.94963
653 1 12.5794 12.5794 18.8691 -8.94964
654 1 14.1518 14.1518 20.4415 -8.94963
655 1 15.7242 12.5794 18.8691 -8.94963
656 1 17.2966 14.1518 20.4415 -8.94963
657 1 18.8691 12.5794 18.8691 -8.94963
658 1 20.4415 14.1518 20.4415 -8.94963
659 1 4.14232e-09 15.7242 18.8691 -8.94963
660 1 1.57242 17.2966 20.4415 -8.94963
661 1 3.14484 15.7242 18.8691 -8.94963
662 1 4.71726 17.2966 20.4415 -8.94963
663 1 6.28969 15.7242 18.8691 -8.94963
664 1 7.86211 17.2966 20.4415 -8.94963
665 1 9.43453 15.7242 18.8691 -8.94963
666 1 11.007 17.2966 20.4415 -8.94963
667 1 12.5794 15.7242 18.8691 -8.94963
668 1 14.1518 17.2966 20.4415 -8.94963
669 1 15.7242 15.7242 18.8691 -8.94963
670 1 17.2966 17.2966 20.4415 -8.94963
671 1 18.8691 15.7242 18.8691 -8.94963
672 1 20.4415 17.2966 20.4415 -8.94963
673 1 22.0139 18.8691 18.8691 -8.94963
674 1 1.57242 20.4415 20.4415 -8.94963
675 1 3.14484 18.8691 18.8691 -8.94963
676 1 4.71726 20.4415 20.4415 -8.94963
677 1 6.28969 18.8691 18.8691 -8.94963
351 1 4.80595e-10 12.5794 22.0139 -8.94963
385 1 9.43453 18.8691 22.0139 -8.94963
355 1 6.28969 12.5794 22.0139 -8.94963
357 1 9.43453 12.5794 22.0139 -8.94963
359 1 12.5794 12.5794 22.0139 -8.94963
367 1 3.14484 15.7242 22.0139 -8.94963
375 1 15.7242 15.7242 22.0139 -8.94963
383 1 6.28969 18.8691 22.0139 -8.94963
379 1 1.09514e-11 18.8691 22.0139 -8.94963
363 1 18.8691 12.5794 22.0139 -8.94963
387 1 12.5794 18.8691 22.0139 -8.94963
526 1 1.57242 17.2966 11.007 -8.94963
