ITEM: TIMESTEP
100
ITEM: NUMBER OF ATOMS
688
ITEM: BOX BOUNDS pp pp pp
0.0000000000000000e+00 2.2013900999999997e+01
0.0000000000000000e+00 2.2013900999999997e+01
0.0000000000000000e+00 2.2013900999999997e+01
ITEM: ATOMS id type x y z c_pot
191 1 4.70521 7.85632 11.0088 -8.95697
2 1 1.57173 1.57202 1.57182 -8.94916
3 1 3.14443 1.16707e-15 -0.000260009 -8.94959
4 1 4.71669 1.57189 1.57168 -8.94961
175 1 18.8693 9.43431 9.43455 -8.94768
6 1 7.86192 1.57188 1.57173 -8.94945
7 1 9.43451 1.45349e-15 -0.000241156 -8.94953
8 1 11.0071 1.57186 1.57177 -8.9495
174 1 15.7215 9.4353 9.43459 -8.94003
10 1 14.1522 1.57183 1.57187 -8.94949
173 1 12.5567 9.44438 9.43405 -8.9038
12 1 17.2973 1.57181 1.57189 -8.94944
190 1 1.56931 7.86146 11.0072 -8.95207
14 1 20.4415 1.57212 1.57216 -8.94953
172 1 9.35956 9.19798 9.43156 -8.1734
16 1 1.57179 4.71677 1.57177 -8.94979
17 1 3.14413 3.14419 -0.000494856 -8.94949
18 1 4.71578 4.71587 1.57051 -8.94945
171 1 6.27859 9.42157 9.43047 -9.00444
20 1 7.86154 4.71589 1.57087 -8.94914
170 1 3.14207 9.43486 9.43453 -8.95262
22 1 11.0071 4.71574 1.57094 -8.94936
189 1 20.4411 4.71654 11.0071 -8.94956
24 1 14.1529 4.71555 1.57088 -8.94961
169 1 -0.000781926 9.43463 9.43451 -8.94944
26 1 17.2983 4.7156 1.57108 -8.94821
168 1 18.8696 6.28885 9.43453 -8.94967
28 1 20.442 4.71668 1.57192 -8.94956
29 1 22.0139 6.28945 -0.000202565 -8.94953
30 1 1.57204 7.86197 1.57191 -8.94939
167 1 15.726 6.28805 9.43448 -8.94706
32 1 4.71645 7.86204 1.57164 -8.94971
33 1 6.28896 6.289 -0.000834084 -8.95068
34 1 7.86162 7.86147 1.57017 -8.95252
35 1 9.43423 6.28858 -0.000799541 -8.94962
36 1 11.0071 7.86063 1.56957 -8.95069
37 1 12.5799 6.28846 -0.000898925 -8.94971
38 1 14.1541 7.86019 1.56856 -8.95154
166 1 12.5793 6.29001 9.43261 -8.94225
40 1 17.2986 7.86108 1.5709 -8.94916
165 1 9.42922 6.29135 9.43355 -9.00393
42 1 20.4421 7.86175 1.57183 -8.94943
164 1 6.2775 6.27714 9.4332 -8.9421
163 1 3.13926 6.28648 9.43413 -8.94868
162 1 22.0123 6.28883 9.43445 -8.95001
161 1 18.8693 3.14425 9.43451 -8.94956
160 1 15.725 3.14399 9.43444 -8.94966
48 1 15.7258 9.43399 -0.00121515 -8.94936
188 1 17.2975 4.71631 11.0069 -8.94899
50 1 -0.000439743 1.71662e-15 3.14449 -8.9495
51 1 1.57147 1.57189 4.7166 -8.94943
52 1 3.14393 1.07048e-15 3.14393 -8.94952
53 1 4.71597 1.57108 4.7159 -8.95001
54 1 6.28929 1.64442e-16 3.14396 -8.94959
55 1 7.86186 1.57118 4.71615 -8.94971
56 1 9.4346 1.52131e-15 3.14401 -8.94954
57 1 11.0074 1.57129 4.71628 -8.94965
58 1 12.5798 9.66258e-16 3.14415 -8.94953
59 1 14.1525 1.57128 4.71669 -8.95072
60 1 15.7248 1.02014e-15 3.14435 -8.95006
61 1 17.2971 1.572 4.71714 -8.94965
62 1 18.8692 1.45355e-15 3.14468 -8.94966
63 1 20.4413 1.57214 4.71704 -8.94949
64 1 22.0133 3.14425 3.14425 -8.94949
65 1 1.5704 4.71599 4.71591 -8.94954
66 1 3.1431 3.14335 3.14313 -8.94821
67 1 4.71243 4.71266 4.71254 -8.94454
68 1 6.28873 3.14316 3.14319 -8.94963
69 1 7.86051 4.71308 4.71397 -8.94912
70 1 9.43445 3.14322 3.1434 -8.94935
71 1 11.0077 4.71346 4.71421 -8.94774
72 1 12.58 3.14315 3.14355 -8.94915
73 1 14.1553 4.71214 4.714 -8.94973
74 1 15.7257 3.14283 3.14353 -8.94938
75 1 17.298 4.71596 4.71677 -8.95044
76 1 18.8695 3.14415 3.14447 -8.94985
77 1 20.4414 4.71666 4.71689 -8.94988
78 1 22.0138 6.28932 3.14425 -8.94988
79 1 1.57142 7.86206 4.71653 -8.94992
80 1 3.14328 6.28901 3.1434 -8.95035
81 1 4.71425 7.86142 4.71481 -8.95153
82 1 6.2864 6.28648 3.13977 -8.94986
83 1 7.85568 7.85477 4.70594 -8.95308
84 1 9.43399 6.28668 3.14112 -8.94771
85 1 11.0085 7.85619 4.70735 -8.95086
86 1 12.5812 6.28645 3.14069 -8.94915
87 1 14.1654 7.84991 4.70424 -8.93009
88 1 15.729 6.2852 3.1405 -8.94456
89 1 17.3013 7.85988 4.71497 -8.95087
90 1 18.8708 6.28849 3.14375 -8.94968
91 1 20.4424 7.86166 4.71667 -8.95023
92 1 0.000124344 9.43439 3.14415 -8.94955
93 1 3.14386 9.4345 3.14382 -8.94889
94 1 6.28901 9.43499 3.14358 -8.94919
95 1 9.4355 9.43407 3.1428 -8.9519
96 1 12.583 9.43302 3.13641 -8.95921
97 1 15.7287 9.43298 3.14074 -8.94757
98 1 18.8711 9.43405 3.14358 -8.94927
99 1 22.0134 1.77843e-15 6.28941 -8.94951
100 1 1.57132 1.57183 7.86178 -8.94947
101 1 3.14364 9.60111e-16 6.28896 -8.94933
102 1 4.71552 1.57084 7.86131 -8.94933
103 1 6.28897 1.40816e-15 6.28883 -8.95067
104 1 7.86169 1.5705 7.86163 -8.9514
105 1 9.43478 2.12933e-15 6.28902 -8.95026
106 1 11.0072 1.57166 7.86192 -8.94941
107 1 12.5798 1.58409e-15 6.28945 -8.95042
108 1 14.1525 1.57185 7.86194 -8.94924
109 1 15.7247 1.26222e-15 6.28959 -8.94943
110 1 17.2971 1.57205 7.86205 -8.94956
111 1 18.8692 1.48271e-15 6.28958 -8.94954
112 1 20.4413 1.57211 7.862 -8.94954
113 1 22.0131 3.14416 6.28927 -8.94943
114 1 1.57011 4.7158 7.86146 -8.94921
115 1 3.14274 3.14303 6.28845 -8.94911
116 1 4.71234 4.71243 7.86 -8.9474
117 1 6.28743 3.14062 6.28753 -8.95157
118 1 7.85854 4.70821 7.85995 -8.95919
119 1 9.43466 3.14164 6.28815 -8.95059
120 1 11.0066 4.71494 7.86124 -8.95217
121 1 12.5801 3.14227 6.28896 -8.95262
122 1 14.1529 4.71592 7.86216 -8.94811
123 1 15.725 3.14386 6.28965 -8.94941
124 1 17.2975 4.71629 7.86206 -8.94909
125 1 18.8693 3.14427 6.28956 -8.94943
126 1 20.4412 4.71654 7.86193 -8.94959
127 1 -0.00123022 6.28905 6.28916 -8.95032
128 1 1.56944 7.86158 7.86166 -8.95216
129 1 3.13963 6.28692 6.28692 -8.9504
130 1 4.70539 7.85656 7.85804 -8.95669
131 1 6.27599 6.2762 6.2768 -8.93005
132 1 7.82091 7.82395 7.82716 -8.85374
133 1 9.4336 6.27992 6.28354 -8.9509
134 1 11.0231 7.85254 7.836 -8.90429
135 1 12.5865 6.27846 6.28178 -8.95296
136 1 14.1555 7.8615 7.86415 -8.95307
137 1 15.7269 6.28788 6.28935 -8.95173
138 1 17.2982 7.86158 7.86275 -8.94987
139 1 18.8699 6.28905 6.28965 -8.9499
140 1 20.4414 7.86179 7.86212 -8.94998
141 1 22.0138 9.43456 6.28928 -8.94987
142 1 3.14311 9.43518 6.2889 -8.94992
143 1 6.28554 9.43578 6.28687 -8.95229
144 1 9.4211 9.4094 6.27994 -8.9038
145 1 12.6204 9.40139 6.25215 -8.85526
146 1 15.7348 9.43203 6.28548 -8.95814
147 1 18.8716 9.43423 6.28921 -8.95178
148 1 -0.000581472 1.13849e-15 9.43449 -8.94953
149 1 3.14352 1.479e-15 9.43442 -8.94947
150 1 6.28845 1.09995e-15 9.43422 -8.95041
151 1 9.43474 1.75055e-15 9.43423 -8.94846
152 1 12.5801 1.74441e-15 9.43421 -8.94925
153 1 15.7248 1.13344e-15 9.43445 -8.9496
154 1 18.8692 1.77547e-15 9.43451 -8.94957
155 1 -0.000887346 3.14411 9.43448 -8.94951
156 1 3.14255 3.14294 9.43436 -8.94945
157 1 6.28641 3.13987 9.43397 -8.94943
158 1 9.43428 3.14314 9.43405 -8.94615
159 1 12.5802 3.14384 9.43387 -8.94807
177 1 4.71552 1.57083 11.0074 -8.94942
181 1 17.2971 1.57205 11.0069 -8.94954
184 1 4.71231 4.71234 11.0083 -8.94786
11 1 15.7246 1.61903e-15 -0.000189279 -8.94955
25 1 15.7249 3.14399 -0.000387125 -8.94958
41 1 18.8699 6.28909 -0.000411255 -8.94946
44 1 3.14424 9.43446 -0.000184469 -8.94945
176 1 1.57131 1.57183 11.0071 -8.94945
343 1 18.87 9.43429 18.8696 -8.94948
178 1 7.8615 1.57004 11.0068 -8.95161
179 1 11.0074 1.57116 11.0065 -8.94983
180 1 14.1525 1.57191 11.0067 -8.94924
342 1 15.726 9.43397 18.8706 -8.94936
182 1 20.4413 1.57211 11.007 -8.94954
341 1 12.5802 9.43418 18.8716 -8.95173
340 1 9.43519 9.43364 18.8717 -8.94792
185 1 7.85774 4.70629 11.0072 -8.95771
186 1 11.0077 4.71263 11.0058 -8.95137
187 1 14.1527 4.71621 11.0062 -8.94891
339 1 6.28822 9.43362 18.8717 -8.9487
338 1 3.14413 9.43448 18.8697 -8.94968
337 1 22.0139 9.43444 18.8694 -8.94954
336 1 20.4419 7.86187 20.4415 -8.94952
192 1 7.81879 7.82086 11.0373 -8.90392
193 1 11.027 7.84728 11.025 -8.93422
194 1 14.1552 7.86179 11.005 -8.95563
195 1 17.298 7.86166 11.0064 -8.95
196 1 20.4413 7.86178 11.0069 -8.94998
197 1 22.0133 1.12963e-15 12.5796 -8.94951
198 1 1.5714 1.57187 14.1524 -8.94944
199 1 3.1436 8.86392e-16 12.5799 -8.94938
200 1 4.71578 1.57093 14.1531 -8.95002
201 1 6.28881 7.10373e-16 12.58 -8.95065
202 1 7.86161 1.5706 14.153 -8.94986
203 1 9.43478 1.34323e-15 12.5798 -8.95129
204 1 11.0077 1.57069 14.1529 -8.94997
205 1 12.58 5.12458e-16 12.5794 -8.95033
206 1 14.1527 1.57121 14.1523 -8.95058
207 1 15.7247 1.04538e-15 12.5793 -8.94949
208 1 17.2971 1.57201 14.1518 -8.94971
209 1 18.8692 1.17718e-15 12.5794 -8.94953
210 1 20.4413 1.57213 14.152 -8.94951
211 1 22.0131 3.14414 12.5797 -8.94944
212 1 1.57033 4.71596 14.153 -8.94967
213 1 3.14268 3.14296 12.5804 -8.94911
214 1 4.71207 4.71213 14.1564 -8.94481
215 1 6.28725 3.14003 12.5812 -8.95151
216 1 7.85964 4.71085 14.1558 -8.94763
217 1 9.43468 3.13918 12.5806 -8.95381
218 1 11.0089 4.71091 14.1557 -8.9471
219 1 12.5803 3.1418 12.5798 -8.95212
220 1 14.1554 4.7121 14.1549 -8.94979
221 1 15.725 3.14392 12.5792 -8.94959
222 1 17.298 4.71597 14.1522 -8.95042
223 1 18.8693 3.14427 12.5794 -8.94941
224 1 20.4413 4.71664 14.1521 -8.94987
225 1 22.0126 6.289 12.5798 -8.95019
226 1 1.57109 7.86188 14.1525 -8.95016
227 1 3.13965 6.28686 12.5816 -8.95035
228 1 4.71308 7.86009 14.1543 -8.9504
229 1 6.27598 6.27464 12.5916 -8.9312
230 1 7.85311 7.85126 14.1651 -9.00224
231 1 9.43407 6.26781 12.5843 -8.96501
232 1 11.0127 7.85064 14.1663 -8.98135
233 1 12.5863 6.27796 12.5865 -8.95222
234 1 14.1651 7.85026 14.1644 -8.93292
235 1 15.7268 6.28788 12.5796 -8.95154
236 1 17.3011 7.86 14.1539 -8.95102
237 1 18.8698 6.28905 12.5794 -8.94989
238 1 20.4423 7.86167 14.1523 -8.95031
239 1 22.0136 9.4346 12.5797 -8.95004
240 1 3.14271 9.43501 12.58 -8.95136
241 1 6.28204 9.43056 12.5805 -8.98789
242 1 9.4413 9.35459 12.5865 -9.16187
243 1 12.6155 9.40265 12.6168 -8.91006
244 1 15.7336 9.43219 12.5835 -8.95712
245 1 18.8714 9.43427 12.5798 -8.95156
246 1 -0.00048506 1.69743e-15 15.7246 -8.94952
247 1 1.57162 1.57198 17.2973 -8.94915
248 1 3.14378 1.53647e-16 15.7252 -8.94953
249 1 4.71647 1.57172 17.2977 -8.94957
250 1 6.28904 3.41177e-16 15.7253 -8.94963
251 1 7.86184 1.57172 17.2976 -8.94942
252 1 9.43461 2.78545e-16 15.7253 -8.94954
253 1 11.0072 1.5717 17.2976 -8.94947
254 1 12.5801 4.06159e-16 15.7251 -8.94961
255 1 14.1525 1.57167 17.2975 -8.9494
256 1 15.725 -3.68927e-17 15.7247 -8.95002
257 1 17.2974 1.5718 17.2972 -8.94948
258 1 18.8692 1.96959e-15 15.7244 -8.9497
259 1 20.4415 1.57212 17.2969 -8.94958
260 1 -0.000673648 3.14424 15.7248 -8.94956
261 1 1.57164 4.7167 17.2975 -8.94976
262 1 3.14287 3.14318 15.726 -8.94823
263 1 4.71533 4.71532 17.2991 -8.94932
264 1 6.28829 3.14247 15.7263 -8.94951
265 1 7.86141 4.71541 17.2988 -8.949
266 1 9.43445 3.1425 15.7259 -8.94923
267 1 11.0073 4.71526 17.2987 -8.94962
268 1 12.5806 3.14243 15.726 -8.94894
269 1 14.1534 4.7151 17.2988 -8.94902
270 1 15.7259 3.14281 15.7255 -8.94944
271 1 17.2984 4.71558 17.2981 -8.94835
272 1 18.8695 3.14414 15.7246 -8.94986
273 1 20.4419 4.71665 17.2972 -8.94958
274 1 22.0136 6.28924 15.7248 -8.9499
275 1 1.57183 7.86194 17.2973 -8.94982
276 1 3.14283 6.28868 15.7259 -8.94998
277 1 4.71533 7.86087 17.299 -8.94807
278 1 6.28547 6.2848 15.7303 -8.94999
279 1 7.86168 7.86107 17.3004 -8.95297
280 1 9.43385 6.28506 15.7284 -8.948
281 1 11.0078 7.85966 17.3015 -8.95121
282 1 12.5827 6.28484 15.7299 -8.94692
283 1 14.1546 7.85987 17.3011 -8.95106
284 1 15.7291 6.28524 15.7285 -8.94516
285 1 17.2987 7.86107 17.2983 -8.94924
286 1 18.8708 6.28851 15.7253 -8.94978
287 1 20.4421 7.86176 17.2973 -8.94952
288 1 7.59723e-05 9.43444 15.7249 -8.94961
289 1 3.14378 9.43465 15.7251 -8.95064
290 1 6.28601 9.43051 15.7291 -8.97976
291 1 9.43736 9.43138 15.7283 -9.00335
292 1 12.5841 9.43238 15.7343 -8.95819
293 1 15.7288 9.43301 15.7284 -8.948
294 1 18.871 9.43408 15.7255 -8.94935
295 1 22.0136 1.71129e-15 18.8693 -8.94925
296 1 1.572 1.5721 20.4416 -8.94935
297 1 3.14432 1.22227e-15 18.8695 -8.94955
298 1 4.7169 1.57208 20.4416 -8.94956
299 1 6.28939 1.34229e-15 18.8696 -8.9495
300 1 7.86194 1.57204 20.4416 -8.94952
301 1 9.43451 1.30013e-15 18.8696 -8.94953
302 1 11.007 1.57201 20.4416 -8.94953
303 1 12.5796 1.05368e-15 18.8695 -8.94953
304 1 14.1521 1.57202 20.4416 -8.94953
305 1 15.7247 1.05588e-15 18.8695 -8.94947
306 1 17.2971 1.57205 20.4416 -8.94951
307 1 18.8694 1.23185e-15 18.8693 -8.94938
308 1 20.4416 1.57219 20.4415 -8.94925
309 1 22.0138 3.14449 18.8694 -8.94956
310 1 1.57203 4.71693 20.4417 -8.94956
311 1 3.14398 3.14406 18.8699 -8.94941
312 1 4.71653 4.71655 20.4417 -8.95014
313 1 6.28919 3.14401 18.8699 -8.94949
314 1 7.86171 4.71635 20.4418 -8.94951
315 1 9.43444 3.1439 18.8698 -8.94948
316 1 11.007 4.71621 20.4418 -8.94957
317 1 12.5797 3.14389 18.8698 -8.94953
318 1 14.1524 4.71621 20.4418 -8.94956
319 1 15.725 3.14391 18.8697 -8.94943
320 1 17.2976 4.71633 20.4416 -8.94949
321 1 18.8697 3.14419 18.8695 -8.94918
322 1 20.4418 4.71689 20.4415 -8.94954
323 1 -5.08095e-05 6.28942 18.8694 -8.9496
324 1 1.57207 7.86197 20.4416 -8.94959
325 1 3.14393 6.28913 18.87 -8.94926
326 1 4.71633 7.86165 20.4422 -8.94939
327 1 6.28885 6.28874 18.8707 -8.951
328 1 7.86181 7.8617 20.4422 -8.95024
329 1 9.43425 6.28825 18.8707 -8.94958
330 1 11.0072 7.86115 20.4423 -8.95021
331 1 12.5802 6.2882 18.871 -8.94972
332 1 14.1528 7.86131 20.4418 -8.95066
333 1 15.7257 6.2883 18.8705 -8.94989
334 1 17.2978 7.86151 20.4416 -8.94937
335 1 18.8699 6.28908 18.8696 -8.94949
5 1 6.28945 1.47134e-15 22.0137 -8.94951
9 1 12.5796 8.59351e-16 22.0137 -8.94953
47 1 12.58 9.43427 22.0125 -8.95145
15 1 -0.000116226 3.1445 22.0137 -8.94951
19 1 6.28927 3.14415 22.0135 -8.94948
21 1 9.43443 3.14404 22.0135 -8.94949
46 1 9.43465 9.43438 22.014 -8.94954
27 1 18.8697 3.1442 22.0136 -8.94914
31 1 3.14421 6.28938 22.0137 -8.94965
39 1 15.7256 6.28838 22.0128 -8.94998
45 1 6.28902 9.43442 22.0142 -8.94963
43 1 5.45841e-05 9.43444 22.0137 -8.94953
1 1 -0.000253233 1.69022e-15 22.0137 -8.94923
13 1 18.8694 1.17741e-15 22.0137 -8.94933
23 1 12.5796 3.14401 22.0135 -8.94947
49 1 18.87 9.43429 22.0134 -8.94947
183 1 1.57011 4.71579 11.0074 -8.94928
344 1 1.57207 11.007 1.57188 -8.94954
345 1 4.71644 11.007 1.57169 -8.94953
346 1 7.86199 11.007 1.57243 -8.94909
347 1 11.0075 11.007 1.57171 -8.94626
348 1 14.1548 11.007 1.5684 -8.94956
349 1 17.2987 11.007 1.57084 -8.94943
350 1 20.4422 11.007 1.57179 -8.94949
688 3 10.2139 11.007 9.43246 2.3072
352 1 1.57204 14.1519 1.57191 -8.94939
511 1 18.8693 18.8697 9.43451 -8.94956
354 1 4.71645 14.1519 1.57164 -8.94971
510 1 15.725 18.8699 9.43444 -8.94966
356 1 7.86162 14.1524 1.57017 -8.95252
509 1 12.5802 18.8701 9.43387 -8.94807
358 1 11.0071 14.1533 1.56957 -8.95069
508 1 9.43428 18.8708 9.43405 -8.94615
360 1 14.1541 14.1537 1.56856 -8.95154
361 1 15.7258 12.5799 -0.00121515 -8.94936
362 1 17.2986 14.1528 1.5709 -8.94916
538 1 17.2971 20.4418 11.0069 -8.94954
364 1 20.4421 14.1522 1.57183 -8.94943
365 1 22.0139 15.7245 -0.000202565 -8.94953
366 1 1.57179 17.2971 1.57177 -8.94979
507 1 6.28641 18.874 9.43397 -8.94943
368 1 4.71578 17.298 1.57051 -8.94945
369 1 6.28896 15.7249 -0.000834084 -8.95068
370 1 7.86154 17.298 1.57087 -8.94914
371 1 9.43423 15.7253 -0.000799541 -8.94962
372 1 11.0071 17.2982 1.57094 -8.94936
373 1 12.5799 15.7254 -0.000898925 -8.94971
374 1 14.1529 17.2983 1.57088 -8.94961
506 1 3.14255 18.871 9.43436 -8.94945
376 1 17.2983 17.2983 1.57108 -8.94821
505 1 -0.000887346 18.8698 9.43448 -8.94951
378 1 20.442 17.2972 1.57192 -8.94956
504 1 18.8696 15.7251 9.43453 -8.94967
380 1 1.57173 20.4419 1.57182 -8.94916
381 1 3.14413 18.8697 -0.000494856 -8.94949
382 1 4.71669 20.442 1.57168 -8.94961
503 1 15.726 15.7258 9.43448 -8.94706
384 1 7.86192 20.442 1.57173 -8.94945
502 1 12.5793 15.7239 9.43261 -8.94225
386 1 11.0071 20.442 1.57177 -8.9495
534 1 4.71552 20.4431 11.0074 -8.94942
388 1 14.1522 20.4421 1.57187 -8.94949
501 1 9.42922 15.7226 9.43355 -9.00393
390 1 17.2973 20.4421 1.57189 -8.94944
500 1 6.2775 15.7368 9.4332 -8.9421
392 1 20.4415 20.4418 1.57216 -8.94953
393 1 1.57168 11.007 4.7163 -8.94953
394 1 4.71552 11.007 4.71515 -8.94594
395 1 7.86447 11.007 4.7176 -8.94841
396 1 11.0125 11.007 4.72043 -9.00268
397 1 14.1631 11.007 4.70664 -8.94198
398 1 17.3016 11.007 4.71456 -8.94904
399 1 20.4427 11.007 4.71648 -8.94997
400 1 0.000124344 12.5795 3.14415 -8.94955
401 1 1.57142 14.1518 4.71653 -8.94992
402 1 3.14386 12.5794 3.14382 -8.94889
403 1 4.71425 14.1525 4.71481 -8.95153
404 1 6.28901 12.5789 3.14358 -8.94919
405 1 7.85568 14.1591 4.70594 -8.95308
406 1 9.4355 12.5798 3.1428 -8.9519
407 1 11.0085 14.1577 4.70735 -8.95086
408 1 12.583 12.5809 3.13641 -8.95921
409 1 14.1654 14.164 4.70424 -8.93009
410 1 15.7287 12.5809 3.14074 -8.94757
411 1 17.3013 14.154 4.71497 -8.95087
412 1 18.8711 12.5798 3.14358 -8.94927
413 1 20.4424 14.1522 4.71667 -8.95023
414 1 22.0138 15.7246 3.14425 -8.94988
415 1 1.5704 17.2979 4.71591 -8.94954
416 1 3.14328 15.7249 3.1434 -8.95035
417 1 4.71243 17.3012 4.71254 -8.94454
418 1 6.2864 15.7274 3.13977 -8.94986
419 1 7.86051 17.3008 4.71397 -8.94912
420 1 9.43399 15.7272 3.14112 -8.94771
421 1 11.0077 17.3004 4.71421 -8.94774
422 1 12.5812 15.7274 3.14069 -8.94915
423 1 14.1553 17.3018 4.714 -8.94973
424 1 15.729 15.7287 3.1405 -8.94456
425 1 17.298 17.2979 4.71677 -8.95044
426 1 18.8708 15.7254 3.14375 -8.94968
427 1 20.4414 17.2972 4.71689 -8.94988
428 1 22.0133 18.8696 3.14425 -8.94949
429 1 1.57147 20.442 4.7166 -8.94943
430 1 3.1431 18.8705 3.14313 -8.94821
431 1 4.71597 20.4428 4.7159 -8.95001
432 1 6.28873 18.8707 3.14319 -8.94963
433 1 7.86186 20.4427 4.71615 -8.94971
434 1 9.43445 18.8707 3.1434 -8.94935
435 1 11.0074 20.4426 4.71628 -8.94965
436 1 12.58 18.8707 3.14355 -8.94915
437 1 14.1525 20.4426 4.71669 -8.95072
438 1 15.7257 18.8711 3.14353 -8.94938
439 1 17.2971 20.4419 4.71714 -8.94965
440 1 18.8695 18.8697 3.14447 -8.94985
441 1 20.4413 20.4418 4.71704 -8.94949
442 1 1.57193 11.007 7.86169 -8.94737
443 1 4.72003 11.007 7.86232 -8.93994
444 1 7.8847 11.007 7.86099 -8.91235
445 1 11.0843 11.007 7.6314 -8.12391
446 1 14.1596 11.007 7.85412 -8.97252
447 1 17.299 11.007 7.86234 -8.95106
448 1 20.442 11.007 7.86214 -8.94937
449 1 22.0138 12.5793 6.28928 -8.94987
450 1 1.56944 14.1523 7.86166 -8.95216
451 1 3.14311 12.5787 6.2889 -8.94992
452 1 4.70539 14.1573 7.85804 -8.95669
453 1 6.28554 12.5781 6.28687 -8.95229
454 1 7.82091 14.19 7.82716 -8.85374
455 1 9.4211 12.6045 6.27994 -8.9038
456 1 11.0231 14.1614 7.836 -8.90429
457 1 12.6204 12.6125 6.25215 -8.85526
458 1 14.1555 14.1524 7.86415 -8.95307
459 1 15.7348 12.5819 6.28548 -8.95814
460 1 17.2982 14.1523 7.86275 -8.94987
461 1 18.8716 12.5797 6.28921 -8.95178
462 1 20.4414 14.1521 7.86212 -8.94998
463 1 -0.00123022 15.7248 6.28916 -8.95032
464 1 1.57011 17.2981 7.86146 -8.94921
465 1 3.13963 15.727 6.28692 -8.9504
466 1 4.71234 17.3015 7.86 -8.9474
467 1 6.27599 15.7377 6.2768 -8.93005
468 1 7.85854 17.3057 7.85995 -8.95919
469 1 9.4336 15.734 6.28354 -8.9509
470 1 11.0066 17.299 7.86124 -8.95217
471 1 12.5865 15.7354 6.28178 -8.95296
472 1 14.1529 17.298 7.86216 -8.94811
473 1 15.7269 15.726 6.28935 -8.95173
474 1 17.2975 17.2976 7.86206 -8.94909
475 1 18.8699 15.7249 6.28965 -8.9499
476 1 20.4412 17.2974 7.86193 -8.94959
477 1 22.0131 18.8697 6.28927 -8.94943
478 1 1.57132 20.4421 7.86178 -8.94947
479 1 3.14274 18.8709 6.28845 -8.94911
480 1 4.71552 20.4431 7.86131 -8.94933
481 1 6.28743 18.8733 6.28753 -8.95157
482 1 7.86169 20.4434 7.86163 -8.9514
483 1 9.43466 18.8723 6.28815 -8.95059
484 1 11.0072 20.4422 7.86192 -8.94941
485 1 12.5801 18.8716 6.28896 -8.95262
486 1 14.1525 20.4421 7.86194 -8.94924
487 1 15.725 18.87 6.28965 -8.94941
488 1 17.2971 20.4419 7.86205 -8.94956
489 1 18.8693 18.8696 6.28956 -8.94943
490 1 20.4413 20.4418 7.862 -8.94954
491 1 -0.000781926 12.5793 9.43451 -8.94944
492 1 3.14207 12.579 9.43453 -8.95262
493 1 6.27859 12.5923 9.43047 -9.00444
494 1 9.35956 12.8159 9.43156 -8.1734
495 1 12.5567 12.5695 9.43405 -8.9038
496 1 15.7215 12.5786 9.43459 -8.94003
497 1 18.8693 12.5796 9.43455 -8.94768
498 1 22.0123 15.7251 9.43445 -8.95001
499 1 3.13926 15.7274 9.43413 -8.94868
512 1 1.57211 11.007 11.0072 -8.94669
514 1 7.86102 11.007 10.9484 -9.17387
519 1 1.56931 14.1524 11.0072 -8.95207
520 1 4.70521 14.1576 11.0088 -8.95697
532 1 20.4411 17.2974 11.0071 -8.94956
527 1 4.71231 17.3016 11.0083 -8.94786
531 1 17.2975 17.2976 11.0069 -8.94899
518 1 20.4419 11.007 11.0069 -8.94918
353 1 3.14424 12.5794 -0.000184469 -8.94945
389 1 15.7249 18.8699 -0.000387125 -8.94958
377 1 18.8699 15.7248 -0.000411255 -8.94946
687 2 8.68089 11.007 12.5716 0.754376
513 1 4.72179 11.007 11.0076 -8.99215
686 1 20.4416 20.4417 20.4415 -8.94925
515 1 11.0808 11.007 11.2355 -8.1533
516 1 14.1579 11.007 11.0151 -8.97297
517 1 17.2985 11.007 11.0068 -8.9509
391 1 18.8697 18.8697 22.0136 -8.94914
685 1 18.8697 18.8697 18.8695 -8.94918
684 1 17.2971 20.4418 20.4416 -8.94951
521 1 7.81879 14.193 11.0373 -8.90392
522 1 11.027 14.1666 11.025 -8.93422
523 1 14.1552 14.1521 11.005 -8.95563
524 1 17.298 14.1522 11.0064 -8.95
525 1 20.4413 14.1521 11.0069 -8.94998
683 1 15.725 18.87 18.8697 -8.94943
682 1 14.1521 20.4419 20.4416 -8.94953
528 1 7.85774 17.3076 11.0072 -8.95771
529 1 11.0077 17.3013 11.0058 -8.95137
530 1 14.1527 17.2977 11.0062 -8.94891
681 1 12.5797 18.87 18.8698 -8.94953
680 1 11.007 20.4419 20.4416 -8.94953
533 1 1.57131 20.4421 11.0071 -8.94945
679 1 9.43444 18.87 18.8698 -8.94948
535 1 7.8615 20.4439 11.0068 -8.95161
536 1 11.0074 20.4427 11.0065 -8.94983
537 1 14.1525 20.442 11.0067 -8.94924
678 1 7.86194 20.4419 20.4416 -8.94952
539 1 20.4413 20.4418 11.007 -8.94954
540 1 1.57197 11.007 14.1527 -8.94844
541 1 4.71832 11.007 14.1521 -8.99604
542 1 7.84441 11.007 14.1975 -9.2064
543 1 11.0148 11.007 14.1546 -9.03511
544 1 14.1625 11.007 14.1623 -8.94393
545 1 17.3013 11.007 14.1543 -8.94918
546 1 20.4426 11.007 14.1525 -8.94981
547 1 22.0136 12.5793 12.5797 -8.95004
548 1 1.57109 14.152 14.1525 -8.95016
549 1 3.14271 12.5789 12.58 -8.95136
550 1 4.71308 14.1538 14.1543 -8.9504
551 1 6.28204 12.5833 12.5805 -8.98789
552 1 7.85311 14.1626 14.1651 -9.00224
553 1 9.4413 12.6593 12.5865 -9.16187
554 1 11.0127 14.1633 14.1663 -8.98135
555 1 12.6155 12.6113 12.6168 -8.91006
556 1 14.1651 14.1636 14.1644 -8.93292
557 1 15.7336 12.5817 12.5835 -8.95712
558 1 17.3011 14.1539 14.1539 -8.95102
559 1 18.8714 12.5796 12.5798 -8.95156
560 1 20.4423 14.1522 14.1523 -8.95031
561 1 22.0126 15.7249 12.5798 -8.95019
562 1 1.57033 17.2979 14.153 -8.94967
563 1 3.13965 15.727 12.5816 -8.95035
564 1 4.71207 17.3018 14.1564 -8.94481
565 1 6.27598 15.7393 12.5916 -8.9312
566 1 7.85964 17.3031 14.1558 -8.94763
567 1 9.43407 15.7461 12.5843 -8.96501
568 1 11.0089 17.303 14.1557 -8.9471
569 1 12.5863 15.7359 12.5865 -8.95222
570 1 14.1554 17.3018 14.1549 -8.94979
571 1 15.7268 15.726 12.5796 -8.95154
572 1 17.298 17.2979 14.1522 -8.95042
573 1 18.8698 15.7249 12.5794 -8.94989
574 1 20.4413 17.2973 14.1521 -8.94987
575 1 22.0131 18.8698 12.5797 -8.94944
576 1 1.5714 20.442 14.1524 -8.94944
577 1 3.14268 18.8709 12.5804 -8.94911
578 1 4.71578 20.443 14.1531 -8.95002
579 1 6.28725 18.8739 12.5812 -8.95151
580 1 7.86161 20.4433 14.153 -8.94986
581 1 9.43468 18.8747 12.5806 -8.95381
582 1 11.0077 20.4432 14.1529 -8.94997
583 1 12.5803 18.8721 12.5798 -8.95212
584 1 14.1527 20.4427 14.1523 -8.95058
585 1 15.725 18.87 12.5792 -8.94959
586 1 17.2971 20.4419 14.1518 -8.94971
587 1 18.8693 18.8696 12.5794 -8.94941
588 1 20.4413 20.4418 14.152 -8.94951
589 1 1.57203 11.007 17.2973 -8.94937
590 1 4.7167 11.007 17.2979 -8.94954
591 1 7.86168 11.007 17.3073 -8.96281
592 1 11.0073 11.007 17.2995 -8.94799
593 1 14.155 11.007 17.3013 -8.94894
594 1 17.2988 11.007 17.2983 -8.94942
595 1 20.4422 11.007 17.2973 -8.94952
596 1 7.59723e-05 12.5795 15.7249 -8.94961
597 1 1.57183 14.152 17.2973 -8.94982
598 1 3.14378 12.5792 15.7251 -8.95064
599 1 4.71533 14.153 17.299 -8.94807
600 1 6.28601 12.5834 15.7291 -8.97976
601 1 7.86168 14.1528 17.3004 -8.95297
602 1 9.43736 12.5825 15.7283 -9.00335
603 1 11.0078 14.1542 17.3015 -8.95121
604 1 12.5841 12.5815 15.7343 -8.95819
605 1 14.1546 14.154 17.3011 -8.95106
606 1 15.7288 12.5809 15.7284 -8.948
607 1 17.2987 14.1528 17.2983 -8.94924
608 1 18.871 12.5798 15.7255 -8.94935
609 1 20.4421 14.1521 17.2973 -8.94952
610 1 22.0136 15.7247 15.7248 -8.9499
611 1 1.57164 17.2972 17.2975 -8.94976
612 1 3.14283 15.7252 15.7259 -8.94998
613 1 4.71533 17.2986 17.2991 -8.94932
614 1 6.28547 15.7291 15.7303 -8.94999
615 1 7.86141 17.2985 17.2988 -8.949
616 1 9.43385 15.7288 15.7284 -8.948
617 1 11.0073 17.2986 17.2987 -8.94962
618 1 12.5827 15.7291 15.7299 -8.94692
619 1 14.1534 17.2988 17.2988 -8.94902
620 1 15.7291 15.7287 15.7285 -8.94516
621 1 17.2984 17.2983 17.2981 -8.94835
622 1 18.8708 15.7254 15.7253 -8.94978
623 1 20.4419 17.2972 17.2972 -8.94958
624 1 -0.000673648 18.8697 15.7248 -8.94956
625 1 1.57162 20.4419 17.2973 -8.94915
626 1 3.14287 18.8707 15.726 -8.94823
627 1 4.71647 20.4422 17.2977 -8.94957
628 1 6.28829 18.8714 15.7263 -8.94951
629 1 7.86184 20.4422 17.2976 -8.94942
630 1 9.43445 18.8714 15.7259 -8.94923
631 1 11.0072 20.4422 17.2976 -8.94947
632 1 12.5806 18.8715 15.726 -8.94894
633 1 14.1525 20.4422 17.2975 -8.9494
634 1 15.7259 18.8711 15.7255 -8.94944
635 1 17.2974 20.4421 17.2972 -8.94948
636 1 18.8695 18.8698 15.7246 -8.94986
637 1 20.4415 20.4418 17.2969 -8.94958
638 1 1.57209 11.007 20.4416 -8.94956
639 1 4.71647 11.007 20.4421 -8.94923
640 1 7.86173 11.007 20.4438 -8.95199
641 1 11.007 11.007 20.4423 -8.94853
642 1 14.1531 11.007 20.4418 -8.95028
643 1 17.2979 11.007 20.4416 -8.94945
644 1 20.4419 11.007 20.4415 -8.94953
645 1 22.0139 12.5795 18.8694 -8.94954
646 1 1.57207 14.1519 20.4416 -8.94959
647 1 3.14413 12.5794 18.8697 -8.94968
648 1 4.71633 14.1523 20.4422 -8.94939
649 1 6.28822 12.5803 18.8717 -8.9487
650 1 7.86181 14.1522 20.4422 -8.95024
651 1 9.43519 12.5803 18.8717 -8.94792
652 1 11.0072 14.1527 20.4423 -8.95021
653 1 12.5802 12.5797 18.8716 -8.95173
654 1 14.1528 14.1526 20.4418 -8.95066
655 1 15.726 12.5799 18.8706 -8.94936
656 1 17.2978 14.1524 20.4416 -8.94937
657 1 18.87 12.5796 18.8696 -8.94948
658 1 20.4419 14.152 20.4415 -8.94952
659 1 -5.08095e-05 15.7245 18.8694 -8.9496
660 1 1.57203 17.297 20.4417 -8.94956
661 1 3.14393 15.7248 18.87 -8.94926
662 1 4.71653 17.2974 20.4417 -8.95014
663 1 6.28885 15.7252 18.8707 -8.951
664 1 7.86171 17.2975 20.4418 -8.94951
665 1 9.43425 15.7256 18.8707 -8.94958
666 1 11.007 17.2977 20.4418 -8.94957
667 1 12.5802 15.7257 18.871 -8.94972
668 1 14.1524 17.2977 20.4418 -8.94956
669 1 15.7257 15.7256 18.8705 -8.94989
670 1 17.2976 17.2976 20.4416 -8.94949
671 1 18.8699 15.7248 18.8696 -8.94949
672 1 20.4418 17.297 20.4415 -8.94954
673 1 22.0138 18.8694 18.8694 -8.94956
674 1 1.572 20.4418 20.4416 -8.94935
675 1 3.14398 18.8698 18.8699 -8.94941
676 1 4.7169 20.4418 20.4416 -8.94956
677 1 6.28919 18.8699 18.8699 -8.94949
351 1 5.45841e-05 12.5795 22.0137 -8.94953
385 1 9.43443 18.8699 22.0135 -8.94949
355 1 6.28902 12.5795 22.0142 -8.94963
357 1 9.43465 12.5795 22.014 -8.94954
359 1 12.58 12.5796 22.0125 -8.95145
367 1 3.14421 15.7245 22.0137 -8.94965
375 1 15.7256 15.7255 22.0128 -8.94998
383 1 6.28927 18.8698 22.0135 -8.94948
379 1 -0.000116226 18.8694 22.0137 -8.94951
363 1 18.87 12.5796 22.0134 -8.94947
387 1 12.5796 18.8699 22.0135 -8.94947
526 1 1.57011 17.2981 11.0074 -8.94928
