ITEM: TIMESTEP
96
ITEM: NUMBER OF ATOMS
688
ITEM: BOX BOUNDS pp pp pp
0.0000000000000000e+00 2.2013900999999997e+01
0.0000000000000000e+00 2.2013900999999997e+01
0.0000000000000000e+00 2.2013900999999997e+01
ITEM: ATOMS id type x y z c_pot
191 1 4.70535 7.85658 11.0088 -8.95698
2 1 1.57184 1.57207 1.57191 -8.94918
3 1 3.14453 1.36454e-15 -0.000211991 -8.94961
4 1 4.71681 1.57196 1.57179 -8.94963
175 1 18.8694 9.43428 9.43454 -8.94773
6 1 7.86196 1.57195 1.57183 -8.94947
7 1 9.43451 1.79203e-15 -0.000208637 -8.94955
8 1 11.0071 1.57193 1.57185 -8.94951
174 1 15.7218 9.43524 9.43455 -8.94009
10 1 14.1521 1.57191 1.57194 -8.9495
173 1 12.5572 9.44434 9.43394 -8.90365
12 1 17.2972 1.57188 1.57196 -8.94945
190 1 1.56938 7.86151 11.0072 -8.95204
14 1 20.4415 1.57217 1.57221 -8.94955
172 1 9.35939 9.19815 9.43154 -8.17264
16 1 1.57188 4.71685 1.57186 -8.94978
17 1 3.14424 3.14427 -0.000439103 -8.9495
18 1 4.71593 4.71599 1.57065 -8.94945
171 1 6.2783 9.42174 9.43041 -9.0045
20 1 7.86163 4.71603 1.571 -8.94914
170 1 3.14194 9.4349 9.43452 -8.95264
22 1 11.0071 4.71589 1.57107 -8.94936
189 1 20.4412 4.7166 11.007 -8.94956
24 1 14.1527 4.71573 1.57103 -8.94961
169 1 -0.00078329 9.43463 9.43451 -8.94948
26 1 17.2982 4.71575 1.57119 -8.94822
168 1 18.8696 6.28887 9.43453 -8.94965
28 1 20.4419 4.71677 1.57198 -8.94956
29 1 22.0139 6.2895 -0.000168118 -8.94954
30 1 1.57207 7.862 1.57196 -8.9494
167 1 15.726 6.28805 9.43449 -8.94707
32 1 4.71652 7.86208 1.57169 -8.94971
33 1 6.28904 6.28907 -0.000791864 -8.95065
34 1 7.86164 7.86155 1.57022 -8.95248
35 1 9.43424 6.28868 -0.000760052 -8.9496
36 1 11.007 7.86074 1.56966 -8.95066
37 1 12.5798 6.28859 -0.000832619 -8.94968
38 1 14.1539 7.86031 1.56872 -8.95154
166 1 12.5792 6.29008 9.43267 -8.94238
40 1 17.2983 7.86121 1.57103 -8.94919
165 1 9.42932 6.29155 9.43363 -9.004
42 1 20.442 7.86181 1.57191 -8.94945
164 1 6.27781 6.27751 9.43328 -8.94219
163 1 3.13952 6.28668 9.43416 -8.94869
162 1 22.0125 6.2889 9.43445 -8.94999
161 1 18.8693 3.14429 9.43451 -8.94957
160 1 15.725 3.14401 9.43446 -8.94967
48 1 15.7256 9.43405 -0.00113058 -8.94936
188 1 17.2975 4.71635 11.0069 -8.949
50 1 -0.00034916 1.00431e-15 3.14457 -8.94953
51 1 1.57163 1.57196 4.71671 -8.94946
52 1 3.14408 1.39192e-15 3.14406 -8.94953
53 1 4.71614 1.57118 4.71605 -8.95001
54 1 6.28938 7.70742e-16 3.14409 -8.94959
55 1 7.86193 1.57128 4.71628 -8.94969
56 1 9.4346 1.59263e-15 3.14411 -8.94955
57 1 11.0073 1.57137 4.71637 -8.94963
58 1 12.5797 1.15443e-15 3.14423 -8.94952
59 1 14.1524 1.57136 4.71676 -8.95069
60 1 15.7248 1.42811e-15 3.14441 -8.95004
61 1 17.297 1.57205 4.71717 -8.94965
62 1 18.8692 1.11341e-15 3.14472 -8.94966
63 1 20.4414 1.57218 4.71709 -8.94951
64 1 22.0134 3.14433 3.14434 -8.94949
65 1 1.57058 4.7161 4.71603 -8.94953
66 1 3.14328 3.14348 3.14329 -8.94822
67 1 4.7127 4.71288 4.71275 -8.94455
68 1 6.28888 3.14333 3.14336 -8.94963
69 1 7.86069 4.71335 4.7142 -8.94913
70 1 9.43447 3.14337 3.14355 -8.94935
71 1 11.0077 4.71368 4.71443 -8.94776
72 1 12.5799 3.1433 3.14368 -8.94915
73 1 14.1551 4.71234 4.7142 -8.94975
74 1 15.7256 3.14298 3.14365 -8.94939
75 1 17.2979 4.71608 4.71685 -8.95042
76 1 18.8695 3.14425 3.14454 -8.94984
77 1 20.4414 4.71674 4.71695 -8.94986
78 1 22.0138 6.28938 3.14432 -8.94987
79 1 1.57149 7.8621 4.71659 -8.9499
80 1 3.14343 6.28911 3.14353 -8.95034
81 1 4.7144 7.86155 4.71492 -8.95152
82 1 6.28658 6.28669 3.13997 -8.94988
83 1 7.85581 7.85506 4.70614 -8.95315
84 1 9.434 6.2869 3.14132 -8.94773
85 1 11.0084 7.85643 4.70763 -8.95087
86 1 12.581 6.28667 3.14094 -8.94916
87 1 14.1651 7.85005 4.70449 -8.93007
88 1 15.7287 6.28538 3.14069 -8.94456
89 1 17.3011 7.85997 4.7151 -8.95087
90 1 18.8707 6.2886 3.14384 -8.94967
91 1 20.4424 7.8617 4.71673 -8.95021
92 1 7.94524e-05 9.43441 3.14422 -8.94955
93 1 3.1439 9.43451 3.14386 -8.9489
94 1 6.28904 9.43504 3.1436 -8.94921
95 1 9.43542 9.43416 3.14283 -8.95189
96 1 12.5828 9.43309 3.13657 -8.95921
97 1 15.7284 9.43306 3.14096 -8.94759
98 1 18.8709 9.4341 3.1437 -8.94928
99 1 22.0135 1.53455e-15 6.28947 -8.94953
100 1 1.5715 1.5719 7.86184 -8.94949
101 1 3.14383 1.10223e-15 6.28908 -8.94935
102 1 4.71574 1.57096 7.8614 -8.94933
103 1 6.28909 9.98901e-16 6.28894 -8.95065
104 1 7.86179 1.57057 7.8617 -8.95138
105 1 9.4348 1.63537e-15 6.28909 -8.95024
106 1 11.0072 1.57169 7.86197 -8.94942
107 1 12.5797 1.65723e-15 6.28949 -8.9504
108 1 14.1525 1.57187 7.86197 -8.94926
109 1 15.7247 1.33039e-15 6.28961 -8.94944
110 1 17.2971 1.57207 7.86206 -8.94957
111 1 18.8692 1.30082e-15 6.2896 -8.94955
112 1 20.4413 1.57215 7.86202 -8.94956
113 1 22.0132 3.14424 6.28933 -8.94944
114 1 1.57033 4.71593 7.86152 -8.94921
115 1 3.14299 3.14319 6.28859 -8.94914
116 1 4.71268 4.71271 7.86014 -8.94745
117 1 6.28765 3.14083 6.28768 -8.95157
118 1 7.85876 4.70845 7.86009 -8.95918
119 1 9.43473 3.14179 6.28829 -8.95055
120 1 11.0066 4.71504 7.86137 -8.95216
121 1 12.58 3.14237 6.28906 -8.95259
122 1 14.1529 4.71596 7.86224 -8.94816
123 1 15.7249 3.14393 6.28969 -8.94942
124 1 17.2975 4.71633 7.86208 -8.9491
125 1 18.8693 3.14433 6.28958 -8.94944
126 1 20.4412 4.71661 7.86195 -8.94958
127 1 -0.00113326 6.28911 6.2892 -8.9503
128 1 1.56953 7.86163 7.86167 -8.95214
129 1 3.13985 6.28707 6.28703 -8.95038
130 1 4.70551 7.85675 7.85808 -8.95665
131 1 6.27627 6.2765 6.27699 -8.93003
132 1 7.82099 7.82427 7.82727 -8.85359
133 1 9.4337 6.28023 6.28382 -8.95091
134 1 11.0231 7.85278 7.8363 -8.90431
135 1 12.5864 6.27866 6.28208 -8.95301
136 1 14.1555 7.86149 7.86425 -8.95298
137 1 15.7268 6.28795 6.28947 -8.95169
138 1 17.2982 7.86156 7.86277 -8.94984
139 1 18.8698 6.28909 6.28968 -8.94987
140 1 20.4414 7.86179 7.86212 -8.94997
141 1 22.0137 9.43457 6.2893 -8.94987
142 1 3.14311 9.43521 6.28891 -8.94989
143 1 6.28555 9.43594 6.28692 -8.95228
144 1 9.42115 9.40971 6.28012 -8.90391
145 1 12.6203 9.40143 6.25236 -8.85514
146 1 15.7346 9.43205 6.28566 -8.95813
147 1 18.8716 9.43423 6.28926 -8.95176
148 1 -0.000457381 1.65238e-15 9.4345 -8.94954
149 1 3.14373 1.5843e-15 9.43444 -8.94949
150 1 6.28861 1.74478e-15 9.43426 -8.95038
151 1 9.43478 1.79768e-15 9.43427 -8.94849
152 1 12.58 1.71992e-15 9.43425 -8.94927
153 1 15.7248 1.50074e-15 9.43447 -8.94961
154 1 18.8692 1.53042e-15 9.43451 -8.94958
155 1 -0.000742642 3.14419 9.43448 -8.94952
156 1 3.14282 3.1431 9.43438 -8.94946
157 1 6.28667 3.1401 9.43401 -8.94942
158 1 9.43436 3.14322 9.4341 -8.94617
159 1 12.5802 3.14386 9.43392 -8.94809
177 1 4.71574 1.57095 11.0073 -8.94941
181 1 17.2971 1.57208 11.0069 -8.94955
184 1 4.71263 4.71263 11.0082 -8.94788
11 1 15.7245 1.63568e-15 -0.000160584 -8.94957
25 1 15.7247 3.14412 -0.000339805 -8.9496
41 1 18.8698 6.2892 -0.000361629 -8.94949
44 1 3.14427 9.43447 -0.000175192 -8.94946
176 1 1.57149 1.57189 11.0071 -8.94948
343 1 18.8699 9.43434 18.8696 -8.94949
178 1 7.86161 1.57015 11.0068 -8.95157
179 1 11.0074 1.57122 11.0065 -8.94982
180 1 14.1524 1.57194 11.0067 -8.94925
342 1 15.7258 9.43403 18.8705 -8.94936
182 1 20.4413 1.57215 11.007 -8.94956
341 1 12.5801 9.43421 18.8715 -8.95172
340 1 9.43516 9.43366 18.8717 -8.94792
185 1 7.85797 4.70662 11.0072 -8.95769
186 1 11.0077 4.71283 11.0058 -8.95133
187 1 14.1527 4.71627 11.0062 -8.94893
339 1 6.28822 9.43362 18.8717 -8.94873
338 1 3.14414 9.43448 18.8696 -8.94968
337 1 22.0139 9.43446 18.8694 -8.94955
336 1 20.4418 7.86192 20.4415 -8.94954
192 1 7.81893 7.8214 11.0373 -8.90404
193 1 11.027 7.84776 11.0249 -8.93435
194 1 14.1553 7.86184 11.0049 -8.95558
195 1 17.298 7.86164 11.0063 -8.94997
196 1 20.4413 7.86178 11.0069 -8.94998
197 1 22.0135 7.9233e-16 12.5795 -8.94953
198 1 1.57157 1.57193 14.1523 -8.94946
199 1 3.14379 1.5554e-15 12.5798 -8.9494
200 1 4.71596 1.57104 14.153 -8.95002
201 1 6.28894 3.37143e-16 12.5799 -8.95063
202 1 7.8617 1.57074 14.1529 -8.94982
203 1 9.4348 7.92677e-16 12.5798 -8.95123
204 1 11.0076 1.5708 14.1528 -8.94995
205 1 12.5799 8.67758e-16 12.5794 -8.95031
206 1 14.1526 1.5713 14.1523 -8.95055
207 1 15.7247 1.40848e-15 12.5793 -8.9495
208 1 17.297 1.57206 14.1518 -8.94971
209 1 18.8692 1.00621e-15 12.5794 -8.94954
210 1 20.4413 1.57218 14.1519 -8.94952
211 1 22.0132 3.14422 12.5797 -8.94945
212 1 1.5705 4.71606 14.1529 -8.94966
213 1 3.14292 3.14312 12.5803 -8.94913
214 1 4.71233 4.71238 14.1562 -8.94482
215 1 6.28747 3.14028 12.5811 -8.9515
216 1 7.85983 4.71125 14.1556 -8.94763
217 1 9.43474 3.13943 12.5805 -8.95373
218 1 11.0088 4.71124 14.1555 -8.94712
219 1 12.5803 3.14194 12.5797 -8.95209
220 1 14.1552 4.71231 14.1547 -8.94983
221 1 15.7249 3.14399 12.5792 -8.94959
222 1 17.2979 4.71608 14.1522 -8.9504
223 1 18.8693 3.14433 12.5794 -8.94942
224 1 20.4414 4.71671 14.1521 -8.94985
225 1 22.0127 6.28905 12.5798 -8.95017
226 1 1.57112 7.86191 14.1525 -8.95012
227 1 3.13986 6.28702 12.5815 -8.95035
228 1 4.71321 7.86028 14.1542 -8.95038
229 1 6.27626 6.27505 12.5914 -8.93119
230 1 7.85331 7.85182 14.1648 -9.00262
231 1 9.43418 6.2684 12.5841 -8.96493
232 1 11.0125 7.85108 14.166 -8.98142
233 1 12.5861 6.27825 12.5863 -8.95233
234 1 14.1649 7.85041 14.1641 -8.93287
235 1 15.7267 6.28797 12.5795 -8.95151
236 1 17.301 7.86008 14.1538 -8.95101
237 1 18.8698 6.28909 12.5793 -8.94987
238 1 20.4422 7.8617 14.1523 -8.95029
239 1 22.0136 9.43459 12.5797 -8.95004
240 1 3.14264 9.43503 12.58 -8.95126
241 1 6.2821 9.43092 12.5805 -8.98766
242 1 9.44153 9.35568 12.5863 -9.16257
243 1 12.6156 9.40278 12.6166 -8.90966
244 1 15.7336 9.4322 12.5833 -8.95708
245 1 18.8713 9.43427 12.5797 -8.95155
246 1 -0.000390139 1.77122e-15 15.7245 -8.94954
247 1 1.57175 1.57204 17.2972 -8.94918
248 1 3.14394 4.86127e-16 15.725 -8.94955
249 1 4.71661 1.5718 17.2975 -8.94959
250 1 6.28916 3.76596e-16 15.7252 -8.94963
251 1 7.8619 1.5718 17.2975 -8.94944
252 1 9.43461 5.02523e-16 15.7251 -8.94953
253 1 11.0071 1.57179 17.2975 -8.94949
254 1 12.58 6.16446e-16 15.725 -8.94961
255 1 14.1524 1.57176 17.2974 -8.94941
256 1 15.7249 1.84259e-16 15.7247 -8.95
257 1 17.2973 1.57188 17.2971 -8.94949
258 1 18.8692 1.78648e-15 15.7243 -8.9497
259 1 20.4415 1.57216 17.2969 -8.94959
260 1 -0.000591574 3.14431 15.7247 -8.94956
261 1 1.57173 4.71677 17.2974 -8.94976
262 1 3.14307 3.14331 15.7258 -8.94824
263 1 4.7155 4.71545 17.2989 -8.94935
264 1 6.28846 3.14267 15.7261 -8.94953
265 1 7.86151 4.71559 17.2986 -8.949
266 1 9.43447 3.14271 15.7258 -8.94924
267 1 11.0073 4.71545 17.2985 -8.94963
268 1 12.5805 3.14261 15.7258 -8.94896
269 1 14.1532 4.71529 17.2986 -8.94904
270 1 15.7257 3.14296 15.7254 -8.94945
271 1 17.2983 4.71573 17.2979 -8.94835
272 1 18.8695 3.14424 15.7245 -8.94985
273 1 20.4419 4.71674 17.2971 -8.94958
274 1 22.0137 6.28929 15.7248 -8.94988
275 1 1.57182 7.86195 17.2972 -8.94981
276 1 3.14298 6.28878 15.7257 -8.94997
277 1 4.71534 7.86088 17.2989 -8.948
278 1 6.28567 6.28507 15.7301 -8.9501
279 1 7.86171 7.86119 17.3003 -8.95291
280 1 9.43386 6.28538 15.7282 -8.94805
281 1 11.0077 7.85981 17.3013 -8.95114
282 1 12.5825 6.2851 15.7296 -8.94698
283 1 14.1544 7.85998 17.3009 -8.95102
284 1 15.7289 6.28541 15.7284 -8.94515
285 1 17.2985 7.86118 17.2981 -8.94926
286 1 18.8707 6.2886 15.7252 -8.94977
287 1 20.442 7.86181 17.2972 -8.94954
288 1 -1.37646e-06 9.43444 15.7248 -8.94962
289 1 3.1437 9.43464 15.7251 -8.95066
290 1 6.28581 9.43052 15.7292 -8.97979
291 1 9.43734 9.43153 15.7283 -9.00316
292 1 12.584 9.43243 15.7342 -8.95813
293 1 15.7286 9.43308 15.7282 -8.94802
294 1 18.8708 9.43412 15.7253 -8.94937
295 1 22.0137 1.92546e-15 18.8693 -8.94929
296 1 1.57208 1.57215 20.4416 -8.94939
297 1 3.14443 1.42645e-15 18.8695 -8.94957
298 1 4.71699 1.57213 20.4416 -8.94957
299 1 6.28947 1.78508e-15 18.8695 -8.94953
300 1 7.86198 1.57209 20.4416 -8.94954
301 1 9.43452 1.8993e-15 18.8695 -8.94955
302 1 11.007 1.57207 20.4416 -8.94955
303 1 12.5796 1.25112e-15 18.8695 -8.94955
304 1 14.152 1.57208 20.4416 -8.94955
305 1 15.7246 8.52531e-16 18.8694 -8.94949
306 1 17.297 1.57212 20.4416 -8.94954
307 1 18.8693 1.41365e-15 18.8693 -8.94942
308 1 20.4416 1.57223 20.4415 -8.94929
309 1 22.0138 3.14455 18.8694 -8.94957
310 1 1.57208 4.71698 20.4417 -8.94956
311 1 3.1441 3.14414 18.8698 -8.94943
312 1 4.71664 4.71663 20.4417 -8.95012
313 1 6.28928 3.14411 18.8698 -8.9495
314 1 7.86177 4.71645 20.4417 -8.94951
315 1 9.43446 3.14401 18.8697 -8.9495
316 1 11.007 4.71633 20.4417 -8.94957
317 1 12.5797 3.14401 18.8697 -8.94955
318 1 14.1523 4.71635 20.4417 -8.94955
319 1 15.7249 3.14404 18.8697 -8.94945
320 1 17.2975 4.71646 20.4416 -8.9495
321 1 18.8696 3.14428 18.8694 -8.9492
322 1 20.4417 4.71697 20.4415 -8.94956
323 1 -7.48932e-05 6.28946 18.8694 -8.94961
324 1 1.57209 7.86199 20.4416 -8.9496
325 1 3.14399 6.28916 18.8699 -8.94923
326 1 4.71638 7.86166 20.4422 -8.94939
327 1 6.28894 6.28882 18.8706 -8.95096
328 1 7.86183 7.86172 20.4422 -8.95021
329 1 9.43426 6.28837 18.8706 -8.94957
330 1 11.0071 7.86121 20.4423 -8.95018
331 1 12.58 6.28833 18.8709 -8.94969
332 1 14.1526 7.8614 20.4418 -8.95064
333 1 15.7256 6.28844 18.8704 -8.94988
334 1 17.2976 7.8616 20.4416 -8.94939
335 1 18.8698 6.28918 18.8695 -8.94951
5 1 6.28951 1.36305e-15 22.0137 -8.94953
9 1 12.5795 1.31059e-15 22.0137 -8.94954
47 1 12.5799 9.4343 22.0125 -8.95144
15 1 -9.19563e-05 3.14456 22.0137 -8.94953
19 1 6.28935 3.14424 22.0135 -8.94949
21 1 9.43445 3.14414 22.0135 -8.94951
46 1 9.4346 9.43439 22.014 -8.94955
27 1 18.8696 3.1443 22.0136 -8.94917
31 1 3.14428 6.28942 22.0138 -8.94965
39 1 15.7254 6.28852 22.0129 -8.94998
45 1 6.28904 9.43443 22.0141 -8.94964
43 1 1.46866e-05 9.43446 22.0137 -8.94955
1 1 -0.000205883 1.66627e-15 22.0138 -8.94928
13 1 18.8693 6.42148e-16 22.0137 -8.94937
23 1 12.5796 3.14413 22.0136 -8.94949
49 1 18.8699 9.43434 22.0135 -8.94949
183 1 1.57033 4.71592 11.0073 -8.94928
344 1 1.57207 11.007 1.57192 -8.94955
345 1 4.71647 11.007 1.5717 -8.94954
346 1 7.86195 11.007 1.57237 -8.9491
347 1 11.0073 11.007 1.57168 -8.94629
348 1 14.1545 11.007 1.56855 -8.94956
349 1 17.2984 11.007 1.57099 -8.94944
350 1 20.4421 11.007 1.57187 -8.94951
688 3 10.2139 11.007 9.43248 2.30733
352 1 1.57207 14.1519 1.57196 -8.9494
511 1 18.8693 18.8696 9.43451 -8.94957
354 1 4.71652 14.1518 1.57169 -8.94971
510 1 15.725 18.8699 9.43446 -8.94967
356 1 7.86164 14.1523 1.57022 -8.95248
509 1 12.5802 18.87 9.43392 -8.94809
358 1 11.007 14.1532 1.56966 -8.95066
508 1 9.43436 18.8707 9.4341 -8.94617
360 1 14.1539 14.1536 1.56872 -8.95154
361 1 15.7256 12.5798 -0.00113058 -8.94936
362 1 17.2983 14.1527 1.57103 -8.94919
538 1 17.2971 20.4418 11.0069 -8.94955
364 1 20.442 14.1521 1.57191 -8.94945
365 1 22.0139 15.7244 -0.000168118 -8.94954
366 1 1.57188 17.2971 1.57186 -8.94978
507 1 6.28667 18.8738 9.43401 -8.94942
368 1 4.71593 17.2979 1.57065 -8.94945
369 1 6.28904 15.7248 -0.000791864 -8.95065
370 1 7.86163 17.2979 1.571 -8.94914
371 1 9.43424 15.7252 -0.000760052 -8.9496
372 1 11.0071 17.298 1.57107 -8.94936
373 1 12.5798 15.7253 -0.000832619 -8.94968
374 1 14.1527 17.2982 1.57103 -8.94961
506 1 3.14282 18.8708 9.43438 -8.94946
376 1 17.2982 17.2981 1.57119 -8.94822
505 1 -0.000742642 18.8697 9.43448 -8.94952
378 1 20.4419 17.2971 1.57198 -8.94956
504 1 18.8696 15.725 9.43453 -8.94965
380 1 1.57184 20.4418 1.57191 -8.94918
381 1 3.14424 18.8696 -0.000439103 -8.9495
382 1 4.71681 20.4419 1.57179 -8.94963
503 1 15.726 15.7258 9.43449 -8.94707
384 1 7.86196 20.4419 1.57183 -8.94947
502 1 12.5792 15.7238 9.43267 -8.94238
386 1 11.0071 20.442 1.57185 -8.94951
534 1 4.71574 20.443 11.0073 -8.94941
388 1 14.1521 20.442 1.57194 -8.9495
501 1 9.42932 15.7223 9.43363 -9.004
390 1 17.2972 20.442 1.57196 -8.94945
500 1 6.27781 15.7364 9.43328 -8.94219
392 1 20.4415 20.4417 1.57221 -8.94955
393 1 1.57166 11.007 4.71633 -8.94952
394 1 4.71551 11.007 4.71516 -8.94597
395 1 7.86442 11.007 4.71761 -8.94843
396 1 11.0124 11.007 4.72047 -9.0027
397 1 14.1628 11.007 4.70689 -8.94201
398 1 17.3013 11.007 4.71473 -8.94905
399 1 20.4426 11.007 4.71654 -8.94996
400 1 7.94524e-05 12.5795 3.14422 -8.94955
401 1 1.57149 14.1518 4.71659 -8.9499
402 1 3.1439 12.5794 3.14386 -8.9489
403 1 4.7144 14.1523 4.71492 -8.95152
404 1 6.28904 12.5789 3.1436 -8.94921
405 1 7.85581 14.1588 4.70614 -8.95315
406 1 9.43542 12.5797 3.14283 -8.95189
407 1 11.0084 14.1575 4.70763 -8.95087
408 1 12.5828 12.5808 3.13657 -8.95921
409 1 14.1651 14.1638 4.70449 -8.93007
410 1 15.7284 12.5808 3.14096 -8.94759
411 1 17.3011 14.1539 4.7151 -8.95087
412 1 18.8709 12.5798 3.1437 -8.94928
413 1 20.4424 14.1522 4.71673 -8.95021
414 1 22.0138 15.7245 3.14432 -8.94987
415 1 1.57058 17.2978 4.71603 -8.94953
416 1 3.14343 15.7248 3.14353 -8.95034
417 1 4.7127 17.301 4.71275 -8.94455
418 1 6.28658 15.7272 3.13997 -8.94988
419 1 7.86069 17.3006 4.7142 -8.94913
420 1 9.434 15.727 3.14132 -8.94773
421 1 11.0077 17.3002 4.71443 -8.94776
422 1 12.581 15.7272 3.14094 -8.94916
423 1 14.1551 17.3016 4.7142 -8.94975
424 1 15.7287 15.7285 3.14069 -8.94456
425 1 17.2979 17.2978 4.71685 -8.95042
426 1 18.8707 15.7253 3.14384 -8.94967
427 1 20.4414 17.2972 4.71695 -8.94986
428 1 22.0134 18.8696 3.14434 -8.94949
429 1 1.57163 20.4419 4.71671 -8.94946
430 1 3.14328 18.8704 3.14329 -8.94822
431 1 4.71614 20.4427 4.71605 -8.95001
432 1 6.28888 18.8706 3.14336 -8.94963
433 1 7.86193 20.4426 4.71628 -8.94969
434 1 9.43447 18.8705 3.14355 -8.94935
435 1 11.0073 20.4425 4.71637 -8.94963
436 1 12.5799 18.8706 3.14368 -8.94915
437 1 14.1524 20.4425 4.71676 -8.95069
438 1 15.7256 18.8709 3.14365 -8.94939
439 1 17.297 20.4418 4.71717 -8.94965
440 1 18.8695 18.8697 3.14454 -8.94984
441 1 20.4414 20.4417 4.71709 -8.94951
442 1 1.57185 11.007 7.86167 -8.94741
443 1 4.71981 11.007 7.86226 -8.93988
444 1 7.88459 11.007 7.86105 -8.91229
445 1 11.0846 11.007 7.63153 -8.12372
446 1 14.1599 11.007 7.85423 -8.97248
447 1 17.2991 11.007 7.86238 -8.95109
448 1 20.442 11.007 7.86214 -8.94942
449 1 22.0137 12.5793 6.2893 -8.94987
450 1 1.56953 14.1523 7.86167 -8.95214
451 1 3.14311 12.5787 6.28891 -8.94989
452 1 4.70551 14.1572 7.85808 -8.95665
453 1 6.28555 12.578 6.28692 -8.95228
454 1 7.82099 14.1896 7.82727 -8.85359
455 1 9.42115 12.6042 6.28012 -8.90391
456 1 11.0231 14.1611 7.8363 -8.90431
457 1 12.6203 12.6125 6.25236 -8.85514
458 1 14.1555 14.1524 7.86425 -8.95298
459 1 15.7346 12.5819 6.28566 -8.95813
460 1 17.2982 14.1523 7.86277 -8.94984
461 1 18.8716 12.5797 6.28926 -8.95176
462 1 20.4414 14.1521 7.86212 -8.94997
463 1 -0.00113326 15.7248 6.2892 -8.9503
464 1 1.57033 17.298 7.86152 -8.94921
465 1 3.13985 15.7268 6.28703 -8.95038
466 1 4.71268 17.3012 7.86014 -8.94745
467 1 6.27627 15.7374 6.27699 -8.93003
468 1 7.85876 17.3054 7.86009 -8.95918
469 1 9.4337 15.7337 6.28382 -8.95091
470 1 11.0066 17.2989 7.86137 -8.95216
471 1 12.5864 15.7352 6.28208 -8.95301
472 1 14.1529 17.2979 7.86224 -8.94816
473 1 15.7268 15.7259 6.28947 -8.95169
474 1 17.2975 17.2976 7.86208 -8.9491
475 1 18.8698 15.7248 6.28968 -8.94987
476 1 20.4412 17.2973 7.86195 -8.94958
477 1 22.0132 18.8697 6.28933 -8.94944
478 1 1.5715 20.442 7.86184 -8.94949
479 1 3.14299 18.8707 6.28859 -8.94914
480 1 4.71574 20.4429 7.8614 -8.94933
481 1 6.28765 18.8731 6.28768 -8.95157
482 1 7.86179 20.4433 7.8617 -8.95138
483 1 9.43473 18.8721 6.28829 -8.95055
484 1 11.0072 20.4422 7.86197 -8.94942
485 1 12.58 18.8715 6.28906 -8.95259
486 1 14.1525 20.442 7.86197 -8.94926
487 1 15.7249 18.87 6.28969 -8.94942
488 1 17.2971 20.4418 7.86206 -8.94957
489 1 18.8693 18.8696 6.28958 -8.94944
490 1 20.4413 20.4418 7.86202 -8.94956
491 1 -0.00078329 12.5793 9.43451 -8.94948
492 1 3.14194 12.579 9.43452 -8.95264
493 1 6.2783 12.5922 9.43041 -9.0045
494 1 9.35939 12.8158 9.43154 -8.17264
495 1 12.5572 12.5696 9.43394 -8.90365
496 1 15.7218 12.5787 9.43455 -8.94009
497 1 18.8694 12.5796 9.43454 -8.94773
498 1 22.0125 15.725 9.43445 -8.94999
499 1 3.13952 15.7272 9.43416 -8.94869
512 1 1.57198 11.007 11.0072 -8.94677
514 1 7.86078 11.007 10.948 -9.17347
519 1 1.56938 14.1524 11.0072 -8.95204
520 1 4.70535 14.1573 11.0088 -8.95698
532 1 20.4412 17.2973 11.007 -8.94956
527 1 4.71263 17.3013 11.0082 -8.94788
531 1 17.2975 17.2976 11.0069 -8.949
518 1 20.4419 11.007 11.0069 -8.94924
353 1 3.14427 12.5794 -0.000175192 -8.94946
389 1 15.7247 18.8698 -0.000339805 -8.9496
377 1 18.8698 15.7247 -0.000361629 -8.94949
687 2 8.67748 11.007 12.5721 0.755596
513 1 4.7214 11.007 11.0075 -8.99232
686 1 20.4416 20.4417 20.4415 -8.94929
515 1 11.0817 11.007 11.2349 -8.1525
516 1 14.1583 11.007 11.015 -8.97309
517 1 17.2987 11.007 11.0067 -8.95097
391 1 18.8696 18.8696 22.0136 -8.94917
685 1 18.8696 18.8696 18.8694 -8.9492
684 1 17.297 20.4418 20.4416 -8.94954
521 1 7.81893 14.1925 11.0373 -8.90404
522 1 11.027 14.1661 11.0249 -8.93435
523 1 14.1553 14.1521 11.0049 -8.95558
524 1 17.298 14.1523 11.0063 -8.94997
525 1 20.4413 14.1521 11.0069 -8.94998
683 1 15.7249 18.8699 18.8697 -8.94945
682 1 14.152 20.4418 20.4416 -8.94955
528 1 7.85797 17.3073 11.0072 -8.95769
529 1 11.0077 17.3011 11.0058 -8.95133
530 1 14.1527 17.2976 11.0062 -8.94893
681 1 12.5797 18.8699 18.8697 -8.94955
680 1 11.007 20.4418 20.4416 -8.94955
533 1 1.57149 20.442 11.0071 -8.94948
679 1 9.43446 18.8699 18.8697 -8.9495
535 1 7.86161 20.4438 11.0068 -8.95157
536 1 11.0074 20.4427 11.0065 -8.94982
537 1 14.1524 20.442 11.0067 -8.94925
678 1 7.86198 20.4418 20.4416 -8.94954
539 1 20.4413 20.4418 11.007 -8.94956
540 1 1.57186 11.007 14.1526 -8.94849
541 1 4.71804 11.007 14.1522 -8.99632
542 1 7.8442 11.007 14.198 -9.20644
543 1 11.015 11.007 14.1548 -9.03506
544 1 14.1624 11.007 14.162 -8.944
545 1 17.3011 11.007 14.1542 -8.94921
546 1 20.4425 11.007 14.1525 -8.94982
547 1 22.0136 12.5793 12.5797 -8.95004
548 1 1.57112 14.152 14.1525 -8.95012
549 1 3.14264 12.5789 12.58 -8.95126
550 1 4.71321 14.1536 14.1542 -8.95038
551 1 6.2821 12.583 12.5805 -8.98766
552 1 7.85331 14.1621 14.1648 -9.00262
553 1 9.44153 12.6582 12.5863 -9.16257
554 1 11.0125 14.1628 14.166 -8.98142
555 1 12.6156 12.6111 12.6166 -8.90966
556 1 14.1649 14.1635 14.1641 -8.93287
557 1 15.7336 12.5817 12.5833 -8.95708
558 1 17.301 14.1538 14.1538 -8.95101
559 1 18.8713 12.5796 12.5797 -8.95155
560 1 20.4422 14.1522 14.1523 -8.95029
561 1 22.0127 15.7248 12.5798 -8.95017
562 1 1.5705 17.2978 14.1529 -8.94966
563 1 3.13986 15.7269 12.5815 -8.95035
564 1 4.71233 17.3015 14.1562 -8.94482
565 1 6.27626 15.7388 12.5914 -8.93119
566 1 7.85983 17.3027 14.1556 -8.94763
567 1 9.43418 15.7455 12.5841 -8.96493
568 1 11.0088 17.3027 14.1555 -8.94712
569 1 12.5861 15.7357 12.5863 -8.95233
570 1 14.1552 17.3016 14.1547 -8.94983
571 1 15.7267 15.7259 12.5795 -8.95151
572 1 17.2979 17.2978 14.1522 -8.9504
573 1 18.8698 15.7248 12.5793 -8.94987
574 1 20.4414 17.2972 14.1521 -8.94985
575 1 22.0132 18.8697 12.5797 -8.94945
576 1 1.57157 20.442 14.1523 -8.94946
577 1 3.14292 18.8708 12.5803 -8.94913
578 1 4.71596 20.4429 14.153 -8.95002
579 1 6.28747 18.8736 12.5811 -8.9515
580 1 7.8617 20.4432 14.1529 -8.94982
581 1 9.43474 18.8745 12.5805 -8.95373
582 1 11.0076 20.4431 14.1528 -8.94995
583 1 12.5803 18.872 12.5797 -8.95209
584 1 14.1526 20.4426 14.1523 -8.95055
585 1 15.7249 18.8699 12.5792 -8.94959
586 1 17.297 20.4418 14.1518 -8.94971
587 1 18.8693 18.8696 12.5794 -8.94942
588 1 20.4413 20.4417 14.1519 -8.94952
589 1 1.57198 11.007 17.2973 -8.94938
590 1 4.71662 11.007 17.298 -8.94951
591 1 7.86161 11.007 17.3073 -8.96295
592 1 11.0072 11.007 17.2995 -8.94807
593 1 14.1548 11.007 17.3012 -8.9489
594 1 17.2985 11.007 17.2982 -8.94942
595 1 20.442 11.007 17.2972 -8.94953
596 1 -1.37646e-06 12.5795 15.7248 -8.94962
597 1 1.57182 14.1519 17.2972 -8.94981
598 1 3.1437 12.5793 15.7251 -8.95066
599 1 4.71534 14.153 17.2989 -8.948
600 1 6.28581 12.5834 15.7292 -8.97979
601 1 7.86171 14.1527 17.3003 -8.95291
602 1 9.43734 12.5824 15.7283 -9.00316
603 1 11.0077 14.1541 17.3013 -8.95114
604 1 12.584 12.5815 15.7342 -8.95813
605 1 14.1544 14.1539 17.3009 -8.95102
606 1 15.7286 12.5808 15.7282 -8.94802
607 1 17.2985 14.1527 17.2981 -8.94926
608 1 18.8708 12.5798 15.7253 -8.94937
609 1 20.442 14.1521 17.2972 -8.94954
610 1 22.0137 15.7246 15.7248 -8.94988
611 1 1.57173 17.2971 17.2974 -8.94976
612 1 3.14298 15.7251 15.7257 -8.94997
613 1 4.7155 17.2984 17.2989 -8.94935
614 1 6.28567 15.7288 15.7301 -8.9501
615 1 7.86151 17.2983 17.2986 -8.949
616 1 9.43386 15.7285 15.7282 -8.94805
617 1 11.0073 17.2984 17.2985 -8.94963
618 1 12.5825 15.7288 15.7296 -8.94698
619 1 14.1532 17.2986 17.2986 -8.94904
620 1 15.7289 15.7285 15.7284 -8.94515
621 1 17.2983 17.2982 17.2979 -8.94835
622 1 18.8707 15.7253 15.7252 -8.94977
623 1 20.4419 17.2972 17.2971 -8.94958
624 1 -0.000591574 18.8696 15.7247 -8.94956
625 1 1.57175 20.4419 17.2972 -8.94918
626 1 3.14307 18.8706 15.7258 -8.94824
627 1 4.71661 20.4421 17.2975 -8.94959
628 1 6.28846 18.8712 15.7261 -8.94953
629 1 7.8619 20.4421 17.2975 -8.94944
630 1 9.43447 18.8712 15.7258 -8.94924
631 1 11.0071 20.4421 17.2975 -8.94949
632 1 12.5805 18.8713 15.7258 -8.94896
633 1 14.1524 20.4421 17.2974 -8.94941
634 1 15.7257 18.8709 15.7254 -8.94945
635 1 17.2973 20.442 17.2971 -8.94949
636 1 18.8695 18.8697 15.7245 -8.94985
637 1 20.4415 20.4417 17.2969 -8.94959
638 1 1.57209 11.007 20.4416 -8.94957
639 1 4.7165 11.007 20.442 -8.94925
640 1 7.86172 11.007 20.4437 -8.95203
641 1 11.007 11.007 20.4423 -8.94857
642 1 14.1529 11.007 20.4418 -8.95025
643 1 17.2977 11.007 20.4416 -8.94946
644 1 20.4418 11.007 20.4415 -8.94955
645 1 22.0139 12.5794 18.8694 -8.94955
646 1 1.57209 14.1519 20.4416 -8.9496
647 1 3.14414 12.5794 18.8696 -8.94968
648 1 4.71638 14.1522 20.4422 -8.94939
649 1 6.28822 12.5803 18.8717 -8.94873
650 1 7.86183 14.1522 20.4422 -8.95021
651 1 9.43516 12.5802 18.8717 -8.94792
652 1 11.0071 14.1527 20.4423 -8.95018
653 1 12.5801 12.5797 18.8715 -8.95172
654 1 14.1526 14.1525 20.4418 -8.95064
655 1 15.7258 12.5799 18.8705 -8.94936
656 1 17.2976 14.1523 20.4416 -8.94939
657 1 18.8699 12.5796 18.8696 -8.94949
658 1 20.4418 14.152 20.4415 -8.94954
659 1 -7.48932e-05 15.7244 18.8694 -8.94961
660 1 1.57208 17.2969 20.4417 -8.94956
661 1 3.14399 15.7247 18.8699 -8.94923
662 1 4.71664 17.2973 20.4417 -8.95012
663 1 6.28894 15.7251 18.8706 -8.95096
664 1 7.86177 17.2974 20.4417 -8.94951
665 1 9.43426 15.7255 18.8706 -8.94957
666 1 11.007 17.2976 20.4417 -8.94957
667 1 12.58 15.7256 18.8709 -8.94969
668 1 14.1523 17.2976 20.4417 -8.94955
669 1 15.7256 15.7255 18.8704 -8.94988
670 1 17.2975 17.2974 20.4416 -8.9495
671 1 18.8698 15.7247 18.8695 -8.94951
672 1 20.4417 17.2969 20.4415 -8.94956
673 1 22.0138 18.8693 18.8694 -8.94957
674 1 1.57208 20.4418 20.4416 -8.94939
675 1 3.1441 18.8698 18.8698 -8.94943
676 1 4.71699 20.4418 20.4416 -8.94957
677 1 6.28928 18.8698 18.8698 -8.9495
351 1 1.46866e-05 12.5794 22.0137 -8.94955
385 1 9.43445 18.8698 22.0135 -8.94951
355 1 6.28904 12.5795 22.0141 -8.94964
357 1 9.4346 12.5795 22.014 -8.94955
359 1 12.5799 12.5796 22.0125 -8.95144
367 1 3.14428 15.7245 22.0138 -8.94965
375 1 15.7254 15.7254 22.0129 -8.94998
383 1 6.28935 18.8697 22.0135 -8.94949
379 1 -9.19563e-05 18.8693 22.0137 -8.94953
363 1 18.8699 12.5796 22.0135 -8.94949
387 1 12.5796 18.8698 22.0136 -8.94949
526 1 1.57033 17.298 11.0073 -8.94928
