ITEM: TIMESTEP
36
ITEM: NUMBER OF ATOMS
688
ITEM: BOX BOUNDS pp pp pp
0.0000000000000000e+00 2.2013900999999997e+01
0.0000000000000000e+00 2.2013900999999997e+01
0.0000000000000000e+00 2.2013900999999997e+01
ITEM: ATOMS id type x y z c_pot
191 1 4.71717 7.86205 11.0069 -8.94937
2 1 1.57242 1.57242 1.57242 -8.94963
3 1 3.14484 1.07432e-16 4.69715e-11 -8.94963
4 1 4.71726 1.57242 1.57242 -8.94963
175 1 18.8691 9.43453 9.43453 -8.94965
6 1 7.86211 1.57242 1.57242 -8.94963
7 1 9.43453 3.21134e-16 1.43478e-10 -8.94963
8 1 11.007 1.57242 1.57242 -8.94963
174 1 15.7243 9.43451 9.43453 -8.95018
10 1 14.1518 1.57242 1.57242 -8.94963
173 1 12.5824 9.43217 9.43448 -8.91184
12 1 17.2966 1.57242 1.57242 -8.94963
190 1 1.57242 7.86211 11.0069 -8.94964
14 1 20.4415 1.57242 1.57242 -8.94963
172 1 9.39625 9.35613 9.43461 -8.00073
16 1 1.57242 4.71726 1.57242 -8.94963
17 1 3.14484 3.14484 1.10626e-10 -8.94963
18 1 4.71726 4.71726 1.57242 -8.94963
171 1 6.28896 9.43436 9.43496 -8.99938
20 1 7.86211 4.71726 1.57242 -8.94963
170 1 3.14484 9.43454 9.43454 -8.95
22 1 11.007 4.71726 1.57242 -8.94963
189 1 20.4415 4.71726 11.007 -8.94963
24 1 14.1518 4.71726 1.57242 -8.94963
169 1 2.33726e-07 9.43453 9.43453 -8.94963
26 1 17.2966 4.71726 1.57242 -8.94963
168 1 18.8691 6.28969 9.43453 -8.94963
28 1 20.4415 4.71726 1.57242 -8.94963
29 1 22.0139 6.28969 3.02994e-10 -8.94963
30 1 1.57242 7.86211 1.57242 -8.94963
167 1 15.7242 6.28969 9.43453 -8.9497
32 1 4.71726 7.86211 1.57242 -8.94963
33 1 6.28969 6.28969 -1.9502e-08 -8.94963
34 1 7.86211 7.86211 1.57242 -8.94963
35 1 9.43453 6.28969 3.26779e-08 -8.94963
36 1 11.007 7.86211 1.57242 -8.94964
37 1 12.5794 6.28969 4.72419e-08 -8.94963
38 1 14.1518 7.86211 1.57242 -8.94963
166 1 12.5793 6.28968 9.43454 -8.95086
40 1 17.2966 7.86211 1.57242 -8.94963
165 1 9.4345 6.2878 9.43454 -8.96517
42 1 20.4415 7.86211 1.57242 -8.94963
164 1 6.28973 6.28973 9.43453 -8.95129
163 1 3.14484 6.28968 9.43453 -8.9496
162 1 22.0139 6.28969 9.43453 -8.94963
161 1 18.8691 3.14484 9.43453 -8.94963
160 1 15.7242 3.14484 9.43453 -8.94963
48 1 15.7242 9.43453 5.05155e-08 -8.94963
188 1 17.2966 4.71726 11.007 -8.94963
50 1 2.40824e-11 2.53877e-16 3.14484 -8.94963
51 1 1.57242 1.57242 4.71726 -8.94963
52 1 3.14484 2.1615e-16 3.14484 -8.94963
53 1 4.71726 1.57242 4.71726 -8.94963
54 1 6.28969 3.62955e-16 3.14484 -8.94963
55 1 7.86211 1.57242 4.71726 -8.94963
56 1 9.43453 1.44209e-16 3.14484 -8.94963
57 1 11.007 1.57242 4.71726 -8.94963
58 1 12.5794 1.76242e-16 3.14484 -8.94963
59 1 14.1518 1.57242 4.71726 -8.94963
60 1 15.7242 3.67305e-16 3.14484 -8.94963
61 1 17.2966 1.57242 4.71726 -8.94963
62 1 18.8691 5.06248e-17 3.14484 -8.94963
63 1 20.4415 1.57242 4.71726 -8.94963
64 1 22.0139 3.14484 3.14484 -8.94963
65 1 1.57242 4.71726 4.71726 -8.94963
66 1 3.14484 3.14484 3.14484 -8.94963
67 1 4.71726 4.71726 4.71726 -8.94961
68 1 6.28969 3.14484 3.14484 -8.94963
69 1 7.86211 4.71727 4.71727 -8.94969
70 1 9.43453 3.14484 3.14484 -8.94963
71 1 11.0069 4.71727 4.71727 -8.94964
72 1 12.5794 3.14484 3.14484 -8.94963
73 1 14.1518 4.71726 4.71726 -8.94963
74 1 15.7242 3.14484 3.14484 -8.94963
75 1 17.2966 4.71726 4.71726 -8.94963
76 1 18.8691 3.14484 3.14484 -8.94963
77 1 20.4415 4.71726 4.71726 -8.94963
78 1 22.0139 6.28969 3.14484 -8.94963
79 1 1.57242 7.86211 4.71726 -8.94963
80 1 3.14484 6.28969 3.14484 -8.94963
81 1 4.71726 7.86211 4.71726 -8.94965
82 1 6.28969 6.28969 3.14484 -8.94963
83 1 7.86209 7.8621 4.71723 -8.94983
84 1 9.43453 6.28969 3.14484 -8.94964
85 1 11.0069 7.86215 4.7173 -8.9508
86 1 12.5794 6.28969 3.14484 -8.94969
87 1 14.1518 7.86207 4.71723 -8.94894
88 1 15.7242 6.28969 3.14484 -8.94962
89 1 17.2966 7.86211 4.71726 -8.94963
90 1 18.8691 6.28969 3.14484 -8.94963
91 1 20.4415 7.86211 4.71726 -8.94963
92 1 3.55673e-09 9.43453 3.14484 -8.94963
93 1 3.14484 9.43453 3.14484 -8.94964
94 1 6.28969 9.43453 3.14484 -8.94965
95 1 9.43451 9.43451 3.14482 -8.94941
96 1 12.5794 9.43451 3.1448 -8.9497
97 1 15.7242 9.43453 3.14485 -8.94969
98 1 18.8691 9.43453 3.14484 -8.94963
99 1 22.0139 2.21309e-16 6.28969 -8.94963
100 1 1.57242 1.57242 7.86211 -8.94963
101 1 3.14484 1.18968e-17 6.28969 -8.94963
102 1 4.71726 1.57242 7.86211 -8.94963
103 1 6.28969 3.18189e-16 6.28969 -8.94963
104 1 7.86211 1.57242 7.86211 -8.94964
105 1 9.43453 4.60103e-16 6.28969 -8.94963
106 1 11.007 1.57242 7.86211 -8.94963
107 1 12.5794 2.38486e-16 6.28969 -8.94963
108 1 14.1518 1.57242 7.86211 -8.94963
109 1 15.7242 2.20698e-16 6.28969 -8.94963
110 1 17.2966 1.57242 7.86211 -8.94963
111 1 18.8691 9.61257e-17 6.28969 -8.94963
112 1 20.4415 1.57242 7.86211 -8.94963
113 1 22.0139 3.14484 6.28969 -8.94963
114 1 1.57242 4.71726 7.86211 -8.94963
115 1 3.14484 3.14484 6.28969 -8.94963
116 1 4.71727 4.71727 7.86211 -8.94969
117 1 6.28969 3.14484 6.28969 -8.94963
118 1 7.86209 4.71722 7.86209 -8.9497
119 1 9.43453 3.14484 6.28969 -8.94964
120 1 11.007 4.71724 7.86209 -8.94941
121 1 12.5794 3.14484 6.28969 -8.94963
122 1 14.1518 4.71726 7.86211 -8.94966
123 1 15.7242 3.14484 6.28969 -8.94963
124 1 17.2966 4.71726 7.86211 -8.94964
125 1 18.8691 3.14484 6.28969 -8.94963
126 1 20.4415 4.71726 7.86211 -8.94963
127 1 9.8954e-10 6.28969 6.28969 -8.94963
128 1 1.57242 7.86211 7.86211 -8.94965
129 1 3.14484 6.28969 6.28969 -8.94964
130 1 4.71724 7.86211 7.8621 -8.95
131 1 6.28965 6.28965 6.28965 -8.94894
132 1 7.86058 7.86066 7.86058 -8.92417
133 1 9.43454 6.28972 6.28973 -8.9508
134 1 11.0075 7.86174 7.86152 -8.94185
135 1 12.5794 6.28965 6.28968 -8.94983
136 1 14.1518 7.86207 7.86206 -8.94923
137 1 15.7242 6.28969 6.28968 -8.94965
138 1 17.2966 7.86211 7.86211 -8.94964
139 1 18.8691 6.28969 6.28969 -8.94963
140 1 20.4415 7.86211 7.86211 -8.94963
141 1 22.0139 9.43453 6.28969 -8.94963
142 1 3.14484 9.43453 6.28969 -8.94964
143 1 6.28963 9.43447 6.28965 -8.94906
144 1 9.43398 9.43394 6.28931 -8.94174
145 1 12.5809 9.43299 6.28823 -8.92387
146 1 15.7242 9.43452 6.28968 -8.94991
147 1 18.8691 9.43453 6.28969 -8.94964
148 1 3.60271e-10 2.10604e-16 9.43453 -8.94963
149 1 3.14484 -7.67623e-17 9.43453 -8.94963
150 1 6.28969 7.22134e-17 9.43453 -8.94963
151 1 9.43453 1.62189e-16 9.43453 -8.94965
152 1 12.5794 9.06464e-17 9.43453 -8.94963
153 1 15.7242 4.21918e-16 9.43453 -8.94963
154 1 18.8691 1.85454e-16 9.43453 -8.94963
155 1 2.09083e-09 3.14484 9.43453 -8.94963
156 1 3.14484 3.14484 9.43453 -8.94963
157 1 6.28969 3.14484 9.43453 -8.94963
158 1 9.43453 3.14481 9.43453 -8.95013
159 1 12.5794 3.14484 9.43453 -8.94965
177 1 4.71726 1.57242 11.007 -8.94963
181 1 17.2966 1.57242 11.007 -8.94963
184 1 4.71727 4.71726 11.0069 -8.9497
11 1 15.7242 2.56941e-16 4.924e-11 -8.94963
25 1 15.7242 3.14484 5.88474e-10 -8.94963
41 1 18.8691 6.28969 8.28009e-10 -8.94963
44 1 3.14484 9.43453 -3.08313e-09 -8.94963
176 1 1.57242 1.57242 11.007 -8.94963
343 1 18.8691 9.43453 18.8691 -8.94963
178 1 7.86211 1.57242 11.007 -8.94964
179 1 11.007 1.57242 11.007 -8.94963
180 1 14.1518 1.57242 11.007 -8.94963
342 1 15.7242 9.43453 18.8691 -8.94964
182 1 20.4415 1.57242 11.007 -8.94963
341 1 12.5794 9.43453 18.8691 -8.94965
340 1 9.43453 9.43452 18.8691 -8.94952
185 1 7.86208 4.71722 11.007 -8.94959
186 1 11.007 4.71724 11.007 -8.94922
187 1 14.1518 4.71726 11.007 -8.94965
339 1 6.28968 9.43452 18.8691 -8.94944
338 1 3.14484 9.43453 18.8691 -8.94963
337 1 22.0139 9.43453 18.8691 -8.94963
336 1 20.4415 7.86211 20.4415 -8.94963
192 1 7.86043 7.86075 11.0085 -8.97954
193 1 11.0073 7.86216 11.0075 -8.98341
194 1 14.1518 7.86208 11.007 -8.9494
195 1 17.2966 7.86211 11.007 -8.94963
196 1 20.4415 7.86211 11.007 -8.94963
197 1 22.0139 2.17181e-17 12.5794 -8.94963
198 1 1.57242 1.57242 14.1518 -8.94963
199 1 3.14484 7.14918e-17 12.5794 -8.94963
200 1 4.71726 1.57242 14.1518 -8.94963
201 1 6.28969 -1.1351e-16 12.5794 -8.94963
202 1 7.86211 1.57242 14.1518 -8.94963
203 1 9.43453 -9.36815e-17 12.5794 -8.94964
204 1 11.007 1.57242 14.1518 -8.94963
205 1 12.5794 -4.31771e-18 12.5794 -8.94963
206 1 14.1518 1.57242 14.1518 -8.94963
207 1 15.7242 3.25775e-16 12.5794 -8.94963
208 1 17.2966 1.57242 14.1518 -8.94963
209 1 18.8691 2.60367e-16 12.5794 -8.94963
210 1 20.4415 1.57242 14.1518 -8.94963
211 1 22.0139 3.14484 12.5794 -8.94963
212 1 1.57242 4.71726 14.1518 -8.94963
213 1 3.14484 3.14484 12.5794 -8.94963
214 1 4.71726 4.71726 14.1518 -8.94962
215 1 6.28969 3.14484 12.5794 -8.94964
216 1 7.8621 4.71726 14.1518 -8.94957
217 1 9.43453 3.14484 12.5794 -8.94977
218 1 11.007 4.71727 14.1518 -8.94945
219 1 12.5794 3.14484 12.5794 -8.94963
220 1 14.1518 4.71726 14.1518 -8.94963
221 1 15.7242 3.14484 12.5794 -8.94963
222 1 17.2966 4.71726 14.1518 -8.94963
223 1 18.8691 3.14484 12.5794 -8.94963
224 1 20.4415 4.71726 14.1518 -8.94963
225 1 22.0139 6.28969 12.5794 -8.94963
226 1 1.57242 7.86211 14.1518 -8.94963
227 1 3.14484 6.28969 12.5794 -8.94968
228 1 4.71721 7.86205 14.1518 -8.94912
229 1 6.28964 6.28961 12.5794 -8.9495
230 1 7.86194 7.8622 14.1518 -9.00551
231 1 9.43451 6.28925 12.5793 -8.95518
232 1 11.0067 7.86258 14.1518 -8.99239
233 1 12.5794 6.28968 12.5794 -8.95029
234 1 14.1518 7.86208 14.1518 -8.94908
235 1 15.7242 6.28969 12.5794 -8.94964
236 1 17.2966 7.86211 14.1518 -8.94963
237 1 18.8691 6.28969 12.5794 -8.94963
238 1 20.4415 7.86211 14.1518 -8.94963
239 1 22.0139 9.43453 12.5794 -8.94965
240 1 3.14479 9.43453 12.5794 -8.95038
241 1 6.28717 9.43283 12.5794 -8.98502
242 1 9.44208 9.41785 12.5797 -9.23543
243 1 12.5803 9.43341 12.5808 -8.97107
244 1 15.7242 9.43452 12.5794 -8.94972
245 1 18.8691 9.43453 12.5794 -8.94964
246 1 1.2749e-10 -2.0593e-16 15.7242 -8.94963
247 1 1.57242 1.57242 17.2966 -8.94963
248 1 3.14484 9.90275e-17 15.7242 -8.94963
249 1 4.71726 1.57242 17.2966 -8.94963
250 1 6.28969 3.30109e-16 15.7242 -8.94963
251 1 7.86211 1.57242 17.2966 -8.94963
252 1 9.43453 5.28231e-16 15.7242 -8.94963
253 1 11.007 1.57242 17.2966 -8.94963
254 1 12.5794 2.35999e-16 15.7242 -8.94963
255 1 14.1518 1.57242 17.2966 -8.94963
256 1 15.7242 -5.42771e-18 15.7242 -8.94963
257 1 17.2966 1.57242 17.2966 -8.94963
258 1 18.8691 1.13181e-16 15.7242 -8.94963
259 1 20.4415 1.57242 17.2966 -8.94963
260 1 2.57449e-09 3.14484 15.7242 -8.94963
261 1 1.57242 4.71726 17.2966 -8.94963
262 1 3.14484 3.14484 15.7242 -8.94963
263 1 4.71726 4.71726 17.2966 -8.94963
264 1 6.28969 3.14484 15.7242 -8.94963
265 1 7.86211 4.71726 17.2966 -8.94963
266 1 9.43453 3.14484 15.7242 -8.94964
267 1 11.007 4.71726 17.2966 -8.94963
268 1 12.5794 3.14484 15.7242 -8.94963
269 1 14.1518 4.71726 17.2966 -8.94964
270 1 15.7242 3.14484 15.7242 -8.94963
271 1 17.2966 4.71726 17.2966 -8.94963
272 1 18.8691 3.14484 15.7242 -8.94963
273 1 20.4415 4.71726 17.2966 -8.94963
274 1 22.0139 6.28969 15.7242 -8.94963
275 1 1.57242 7.86211 17.2966 -8.94964
276 1 3.14484 6.28968 15.7242 -8.9496
277 1 4.71727 7.86212 17.2966 -8.94973
278 1 6.28969 6.28969 15.7242 -8.94966
279 1 7.86211 7.86212 17.2966 -8.94994
280 1 9.43453 6.2897 15.7242 -8.94996
281 1 11.0069 7.86211 17.2966 -8.94966
282 1 12.5794 6.28969 15.7242 -8.94979
283 1 14.1518 7.86211 17.2966 -8.9496
284 1 15.7242 6.28969 15.7242 -8.94962
285 1 17.2966 7.86211 17.2966 -8.94963
286 1 18.8691 6.28969 15.7242 -8.94963
287 1 20.4415 7.86211 17.2966 -8.94963
288 1 4.76267e-07 9.43453 15.7242 -8.94963
289 1 3.14486 9.43454 15.7242 -8.94977
290 1 6.28988 9.43448 15.7238 -8.99126
291 1 9.43466 9.43456 15.7241 -9.0051
292 1 12.5794 9.43446 15.7243 -8.94916
293 1 15.7242 9.43453 15.7242 -8.94969
294 1 18.8691 9.43453 15.7242 -8.94963
295 1 22.0139 3.62105e-17 18.8691 -8.94963
296 1 1.57242 1.57242 20.4415 -8.94963
297 1 3.14484 -5.75287e-17 18.8691 -8.94963
298 1 4.71726 1.57242 20.4415 -8.94963
299 1 6.28969 3.31377e-16 18.8691 -8.94963
300 1 7.86211 1.57242 20.4415 -8.94963
301 1 9.43453 4.13808e-16 18.8691 -8.94963
302 1 11.007 1.57242 20.4415 -8.94963
303 1 12.5794 4.26158e-16 18.8691 -8.94963
304 1 14.1518 1.57242 20.4415 -8.94963
305 1 15.7242 1.05894e-16 18.8691 -8.94963
306 1 17.2966 1.57242 20.4415 -8.94963
307 1 18.8691 2.44327e-16 18.8691 -8.94963
308 1 20.4415 1.57242 20.4415 -8.94963
309 1 22.0139 3.14484 18.8691 -8.94963
310 1 1.57242 4.71726 20.4415 -8.94963
311 1 3.14484 3.14484 18.8691 -8.94963
312 1 4.71726 4.71726 20.4415 -8.94963
313 1 6.28969 3.14484 18.8691 -8.94963
314 1 7.86211 4.71726 20.4415 -8.94963
315 1 9.43453 3.14484 18.8691 -8.94963
316 1 11.007 4.71726 20.4415 -8.94963
317 1 12.5794 3.14484 18.8691 -8.94963
318 1 14.1518 4.71726 20.4415 -8.94963
319 1 15.7242 3.14484 18.8691 -8.94963
320 1 17.2966 4.71726 20.4415 -8.94963
321 1 18.8691 3.14484 18.8691 -8.94963
322 1 20.4415 4.71726 20.4415 -8.94963
323 1 1.57253e-08 6.28969 18.8691 -8.94963
324 1 1.57242 7.86211 20.4415 -8.94963
325 1 3.14484 6.28969 18.8691 -8.94964
326 1 4.71726 7.86211 20.4415 -8.94963
327 1 6.28969 6.28969 18.8691 -8.94963
328 1 7.86211 7.86211 20.4415 -8.94964
329 1 9.43453 6.28969 18.8691 -8.94963
330 1 11.007 7.86211 20.4415 -8.94963
331 1 12.5794 6.28969 18.8691 -8.94963
332 1 14.1518 7.86211 20.4415 -8.94963
333 1 15.7242 6.28969 18.8691 -8.94963
334 1 17.2966 7.86211 20.4415 -8.94963
335 1 18.8691 6.28969 18.8691 -8.94963
5 1 6.28969 2.2909e-16 22.0139 -8.94963
9 1 12.5794 1.9209e-16 22.0139 -8.94963
47 1 12.5794 9.43453 22.0139 -8.94964
15 1 6.37983e-11 3.14484 22.0139 -8.94963
19 1 6.28969 3.14484 22.0139 -8.94963
21 1 9.43453 3.14484 22.0139 -8.94963
46 1 9.43453 9.43453 22.0139 -8.94963
27 1 18.8691 3.14484 22.0139 -8.94963
31 1 3.14484 6.28969 22.0139 -8.94963
39 1 15.7242 6.28969 22.0139 -8.94963
45 1 6.28969 9.43453 22.0139 -8.94963
43 1 8.39619e-10 9.43453 22.0139 -8.94963
1 1 1.86161e-12 1.12172e-16 22.0139 -8.94963
13 1 18.8691 2.80737e-16 22.0139 -8.94963
23 1 12.5794 3.14484 22.0139 -8.94963
49 1 18.8691 9.43453 22.0139 -8.94963
183 1 1.57242 4.71726 11.007 -8.94963
344 1 1.57242 11.007 1.57242 -8.94963
345 1 4.71726 11.007 1.57242 -8.94963
346 1 7.86211 11.007 1.57242 -8.94966
347 1 11.007 11.007 1.57239 -8.95013
348 1 14.1518 11.007 1.57242 -8.94963
349 1 17.2966 11.007 1.57242 -8.94963
350 1 20.4415 11.007 1.57242 -8.94963
688 3 10.2207 11.007 9.43448 3.87928
352 1 1.57242 14.1518 1.57242 -8.94963
511 1 18.8691 18.8691 9.43453 -8.94963
354 1 4.71726 14.1518 1.57242 -8.94963
510 1 15.7242 18.8691 9.43453 -8.94963
356 1 7.86211 14.1518 1.57242 -8.94963
509 1 12.5794 18.8691 9.43453 -8.94965
358 1 11.007 14.1518 1.57242 -8.94964
508 1 9.43453 18.8691 9.43453 -8.95013
360 1 14.1518 14.1518 1.57242 -8.94963
361 1 15.7242 12.5794 5.05155e-08 -8.94963
362 1 17.2966 14.1518 1.57242 -8.94963
538 1 17.2966 20.4415 11.007 -8.94963
364 1 20.4415 14.1518 1.57242 -8.94963
365 1 22.0139 15.7242 3.02994e-10 -8.94963
366 1 1.57242 17.2966 1.57242 -8.94963
507 1 6.28969 18.8691 9.43453 -8.94963
368 1 4.71726 17.2966 1.57242 -8.94963
369 1 6.28969 15.7242 -1.9502e-08 -8.94963
370 1 7.86211 17.2966 1.57242 -8.94963
371 1 9.43453 15.7242 3.26779e-08 -8.94963
372 1 11.007 17.2966 1.57242 -8.94963
373 1 12.5794 15.7242 4.72419e-08 -8.94963
374 1 14.1518 17.2966 1.57242 -8.94963
506 1 3.14484 18.8691 9.43453 -8.94963
376 1 17.2966 17.2966 1.57242 -8.94963
505 1 2.09083e-09 18.8691 9.43453 -8.94963
378 1 20.4415 17.2966 1.57242 -8.94963
504 1 18.8691 15.7242 9.43453 -8.94963
380 1 1.57242 20.4415 1.57242 -8.94963
381 1 3.14484 18.8691 1.10626e-10 -8.94963
382 1 4.71726 20.4415 1.57242 -8.94963
503 1 15.7242 15.7242 9.43453 -8.9497
384 1 7.86211 20.4415 1.57242 -8.94963
502 1 12.5793 15.7242 9.43454 -8.95086
386 1 11.007 20.4415 1.57242 -8.94963
534 1 4.71726 20.4415 11.007 -8.94963
388 1 14.1518 20.4415 1.57242 -8.94963
501 1 9.4345 15.7261 9.43454 -8.96517
390 1 17.2966 20.4415 1.57242 -8.94963
500 1 6.28973 15.7242 9.43453 -8.95129
392 1 20.4415 20.4415 1.57242 -8.94963
393 1 1.57242 11.007 4.71726 -8.94963
394 1 4.71727 11.007 4.71727 -8.9497
395 1 7.86213 11.007 4.71724 -8.95089
396 1 11.007 11.007 4.71537 -8.96486
397 1 14.1517 11.007 4.71731 -8.95127
398 1 17.2966 11.007 4.71726 -8.94962
399 1 20.4415 11.007 4.71726 -8.94963
400 1 3.55673e-09 12.5794 3.14484 -8.94963
401 1 1.57242 14.1518 4.71726 -8.94963
402 1 3.14484 12.5794 3.14484 -8.94964
403 1 4.71726 14.1518 4.71726 -8.94965
404 1 6.28969 12.5794 3.14484 -8.94965
405 1 7.86209 14.1518 4.71723 -8.94983
406 1 9.43451 12.5794 3.14482 -8.94941
407 1 11.0069 14.1518 4.7173 -8.9508
408 1 12.5794 12.5794 3.1448 -8.9497
409 1 14.1518 14.1518 4.71723 -8.94894
410 1 15.7242 12.5794 3.14485 -8.94969
411 1 17.2966 14.1518 4.71726 -8.94963
412 1 18.8691 12.5794 3.14484 -8.94963
413 1 20.4415 14.1518 4.71726 -8.94963
414 1 22.0139 15.7242 3.14484 -8.94963
415 1 1.57242 17.2966 4.71726 -8.94963
416 1 3.14484 15.7242 3.14484 -8.94963
417 1 4.71726 17.2966 4.71726 -8.94961
418 1 6.28969 15.7242 3.14484 -8.94963
419 1 7.86211 17.2966 4.71727 -8.94969
420 1 9.43453 15.7242 3.14484 -8.94964
421 1 11.0069 17.2966 4.71727 -8.94964
422 1 12.5794 15.7242 3.14484 -8.94969
423 1 14.1518 17.2966 4.71726 -8.94963
424 1 15.7242 15.7242 3.14484 -8.94962
425 1 17.2966 17.2966 4.71726 -8.94963
426 1 18.8691 15.7242 3.14484 -8.94963
427 1 20.4415 17.2966 4.71726 -8.94963
428 1 22.0139 18.8691 3.14484 -8.94963
429 1 1.57242 20.4415 4.71726 -8.94963
430 1 3.14484 18.8691 3.14484 -8.94963
431 1 4.71726 20.4415 4.71726 -8.94963
432 1 6.28969 18.8691 3.14484 -8.94963
433 1 7.86211 20.4415 4.71726 -8.94963
434 1 9.43453 18.8691 3.14484 -8.94963
435 1 11.007 20.4415 4.71726 -8.94963
436 1 12.5794 18.8691 3.14484 -8.94963
437 1 14.1518 20.4415 4.71726 -8.94963
438 1 15.7242 18.8691 3.14484 -8.94963
439 1 17.2966 20.4415 4.71726 -8.94963
440 1 18.8691 18.8691 3.14484 -8.94963
441 1 20.4415 20.4415 4.71726 -8.94963
442 1 1.57242 11.007 7.86211 -8.94963
443 1 4.71721 11.007 7.86212 -8.95064
444 1 7.85913 11.007 7.85932 -8.9167
445 1 11.0454 11.007 7.78369 -7.94686
446 1 14.1527 11.007 7.86199 -8.95784
447 1 17.2967 11.007 7.86211 -8.94986
448 1 20.4415 11.007 7.86211 -8.94964
449 1 22.0139 12.5794 6.28969 -8.94963
450 1 1.57242 14.1518 7.86211 -8.94965
451 1 3.14484 12.5794 6.28969 -8.94964
452 1 4.71724 14.1518 7.8621 -8.95
453 1 6.28963 12.5794 6.28965 -8.94906
454 1 7.86058 14.1532 7.86058 -8.92417
455 1 9.43398 12.58 6.28931 -8.94174
456 1 11.0075 14.1522 7.86152 -8.94185
457 1 12.5809 12.5809 6.28823 -8.92387
458 1 14.1518 14.1518 7.86206 -8.94923
459 1 15.7242 12.5794 6.28968 -8.94991
460 1 17.2966 14.1518 7.86211 -8.94964
461 1 18.8691 12.5794 6.28969 -8.94964
462 1 20.4415 14.1518 7.86211 -8.94963
463 1 9.8954e-10 15.7242 6.28969 -8.94963
464 1 1.57242 17.2966 7.86211 -8.94963
465 1 3.14484 15.7242 6.28969 -8.94964
466 1 4.71727 17.2966 7.86211 -8.94969
467 1 6.28965 15.7243 6.28965 -8.94894
468 1 7.86209 17.2967 7.86209 -8.9497
469 1 9.43454 15.7242 6.28973 -8.9508
470 1 11.007 17.2967 7.86209 -8.94941
471 1 12.5794 15.7243 6.28968 -8.94983
472 1 14.1518 17.2966 7.86211 -8.94966
473 1 15.7242 15.7242 6.28968 -8.94965
474 1 17.2966 17.2966 7.86211 -8.94964
475 1 18.8691 15.7242 6.28969 -8.94963
476 1 20.4415 17.2966 7.86211 -8.94963
477 1 22.0139 18.8691 6.28969 -8.94963
478 1 1.57242 20.4415 7.86211 -8.94963
479 1 3.14484 18.8691 6.28969 -8.94963
480 1 4.71726 20.4415 7.86211 -8.94963
481 1 6.28969 18.8691 6.28969 -8.94963
482 1 7.86211 20.4415 7.86211 -8.94964
483 1 9.43453 18.8691 6.28969 -8.94964
484 1 11.007 20.4415 7.86211 -8.94963
485 1 12.5794 18.8691 6.28969 -8.94963
486 1 14.1518 20.4415 7.86211 -8.94963
487 1 15.7242 18.8691 6.28969 -8.94963
488 1 17.2966 20.4415 7.86211 -8.94963
489 1 18.8691 18.8691 6.28969 -8.94963
490 1 20.4415 20.4415 7.86211 -8.94963
491 1 2.33726e-07 12.5794 9.43453 -8.94963
492 1 3.14484 12.5794 9.43454 -8.95
493 1 6.28896 12.5795 9.43496 -8.99938
494 1 9.39625 12.6578 9.43461 -8.00073
495 1 12.5824 12.5817 9.43448 -8.91184
496 1 15.7243 12.5794 9.43453 -8.95018
497 1 18.8691 12.5794 9.43453 -8.94965
498 1 22.0139 15.7242 9.43453 -8.94963
499 1 3.14484 15.7242 9.43453 -8.9496
512 1 1.57243 11.007 11.0069 -8.94946
514 1 7.851 11.007 10.9932 -9.20903
519 1 1.57242 14.1518 11.0069 -8.94964
520 1 4.71717 14.1519 11.0069 -8.94937
532 1 20.4415 17.2966 11.007 -8.94963
527 1 4.71727 17.2966 11.0069 -8.9497
531 1 17.2966 17.2966 11.007 -8.94963
518 1 20.4415 11.007 11.007 -8.94963
353 1 3.14484 12.5794 -3.08313e-09 -8.94963
389 1 15.7242 18.8691 5.88474e-10 -8.94963
377 1 18.8691 15.7242 8.28009e-10 -8.94963
687 2 8.64832 11.007 12.5793 1.07878
513 1 4.7178 11.007 11.0074 -8.99773
686 1 20.4415 20.4415 20.4415 -8.94963
515 1 11.0479 11.007 11.0838 -7.98054
516 1 14.1528 11.007 11.0071 -8.9584
517 1 17.2967 11.007 11.007 -8.94988
391 1 18.8691 18.8691 22.0139 -8.94963
685 1 18.8691 18.8691 18.8691 -8.94963
684 1 17.2966 20.4415 20.4415 -8.94963
521 1 7.86043 14.1531 11.0085 -8.97954
522 1 11.0073 14.1517 11.0075 -8.98341
523 1 14.1518 14.1518 11.007 -8.9494
524 1 17.2966 14.1518 11.007 -8.94963
525 1 20.4415 14.1518 11.007 -8.94963
683 1 15.7242 18.8691 18.8691 -8.94963
682 1 14.1518 20.4415 20.4415 -8.94963
528 1 7.86208 17.2967 11.007 -8.94959
529 1 11.007 17.2967 11.007 -8.94922
530 1 14.1518 17.2966 11.007 -8.94965
681 1 12.5794 18.8691 18.8691 -8.94963
680 1 11.007 20.4415 20.4415 -8.94963
533 1 1.57242 20.4415 11.007 -8.94963
679 1 9.43453 18.8691 18.8691 -8.94963
535 1 7.86211 20.4415 11.007 -8.94964
536 1 11.007 20.4415 11.007 -8.94963
537 1 14.1518 20.4415 11.007 -8.94963
678 1 7.86211 20.4415 20.4415 -8.94963
539 1 20.4415 20.4415 11.007 -8.94963
540 1 1.57243 11.007 14.1518 -8.94945
541 1 4.71789 11.007 14.1514 -8.99729
542 1 7.85405 11.007 14.1679 -9.24442
543 1 11.0095 11.007 14.1553 -9.00109
544 1 14.1518 11.007 14.1517 -8.95202
545 1 17.2966 11.007 14.1518 -8.94964
546 1 20.4415 11.007 14.1518 -8.94963
547 1 22.0139 12.5794 12.5794 -8.94965
548 1 1.57242 14.1518 14.1518 -8.94963
549 1 3.14479 12.5794 12.5794 -8.95038
550 1 4.71721 14.1518 14.1518 -8.94912
551 1 6.28717 12.5811 12.5794 -8.98502
552 1 7.86194 14.1517 14.1518 -9.00551
553 1 9.44208 12.5961 12.5797 -9.23543
554 1 11.0067 14.1513 14.1518 -8.99239
555 1 12.5803 12.5805 12.5808 -8.97107
556 1 14.1518 14.1518 14.1518 -8.94908
557 1 15.7242 12.5794 12.5794 -8.94972
558 1 17.2966 14.1518 14.1518 -8.94963
559 1 18.8691 12.5794 12.5794 -8.94964
560 1 20.4415 14.1518 14.1518 -8.94963
561 1 22.0139 15.7242 12.5794 -8.94963
562 1 1.57242 17.2966 14.1518 -8.94963
563 1 3.14484 15.7242 12.5794 -8.94968
564 1 4.71726 17.2966 14.1518 -8.94962
565 1 6.28964 15.7243 12.5794 -8.9495
566 1 7.8621 17.2966 14.1518 -8.94957
567 1 9.43451 15.7246 12.5793 -8.95518
568 1 11.007 17.2966 14.1518 -8.94945
569 1 12.5794 15.7242 12.5794 -8.95029
570 1 14.1518 17.2966 14.1518 -8.94963
571 1 15.7242 15.7242 12.5794 -8.94964
572 1 17.2966 17.2966 14.1518 -8.94963
573 1 18.8691 15.7242 12.5794 -8.94963
574 1 20.4415 17.2966 14.1518 -8.94963
575 1 22.0139 18.8691 12.5794 -8.94963
576 1 1.57242 20.4415 14.1518 -8.94963
577 1 3.14484 18.8691 12.5794 -8.94963
578 1 4.71726 20.4415 14.1518 -8.94963
579 1 6.28969 18.8691 12.5794 -8.94964
580 1 7.86211 20.4415 14.1518 -8.94963
581 1 9.43453 18.8691 12.5794 -8.94977
582 1 11.007 20.4415 14.1518 -8.94963
583 1 12.5794 18.8691 12.5794 -8.94963
584 1 14.1518 20.4415 14.1518 -8.94963
585 1 15.7242 18.8691 12.5794 -8.94963
586 1 17.2966 20.4415 14.1518 -8.94963
587 1 18.8691 18.8691 12.5794 -8.94963
588 1 20.4415 20.4415 14.1518 -8.94963
589 1 1.57242 11.007 17.2966 -8.94962
590 1 4.71729 11.007 17.2966 -8.95009
591 1 7.86214 11.007 17.2971 -8.95405
592 1 11.007 11.007 17.2967 -8.95068
593 1 14.1518 11.007 17.2966 -8.94968
594 1 17.2966 11.007 17.2966 -8.94963
595 1 20.4415 11.007 17.2966 -8.94963
596 1 4.76267e-07 12.5794 15.7242 -8.94963
597 1 1.57242 14.1518 17.2966 -8.94964
598 1 3.14486 12.5794 15.7242 -8.94977
599 1 4.71727 14.1518 17.2966 -8.94973
600 1 6.28988 12.5794 15.7238 -8.99126
601 1 7.86211 14.1518 17.2966 -8.94994
602 1 9.43466 12.5793 15.7241 -9.0051
603 1 11.0069 14.1518 17.2966 -8.94966
604 1 12.5794 12.5794 15.7243 -8.94916
605 1 14.1518 14.1518 17.2966 -8.9496
606 1 15.7242 12.5794 15.7242 -8.94969
607 1 17.2966 14.1518 17.2966 -8.94963
608 1 18.8691 12.5794 15.7242 -8.94963
609 1 20.4415 14.1518 17.2966 -8.94963
610 1 22.0139 15.7242 15.7242 -8.94963
611 1 1.57242 17.2966 17.2966 -8.94963
612 1 3.14484 15.7242 15.7242 -8.9496
613 1 4.71726 17.2966 17.2966 -8.94963
614 1 6.28969 15.7242 15.7242 -8.94966
615 1 7.86211 17.2966 17.2966 -8.94963
616 1 9.43453 15.7242 15.7242 -8.94996
617 1 11.007 17.2966 17.2966 -8.94963
618 1 12.5794 15.7242 15.7242 -8.94979
619 1 14.1518 17.2966 17.2966 -8.94964
620 1 15.7242 15.7242 15.7242 -8.94962
621 1 17.2966 17.2966 17.2966 -8.94963
622 1 18.8691 15.7242 15.7242 -8.94963
623 1 20.4415 17.2966 17.2966 -8.94963
624 1 2.57449e-09 18.8691 15.7242 -8.94963
625 1 1.57242 20.4415 17.2966 -8.94963
626 1 3.14484 18.8691 15.7242 -8.94963
627 1 4.71726 20.4415 17.2966 -8.94963
628 1 6.28969 18.8691 15.7242 -8.94963
629 1 7.86211 20.4415 17.2966 -8.94963
630 1 9.43453 18.8691 15.7242 -8.94964
631 1 11.007 20.4415 17.2966 -8.94963
632 1 12.5794 18.8691 15.7242 -8.94963
633 1 14.1518 20.4415 17.2966 -8.94963
634 1 15.7242 18.8691 15.7242 -8.94963
635 1 17.2966 20.4415 17.2966 -8.94963
636 1 18.8691 18.8691 15.7242 -8.94963
637 1 20.4415 20.4415 17.2966 -8.94963
638 1 1.57242 11.007 20.4415 -8.94963
639 1 4.71726 11.007 20.4415 -8.94963
640 1 7.86211 11.007 20.4415 -8.94976
641 1 11.007 11.007 20.4415 -8.94967
642 1 14.1518 11.007 20.4415 -8.94963
643 1 17.2966 11.007 20.4415 -8.94963
644 1 20.4415 11.007 20.4415 -8.94963
645 1 22.0139 12.5794 18.8691 -8.94963
646 1 1.57242 14.1518 20.4415 -8.94963
647 1 3.14484 12.5794 18.8691 -8.94963
648 1 4.71726 14.1518 20.4415 -8.94963
649 1 6.28968 12.5794 18.8691 -8.94944
650 1 7.86211 14.1518 20.4415 -8.94964
651 1 9.43453 12.5794 18.8691 -8.94952
652 1 11.007 14.1518 20.4415 -8.94963
653 1 12.5794 12.5794 18.8691 -8.94965
654 1 14.1518 14.1518 20.4415 -8.94963
655 1 15.7242 12.5794 18.8691 -8.94964
656 1 17.2966 14.1518 20.4415 -8.94963
657 1 18.8691 12.5794 18.8691 -8.94963
658 1 20.4415 14.1518 20.4415 -8.94963
659 1 1.57253e-08 15.7242 18.8691 -8.94963
660 1 1.57242 17.2966 20.4415 -8.94963
661 1 3.14484 15.7242 18.8691 -8.94964
662 1 4.71726 17.2966 20.4415 -8.94963
663 1 6.28969 15.7242 18.8691 -8.94963
664 1 7.86211 17.2966 20.4415 -8.94963
665 1 9.43453 15.7242 18.8691 -8.94963
666 1 11.007 17.2966 20.4415 -8.94963
667 1 12.5794 15.7242 18.8691 -8.94963
668 1 14.1518 17.2966 20.4415 -8.94963
669 1 15.7242 15.7242 18.8691 -8.94963
670 1 17.2966 17.2966 20.4415 -8.94963
671 1 18.8691 15.7242 18.8691 -8.94963
672 1 20.4415 17.2966 20.4415 -8.94963
673 1 22.0139 18.8691 18.8691 -8.94963
674 1 1.57242 20.4415 20.4415 -8.94963
675 1 3.14484 18.8691 18.8691 -8.94963
676 1 4.71726 20.4415 20.4415 -8.94963
677 1 6.28969 18.8691 18.8691 -8.94963
351 1 8.39619e-10 12.5794 22.0139 -8.94963
385 1 9.43453 18.8691 22.0139 -8.94963
355 1 6.28969 12.5794 22.0139 -8.94963
357 1 9.43453 12.5794 22.0139 -8.94963
359 1 12.5794 12.5794 22.0139 -8.94964
367 1 3.14484 15.7242 22.0139 -8.94963
375 1 15.7242 15.7242 22.0139 -8.94963
383 1 6.28969 18.8691 22.0139 -8.94963
379 1 6.37984e-11 18.8691 22.0139 -8.94963
363 1 18.8691 12.5794 22.0139 -8.94963
387 1 12.5794 18.8691 22.0139 -8.94963
526 1 1.57242 17.2966 11.007 -8.94963
