ITEM: TIMESTEP
108
ITEM: NUMBER OF ATOMS
688
ITEM: BOX BOUNDS pp pp pp
0.0000000000000000e+00 2.2013900999999997e+01
0.0000000000000000e+00 2.2013900999999997e+01
0.0000000000000000e+00 2.2013900999999997e+01
ITEM: ATOMS id type x y z c_pot
191 1 4.70507 7.85594 11.0088 -8.95693
2 1 1.57155 1.57195 1.57169 -8.94912
3 1 3.14425 1.07483e-15 -0.000330808 -8.94956
4 1 4.71649 1.5718 1.57151 -8.94959
175 1 18.8691 9.43435 9.43458 -8.94762
6 1 7.86183 1.57179 1.57159 -8.94943
7 1 9.43449 1.27486e-15 -0.000283991 -8.94951
8 1 11.0071 1.57177 1.57166 -8.94948
174 1 15.7212 9.43536 9.43465 -8.93996
10 1 14.1524 1.57172 1.57177 -8.94948
173 1 12.556 9.44446 9.43425 -8.90387
12 1 17.2975 1.57171 1.57181 -8.94942
190 1 1.56923 7.86137 11.0072 -8.95212
14 1 20.4415 1.57205 1.57208 -8.9495
172 1 9.35965 9.19776 9.43166 -8.17443
16 1 1.57167 4.71666 1.57165 -8.94979
17 1 3.14396 3.14408 -0.000569257 -8.94948
18 1 4.71556 4.7157 1.57033 -8.94945
171 1 6.27897 9.42136 9.4306 -9.0044
20 1 7.86143 4.71569 1.5707 -8.94913
170 1 3.14228 9.43481 9.43457 -8.95261
22 1 11.0072 4.71553 1.57077 -8.94935
189 1 20.441 4.71647 11.0071 -8.94957
24 1 14.1531 4.71531 1.57069 -8.94961
169 1 -0.000766993 9.43463 9.43453 -8.94938
26 1 17.2986 4.71539 1.57095 -8.9482
168 1 18.8695 6.28886 9.43454 -8.94969
28 1 20.442 4.71655 1.57182 -8.94955
29 1 22.014 6.28937 -0.00025278 -8.94951
30 1 1.57203 7.86193 1.57184 -8.94937
167 1 15.726 6.28805 9.43447 -8.94706
32 1 4.71637 7.86197 1.57157 -8.94972
33 1 6.28886 6.2889 -0.000882603 -8.95071
34 1 7.8616 7.86134 1.57009 -8.95254
35 1 9.43425 6.28844 -0.000845555 -8.94965
36 1 11.0073 7.86048 1.56944 -8.95073
37 1 12.58 6.28829 -0.000981649 -8.94974
38 1 14.1544 7.86001 1.56836 -8.95154
166 1 12.5793 6.28986 9.43251 -8.94207
40 1 17.2989 7.86093 1.57072 -8.94914
165 1 9.42908 6.29093 9.43344 -9.00382
42 1 20.4423 7.86166 1.57173 -8.94941
164 1 6.27713 6.27663 9.43308 -8.942
163 1 3.13893 6.28621 9.43409 -8.94865
162 1 22.0122 6.28876 9.43446 -8.95003
161 1 18.8692 3.1442 9.4345 -8.94955
160 1 15.7251 3.14397 9.43441 -8.94964
48 1 15.7262 9.43391 -0.00132399 -8.94936
188 1 17.2975 4.71628 11.0069 -8.949
50 1 -0.000592003 1.4995e-15 3.14437 -8.94946
51 1 1.57121 1.57181 4.71642 -8.94939
52 1 3.14368 1.42584e-15 3.14372 -8.9495
53 1 4.71568 1.57095 4.71567 -8.95
54 1 6.28912 1.08394e-15 3.14376 -8.9496
55 1 7.86172 1.57105 4.71596 -8.94973
56 1 9.43458 5.61339e-16 3.14386 -8.94954
57 1 11.0074 1.57119 4.71613 -8.94967
58 1 12.5799 9.73456e-16 3.14403 -8.94953
59 1 14.1527 1.57119 4.71659 -8.95075
60 1 15.725 1.20624e-15 3.14426 -8.95007
61 1 17.2971 1.57193 4.71708 -8.94965
62 1 18.8693 1.19568e-15 3.14462 -8.94964
63 1 20.4412 1.57208 4.71696 -8.94947
64 1 22.0132 3.14415 3.14412 -8.94948
65 1 1.57015 4.71585 4.71575 -8.94955
66 1 3.14282 3.14319 3.14291 -8.9482
67 1 4.71207 4.71237 4.71227 -8.94455
68 1 6.28849 3.14294 3.14294 -8.94962
69 1 7.86027 4.71274 4.71368 -8.9491
70 1 9.43441 3.14301 3.1432 -8.94934
71 1 11.0078 4.71318 4.7139 -8.94771
72 1 12.5802 3.14296 3.14336 -8.94914
73 1 14.1555 4.71191 4.71374 -8.9497
74 1 15.7259 3.14263 3.14338 -8.94937
75 1 17.2982 4.71582 4.71666 -8.95047
76 1 18.8696 3.14402 3.14438 -8.94985
77 1 20.4414 4.71656 4.71681 -8.9499
78 1 22.0138 6.28923 3.14415 -8.9499
79 1 1.57135 7.862 4.71648 -8.94996
80 1 3.14308 6.28887 3.14324 -8.95037
81 1 4.71408 7.86121 4.71468 -8.95153
82 1 6.28617 6.28622 3.13954 -8.94983
83 1 7.85554 7.8544 4.7057 -8.95302
84 1 9.43398 6.28638 3.14087 -8.94769
85 1 11.0087 7.85589 4.70701 -8.95086
86 1 12.5815 6.28619 3.14039 -8.94914
87 1 14.1657 7.84975 4.70394 -8.93009
88 1 15.7293 6.28498 3.14027 -8.94456
89 1 17.3016 7.85979 4.7148 -8.95088
90 1 18.871 6.28835 3.14362 -8.94969
91 1 20.4425 7.86162 4.7166 -8.95025
92 1 0.000215749 9.43437 3.14408 -8.94954
93 1 3.14384 9.43446 3.14378 -8.94888
94 1 6.289 9.4349 3.14356 -8.94918
95 1 9.43561 9.43393 3.14274 -8.9519
96 1 12.5833 9.43292 3.1362 -8.95921
97 1 15.7291 9.43288 3.14047 -8.94757
98 1 18.8713 9.43399 3.14342 -8.94927
99 1 22.0131 1.74877e-15 6.28931 -8.94948
100 1 1.571 1.57174 7.86169 -8.94944
101 1 3.14332 1.37741e-15 6.28878 -8.94931
102 1 4.71516 1.57069 7.86117 -8.94932
103 1 6.28874 1.42557e-15 6.28866 -8.95068
104 1 7.86149 1.57038 7.8615 -8.95142
105 1 9.43472 1.67532e-15 6.2889 -8.95029
106 1 11.0072 1.57162 7.86182 -8.94941
107 1 12.5798 1.46213e-15 6.28937 -8.95043
108 1 14.1526 1.57183 7.86188 -8.94923
109 1 15.7248 9.42602e-16 6.28955 -8.94943
110 1 17.2971 1.57202 7.86203 -8.94954
111 1 18.8692 1.086e-15 6.28955 -8.94952
112 1 20.4411 1.57206 7.86196 -8.94952
113 1 22.0129 3.14404 6.28917 -8.94941
114 1 1.56978 4.71562 7.86137 -8.94921
115 1 3.14236 3.14282 6.28824 -8.94908
116 1 4.71189 4.71208 7.85982 -8.94735
117 1 6.2871 3.14035 6.28729 -8.95157
118 1 7.85823 4.70785 7.85976 -8.95918
119 1 9.43455 3.14144 6.28795 -8.95062
120 1 11.0065 4.71476 7.86103 -8.95215
121 1 12.5801 3.14214 6.28879 -8.95264
122 1 14.153 4.71587 7.86202 -8.94805
123 1 15.7251 3.14377 6.28956 -8.9494
124 1 17.2976 4.71626 7.86202 -8.94909
125 1 18.8693 3.14419 6.28951 -8.94942
126 1 20.441 4.71647 7.86191 -8.9496
127 1 -0.00136576 6.28898 6.28911 -8.95034
128 1 1.56935 7.8615 7.86166 -8.95219
129 1 3.13934 6.28671 6.28678 -8.95042
130 1 4.70529 7.85631 7.85801 -8.95675
131 1 6.27567 6.27581 6.27656 -8.93008
132 1 7.82085 7.82352 7.82703 -8.85396
133 1 9.43349 6.2795 6.2832 -8.95088
134 1 11.0231 7.85224 7.83571 -8.90436
135 1 12.5867 6.27822 6.28141 -8.95292
136 1 14.1554 7.86152 7.86405 -8.95318
137 1 15.7271 6.2878 6.2892 -8.95178
138 1 17.2981 7.86162 7.86273 -8.9499
139 1 18.8699 6.289 6.28961 -8.94994
140 1 20.4413 7.86179 7.86213 -8.94998
141 1 22.0138 9.43456 6.28928 -8.94988
142 1 3.14315 9.43512 6.28892 -8.94996
143 1 6.28555 9.43558 6.28682 -8.95231
144 1 9.42105 9.40906 6.27971 -8.90365
145 1 12.6204 9.40131 6.2519 -8.85532
146 1 15.7349 9.43201 6.28527 -8.95816
147 1 18.8717 9.43423 6.28914 -8.9518
148 1 -0.000811131 1.09591e-15 9.43448 -8.9495
149 1 3.14317 1.41125e-15 9.43439 -8.94946
150 1 6.28817 1.63888e-15 9.43416 -8.95043
151 1 9.43464 1.65529e-15 9.43416 -8.94846
152 1 12.5801 1.44076e-15 9.43414 -8.94923
153 1 15.7248 9.63457e-16 9.43442 -8.94958
154 1 18.8691 1.53435e-15 9.4345 -8.94955
155 1 -0.00113196 3.144 9.43447 -8.94949
156 1 3.14215 3.1427 9.43432 -8.94943
157 1 6.28602 3.13956 9.43388 -8.94942
158 1 9.43413 3.14297 9.43397 -8.94615
159 1 12.5803 3.14379 9.43379 -8.94805
177 1 4.71517 1.57067 11.0074 -8.94942
181 1 17.2971 1.57203 11.0069 -8.94952
184 1 4.71188 4.71195 11.0083 -8.94783
11 1 15.7247 1.24211e-15 -0.00022584 -8.94953
25 1 15.7251 3.14381 -0.000448224 -8.94956
41 1 18.8701 6.28894 -0.000479033 -8.94943
44 1 3.14423 9.43445 -0.000194496 -8.94943
176 1 1.571 1.57174 11.0072 -8.94942
343 1 18.8703 9.43424 18.8697 -8.94945
178 1 7.8613 1.56989 11.0068 -8.95165
179 1 11.0074 1.57108 11.0065 -8.94987
180 1 14.1525 1.57188 11.0067 -8.94923
342 1 15.7262 9.4339 18.8707 -8.94937
182 1 20.4411 1.57206 11.007 -8.94952
341 1 12.5804 9.43413 18.8717 -8.95174
340 1 9.43526 9.4336 18.8718 -8.94793
185 1 7.85743 4.70578 11.0073 -8.95771
186 1 11.0077 4.71229 11.0059 -8.9514
187 1 14.1528 4.71612 11.0062 -8.94888
339 1 6.28829 9.43362 18.8717 -8.94865
338 1 3.14418 9.43449 18.8697 -8.94969
337 1 22.014 9.43442 18.8695 -8.94952
336 1 20.4421 7.86179 20.4415 -8.9495
192 1 7.81863 7.82008 11.0372 -8.90368
193 1 11.0271 7.84659 11.0252 -8.93409
194 1 14.1551 7.8617 11.0051 -8.95567
195 1 17.2979 7.86169 11.0064 -8.95005
196 1 20.4412 7.8618 11.0069 -8.95
197 1 22.0131 1.24289e-15 12.5797 -8.94948
198 1 1.57114 1.57179 14.1526 -8.9494
199 1 3.14327 4.70681e-16 12.5801 -8.94936
200 1 4.71547 1.57078 14.1533 -8.95002
201 1 6.28856 1.85073e-15 12.5801 -8.95068
202 1 7.86145 1.57041 14.1532 -8.9499
203 1 9.43472 2.11732e-15 12.5799 -8.95138
204 1 11.0077 1.57053 14.1531 -8.95
205 1 12.58 6.32554e-16 12.5794 -8.95036
206 1 14.1529 1.5711 14.1524 -8.9506
207 1 15.7248 1.09983e-15 12.5793 -8.94949
208 1 17.2972 1.57194 14.1519 -8.94971
209 1 18.8692 1.12769e-15 12.5794 -8.94951
210 1 20.4412 1.57208 14.1521 -8.94949
211 1 22.0128 3.14404 12.5798 -8.94942
212 1 1.57009 4.71582 14.1532 -8.94968
213 1 3.14231 3.14275 12.5805 -8.94909
214 1 4.71171 4.71179 14.1567 -8.9448
215 1 6.28692 3.13968 12.5814 -8.95152
216 1 7.85938 4.71028 14.1561 -8.94765
217 1 9.43457 3.13881 12.5807 -8.9539
218 1 11.009 4.71044 14.156 -8.94708
219 1 12.5804 3.1416 12.5799 -8.95213
220 1 14.1557 4.71182 14.1551 -8.94975
221 1 15.7251 3.14383 12.5792 -8.94958
222 1 17.2982 4.71584 14.1523 -8.95044
223 1 18.8693 3.1442 12.5795 -8.94941
224 1 20.4413 4.71655 14.1522 -8.94989
225 1 22.0125 6.28894 12.5799 -8.95021
226 1 1.57107 7.86183 14.1526 -8.95023
227 1 3.13939 6.28662 12.5817 -8.95035
228 1 4.71295 7.8598 14.1545 -8.95041
229 1 6.27565 6.27404 12.5917 -8.93123
230 1 7.85288 7.85046 14.1654 -9.00166
231 1 9.43394 6.26697 12.5846 -8.96515
232 1 11.0129 7.85 14.1667 -8.98122
233 1 12.5864 6.27755 12.5868 -8.95212
234 1 14.1653 7.85005 14.1647 -8.93295
235 1 15.7269 6.28778 12.5798 -8.95156
236 1 17.3013 7.85992 14.1541 -8.95104
237 1 18.8698 6.28902 12.5794 -8.94993
238 1 20.4424 7.86165 14.1524 -8.95034
239 1 22.0137 9.43461 12.5797 -8.95006
240 1 3.14284 9.43494 12.58 -8.9515
241 1 6.28198 9.42999 12.5805 -8.98823
242 1 9.441 9.35297 12.5868 -9.16082
243 1 12.6155 9.40236 12.617 -8.91057
244 1 15.7336 9.43218 12.5837 -8.9572
245 1 18.8714 9.43428 12.5799 -8.95157
246 1 -0.000641581 1.47954e-15 15.7247 -8.94949
247 1 1.57144 1.57192 17.2975 -8.94912
248 1 3.1435 6.09201e-16 15.7254 -8.94951
249 1 4.71624 1.57162 17.2979 -8.94954
250 1 6.28884 1.79279e-15 15.7256 -8.94963
251 1 7.86174 1.5716 17.2978 -8.9494
252 1 9.4346 1.22473e-15 15.7254 -8.94955
253 1 11.0073 1.57159 17.2978 -8.94945
254 1 12.5802 1.29006e-15 15.7253 -8.94962
255 1 14.1527 1.57155 17.2976 -8.94938
256 1 15.7251 1.81749e-15 15.7248 -8.95003
257 1 17.2975 1.57171 17.2973 -8.94946
258 1 18.8693 1.58509e-15 15.7244 -8.9497
259 1 20.4415 1.57205 17.297 -8.94955
260 1 -0.000798217 3.14414 15.7249 -8.94955
261 1 1.57151 4.7166 17.2976 -8.94976
262 1 3.14259 3.14301 15.7262 -8.94822
263 1 4.7151 4.71513 17.2994 -8.94928
264 1 6.28802 3.14218 15.7266 -8.94949
265 1 7.86129 4.71515 17.2991 -8.94899
266 1 9.43441 3.1422 15.7262 -8.94921
267 1 11.0074 4.71499 17.299 -8.9496
268 1 12.5808 3.14217 15.7262 -8.94893
269 1 14.1537 4.71484 17.299 -8.94898
270 1 15.7261 3.14261 15.7257 -8.94944
271 1 17.2987 4.71538 17.2982 -8.94835
272 1 18.8696 3.14402 15.7247 -8.94987
273 1 20.442 4.71654 17.2973 -8.94958
274 1 22.0136 6.28918 15.725 -8.94993
275 1 1.57188 7.86193 17.2973 -8.94982
276 1 3.14265 6.28853 15.7261 -8.94998
277 1 4.71536 7.86085 17.2991 -8.94819
278 1 6.28521 6.28441 15.7306 -8.94982
279 1 7.86168 7.86088 17.3006 -8.95304
280 1 9.43383 6.28461 15.7288 -8.94792
281 1 11.0079 7.85947 17.3017 -8.95129
282 1 12.583 6.28447 15.7303 -8.94683
283 1 14.1548 7.85973 17.3013 -8.9511
284 1 15.7294 6.28502 15.7288 -8.94518
285 1 17.2989 7.86094 17.2984 -8.94923
286 1 18.871 6.28839 15.7254 -8.9498
287 1 20.4423 7.86169 17.2974 -8.94951
288 1 0.000228787 9.43443 15.7249 -8.94959
289 1 3.14396 9.43466 15.7251 -8.95063
290 1 6.28636 9.4305 15.7289 -8.97974
291 1 9.43739 9.43117 15.7283 -9.00366
292 1 12.5842 9.4323 15.7344 -8.95828
293 1 15.729 9.43293 15.7287 -8.94798
294 1 18.8712 9.43404 15.7256 -8.94934
295 1 22.0135 1.54726e-15 18.8694 -8.9492
296 1 1.57186 1.57205 20.4416 -8.9493
297 1 3.14413 7.2108e-16 18.8697 -8.94951
298 1 4.71674 1.57201 20.4417 -8.94954
299 1 6.28926 1.81259e-15 18.8697 -8.94948
300 1 7.86187 1.57196 20.4417 -8.9495
301 1 9.4345 1.24873e-15 18.8697 -8.9495
302 1 11.0071 1.57193 20.4417 -8.9495
303 1 12.5797 1.0396e-15 18.8697 -8.9495
304 1 14.1523 1.57192 20.4417 -8.9495
305 1 15.7249 1.18294e-15 18.8696 -8.94944
306 1 17.2973 1.57196 20.4416 -8.94947
307 1 18.8695 1.61806e-15 18.8694 -8.94934
308 1 20.4417 1.57213 20.4415 -8.94919
309 1 22.0137 3.1444 18.8695 -8.94953
310 1 1.57197 4.71686 20.4417 -8.94957
311 1 3.1438 3.14395 18.87 -8.94939
312 1 4.71638 4.71644 20.4418 -8.95017
313 1 6.28903 3.14387 18.87 -8.94948
314 1 7.86163 4.71622 20.4418 -8.94952
315 1 9.43442 3.14373 18.87 -8.94946
316 1 11.0071 4.71604 20.4418 -8.94958
317 1 12.5799 3.14371 18.87 -8.94951
318 1 14.1526 4.71601 20.4418 -8.94956
319 1 15.7252 3.14373 18.8699 -8.9494
320 1 17.2978 4.71615 20.4416 -8.94948
321 1 18.8699 3.14405 18.8695 -8.94915
322 1 20.4419 4.71678 20.4415 -8.94951
323 1 1.02471e-05 6.28936 18.8695 -8.94959
324 1 1.5721 7.86195 20.4416 -8.94958
325 1 3.14386 6.2891 18.8701 -8.9493
326 1 4.7163 7.86164 20.4423 -8.94939
327 1 6.28875 6.28863 18.8709 -8.95104
328 1 7.86181 7.86165 20.4423 -8.95027
329 1 9.43426 6.28809 18.8709 -8.94961
330 1 11.0073 7.86107 20.4424 -8.95025
331 1 12.5803 6.28801 18.8712 -8.94976
332 1 14.153 7.8612 20.4418 -8.95067
333 1 15.726 6.28812 18.8706 -8.94991
334 1 17.2981 7.86137 20.4416 -8.94936
335 1 18.8702 6.28894 18.8697 -8.94947
5 1 6.28933 8.63771e-16 22.0136 -8.94949
9 1 12.5797 3.15991e-16 22.0136 -8.94951
47 1 12.5802 9.43421 22.0125 -8.95147
15 1 -0.000154475 3.14441 22.0136 -8.94949
19 1 6.28913 3.14401 22.0134 -8.94947
21 1 9.43441 3.1439 22.0135 -8.94947
46 1 9.43473 9.43434 22.0141 -8.94954
27 1 18.8698 3.14406 22.0135 -8.94911
31 1 3.14412 6.28932 22.0137 -8.94966
39 1 15.7259 6.28819 22.0127 -8.94997
45 1 6.28903 9.43441 22.0142 -8.94962
43 1 0.000156648 9.43441 22.0136 -8.94951
1 1 -0.000330212 8.26891e-16 22.0137 -8.94918
13 1 18.8695 5.10104e-16 22.0136 -8.94928
23 1 12.5798 3.14384 22.0135 -8.94945
49 1 18.8703 9.43423 22.0134 -8.94944
183 1 1.56979 4.71561 11.0074 -8.94929
344 1 1.57211 11.007 1.57183 -8.94952
345 1 4.71644 11.007 1.57171 -8.9495
346 1 7.86206 11.007 1.57249 -8.94906
347 1 11.0077 11.007 1.57171 -8.94625
348 1 14.1551 11.007 1.56822 -8.94955
349 1 17.299 11.007 1.57066 -8.94941
350 1 20.4424 11.007 1.57169 -8.94948
688 3 10.214 11.007 9.43262 2.30636
352 1 1.57203 14.152 1.57184 -8.94937
511 1 18.8692 18.8697 9.4345 -8.94955
354 1 4.71637 14.1519 1.57157 -8.94972
510 1 15.7251 18.8699 9.43441 -8.94964
356 1 7.8616 14.1526 1.57009 -8.95254
509 1 12.5803 18.8701 9.43379 -8.94805
358 1 11.0073 14.1534 1.56944 -8.95073
508 1 9.43413 18.8709 9.43397 -8.94615
360 1 14.1544 14.1539 1.56836 -8.95154
361 1 15.7262 12.58 -0.00132399 -8.94936
362 1 17.2989 14.153 1.57072 -8.94914
538 1 17.2971 20.4419 11.0069 -8.94952
364 1 20.4423 14.1522 1.57173 -8.94941
365 1 22.014 15.7245 -0.00025278 -8.94951
366 1 1.57167 17.2972 1.57165 -8.94979
507 1 6.28602 18.8743 9.43388 -8.94942
368 1 4.71556 17.2982 1.57033 -8.94945
369 1 6.28886 15.725 -0.000882603 -8.95071
370 1 7.86143 17.2982 1.5707 -8.94913
371 1 9.43425 15.7255 -0.000845555 -8.94965
372 1 11.0072 17.2984 1.57077 -8.94935
373 1 12.58 15.7256 -0.000981649 -8.94974
374 1 14.1531 17.2986 1.57069 -8.94961
506 1 3.14215 18.8712 9.43432 -8.94943
376 1 17.2986 17.2985 1.57095 -8.9482
505 1 -0.00113196 18.8699 9.43447 -8.94949
378 1 20.442 17.2973 1.57182 -8.94955
504 1 18.8695 15.725 9.43454 -8.94969
380 1 1.57155 20.4419 1.57169 -8.94912
381 1 3.14396 18.8698 -0.000569257 -8.94948
382 1 4.71649 20.4421 1.57151 -8.94959
503 1 15.726 15.7259 9.43447 -8.94706
384 1 7.86183 20.4421 1.57159 -8.94943
502 1 12.5793 15.724 9.43251 -8.94207
386 1 11.0071 20.4421 1.57166 -8.94948
534 1 4.71517 20.4432 11.0074 -8.94942
388 1 14.1524 20.4422 1.57177 -8.94948
501 1 9.42908 15.723 9.43344 -9.00382
390 1 17.2975 20.4422 1.57181 -8.94942
500 1 6.27713 15.7373 9.43308 -8.942
392 1 20.4415 20.4418 1.57208 -8.9495
393 1 1.57174 11.007 4.71629 -8.94954
394 1 4.71555 11.007 4.71515 -8.94591
395 1 7.86453 11.007 4.71758 -8.94836
396 1 11.0127 11.007 4.7203 -9.00269
397 1 14.1634 11.007 4.70635 -8.94197
398 1 17.3019 11.007 4.71434 -8.94904
399 1 20.4428 11.007 4.7164 -8.94998
400 1 0.000215749 12.5795 3.14408 -8.94954
401 1 1.57135 14.1519 4.71648 -8.94996
402 1 3.14384 12.5794 3.14378 -8.94888
403 1 4.71408 14.1527 4.71468 -8.95153
404 1 6.289 12.579 3.14356 -8.94918
405 1 7.85554 14.1595 4.7057 -8.95302
406 1 9.43561 12.58 3.14274 -8.9519
407 1 11.0087 14.158 4.70701 -8.95086
408 1 12.5833 12.581 3.1362 -8.95921
409 1 14.1657 14.1641 4.70394 -8.93009
410 1 15.7291 12.581 3.14047 -8.94757
411 1 17.3016 14.1541 4.7148 -8.95088
412 1 18.8713 12.5799 3.14342 -8.94927
413 1 20.4425 14.1523 4.7166 -8.95025
414 1 22.0138 15.7247 3.14415 -8.9499
415 1 1.57015 17.2981 4.71575 -8.94955
416 1 3.14308 15.725 3.14324 -8.95037
417 1 4.71207 17.3015 4.71227 -8.94455
418 1 6.28617 15.7277 3.13954 -8.94983
419 1 7.86027 17.3012 4.71368 -8.9491
420 1 9.43398 15.7275 3.14087 -8.94769
421 1 11.0078 17.3007 4.7139 -8.94771
422 1 12.5815 15.7277 3.14039 -8.94914
423 1 14.1555 17.302 4.71374 -8.9497
424 1 15.7293 15.7289 3.14027 -8.94456
425 1 17.2982 17.2981 4.71666 -8.95047
426 1 18.871 15.7256 3.14362 -8.94969
427 1 20.4414 17.2973 4.71681 -8.9499
428 1 22.0132 18.8698 3.14412 -8.94948
429 1 1.57121 20.4421 4.71642 -8.94939
430 1 3.14282 18.8707 3.14291 -8.9482
431 1 4.71568 20.443 4.71567 -8.95
432 1 6.28849 18.871 3.14294 -8.94962
433 1 7.86172 20.4429 4.71596 -8.94973
434 1 9.43441 18.8709 3.1432 -8.94934
435 1 11.0074 20.4427 4.71613 -8.94967
436 1 12.5802 18.8709 3.14336 -8.94914
437 1 14.1527 20.4427 4.71659 -8.95075
438 1 15.7259 18.8713 3.14338 -8.94937
439 1 17.2971 20.442 4.71708 -8.94965
440 1 18.8696 18.8699 3.14438 -8.94985
441 1 20.4412 20.4418 4.71696 -8.94947
442 1 1.57205 11.007 7.86172 -8.94733
443 1 4.72033 11.007 7.8624 -8.94
444 1 7.8849 11.007 7.86101 -8.91242
445 1 11.0839 11.007 7.63111 -8.12408
446 1 14.1593 11.007 7.85401 -8.97259
447 1 17.2988 11.007 7.8623 -8.95104
448 1 20.442 11.007 7.86215 -8.94933
449 1 22.0138 12.5793 6.28928 -8.94988
450 1 1.56935 14.1524 7.86166 -8.95219
451 1 3.14315 12.5788 6.28892 -8.94996
452 1 4.70529 14.1576 7.85801 -8.95675
453 1 6.28555 12.5783 6.28682 -8.95231
454 1 7.82085 14.1904 7.82703 -8.85396
455 1 9.42105 12.6048 6.27971 -8.90365
456 1 11.0231 14.1617 7.83571 -8.90436
457 1 12.6204 12.6126 6.2519 -8.85532
458 1 14.1554 14.1524 7.86405 -8.95318
459 1 15.7349 12.5819 6.28527 -8.95816
460 1 17.2981 14.1523 7.86273 -8.9499
461 1 18.8717 12.5797 6.28914 -8.9518
462 1 20.4413 14.1521 7.86213 -8.94998
463 1 -0.00136576 15.7249 6.28911 -8.95034
464 1 1.56978 17.2983 7.86137 -8.94921
465 1 3.13934 15.7272 6.28678 -8.95042
466 1 4.71189 17.3018 7.85982 -8.94735
467 1 6.27567 15.7381 6.27656 -8.93008
468 1 7.85823 17.3061 7.85976 -8.95918
469 1 9.43349 15.7344 6.2832 -8.95088
470 1 11.0065 17.2991 7.86103 -8.95215
471 1 12.5867 15.7357 6.28141 -8.95292
472 1 14.153 17.298 7.86202 -8.94805
473 1 15.7271 15.7261 6.2892 -8.95178
474 1 17.2976 17.2976 7.86202 -8.94909
475 1 18.8699 15.7249 6.28961 -8.94994
476 1 20.441 17.2974 7.86191 -8.9496
477 1 22.0129 18.8699 6.28917 -8.94941
478 1 1.571 20.4422 7.86169 -8.94944
479 1 3.14236 18.8711 6.28824 -8.94908
480 1 4.71516 20.4432 7.86117 -8.94932
481 1 6.2871 18.8736 6.28729 -8.95157
482 1 7.86149 20.4435 7.8615 -8.95142
483 1 9.43455 18.8725 6.28795 -8.95062
484 1 11.0072 20.4423 7.86182 -8.94941
485 1 12.5801 18.8718 6.28879 -8.95264
486 1 14.1526 20.4421 7.86188 -8.94923
487 1 15.7251 18.8701 6.28956 -8.9494
488 1 17.2971 20.4419 7.86203 -8.94954
489 1 18.8693 18.8697 6.28951 -8.94942
490 1 20.4411 20.4418 7.86196 -8.94952
491 1 -0.000766993 12.5793 9.43453 -8.94938
492 1 3.14228 12.5791 9.43457 -8.95261
493 1 6.27897 12.5925 9.4306 -9.0044
494 1 9.35965 12.8161 9.43166 -8.17443
495 1 12.556 12.5694 9.43425 -8.90387
496 1 15.7212 12.5785 9.43465 -8.93996
497 1 18.8691 12.5795 9.43458 -8.94762
498 1 22.0122 15.7251 9.43446 -8.95003
499 1 3.13893 15.7277 9.43409 -8.94865
512 1 1.57231 11.007 11.0072 -8.94656
514 1 7.86134 11.007 10.9491 -9.17452
519 1 1.56923 14.1525 11.0072 -8.95212
520 1 4.70507 14.158 11.0088 -8.95693
532 1 20.441 17.2974 11.0071 -8.94957
527 1 4.71188 17.302 11.0083 -8.94783
531 1 17.2975 17.2976 11.0069 -8.949
518 1 20.4418 11.007 11.0069 -8.94911
353 1 3.14423 12.5794 -0.000194496 -8.94943
389 1 15.7251 18.8701 -0.000448224 -8.94956
377 1 18.8701 15.725 -0.000479033 -8.94943
687 2 8.68634 11.007 12.5709 0.752784
513 1 4.72235 11.007 11.0076 -8.99185
686 1 20.4417 20.4418 20.4415 -8.94919
515 1 11.0796 11.007 11.2365 -8.15414
516 1 14.1573 11.007 11.0154 -8.97278
517 1 17.2983 11.007 11.0069 -8.95081
391 1 18.8698 18.8698 22.0135 -8.94911
685 1 18.8699 18.8698 18.8695 -8.94915
684 1 17.2973 20.4419 20.4416 -8.94947
521 1 7.81863 14.1938 11.0372 -8.90368
522 1 11.0271 14.1673 11.0252 -8.93409
523 1 14.1551 14.1522 11.0051 -8.95567
524 1 17.2979 14.1522 11.0064 -8.95005
525 1 20.4412 14.1521 11.0069 -8.95
683 1 15.7252 18.8702 18.8699 -8.9494
682 1 14.1523 20.442 20.4417 -8.9495
528 1 7.85743 17.3081 11.0073 -8.95771
529 1 11.0077 17.3016 11.0059 -8.9514
530 1 14.1528 17.2978 11.0062 -8.94888
681 1 12.5799 18.8702 18.87 -8.94951
680 1 11.0071 20.442 20.4417 -8.9495
533 1 1.571 20.4422 11.0072 -8.94942
679 1 9.43442 18.8702 18.87 -8.94946
535 1 7.8613 20.444 11.0068 -8.95165
536 1 11.0074 20.4428 11.0065 -8.94987
537 1 14.1525 20.442 11.0067 -8.94923
678 1 7.86187 20.4419 20.4417 -8.9495
539 1 20.4411 20.4418 11.007 -8.94952
540 1 1.57217 11.007 14.1527 -8.94836
541 1 4.7188 11.007 14.152 -8.99561
542 1 7.84476 11.007 14.1965 -9.20639
543 1 11.0144 11.007 14.1542 -9.03523
544 1 14.1625 11.007 14.1626 -8.94385
545 1 17.3014 11.007 14.1546 -8.94914
546 1 20.4428 11.007 14.1526 -8.94979
547 1 22.0137 12.5793 12.5797 -8.95006
548 1 1.57107 14.1521 14.1526 -8.95023
549 1 3.14284 12.579 12.58 -8.9515
550 1 4.71295 14.1541 14.1545 -8.95041
551 1 6.28198 12.5839 12.5805 -8.98823
552 1 7.85288 14.1634 14.1654 -9.00166
553 1 9.441 12.6609 12.5868 -9.16082
554 1 11.0129 14.1639 14.1667 -8.98122
555 1 12.6155 12.6115 12.617 -8.91057
556 1 14.1653 14.1639 14.1647 -8.93295
557 1 15.7336 12.5817 12.5837 -8.9572
558 1 17.3013 14.154 14.1541 -8.95104
559 1 18.8714 12.5796 12.5799 -8.95157
560 1 20.4424 14.1523 14.1524 -8.95034
561 1 22.0125 15.725 12.5799 -8.95021
562 1 1.57009 17.2981 14.1532 -8.94968
563 1 3.13939 15.7273 12.5817 -8.95035
564 1 4.71171 17.3021 14.1567 -8.9448
565 1 6.27565 15.7399 12.5917 -8.93123
566 1 7.85938 17.3036 14.1561 -8.94765
567 1 9.43394 15.7469 12.5846 -8.96515
568 1 11.009 17.3035 14.156 -8.94708
569 1 12.5864 15.7363 12.5868 -8.95212
570 1 14.1557 17.3021 14.1551 -8.94975
571 1 15.7269 15.7261 12.5798 -8.95156
572 1 17.2982 17.2981 14.1523 -8.95044
573 1 18.8698 15.7249 12.5794 -8.94993
574 1 20.4413 17.2974 14.1522 -8.94989
575 1 22.0128 18.8699 12.5798 -8.94942
576 1 1.57114 20.4421 14.1526 -8.9494
577 1 3.14231 18.8712 12.5805 -8.94909
578 1 4.71547 20.4431 14.1533 -8.95002
579 1 6.28692 18.8742 12.5814 -8.95152
580 1 7.86145 20.4435 14.1532 -8.9499
581 1 9.43457 18.8751 12.5807 -8.9539
582 1 11.0077 20.4434 14.1531 -8.95
583 1 12.5804 18.8723 12.5799 -8.95213
584 1 14.1529 20.4428 14.1524 -8.9506
585 1 15.7251 18.8701 12.5792 -8.94958
586 1 17.2972 20.442 14.1519 -8.94971
587 1 18.8693 18.8697 12.5795 -8.94941
588 1 20.4412 20.4418 14.1521 -8.94949
589 1 1.57217 11.007 17.2974 -8.94936
590 1 4.71689 11.007 17.2979 -8.94959
591 1 7.86181 11.007 17.3071 -8.96259
592 1 11.0074 11.007 17.2994 -8.94789
593 1 14.1552 11.007 17.3015 -8.94898
594 1 17.299 11.007 17.2985 -8.94941
595 1 20.4424 11.007 17.2974 -8.9495
596 1 0.000228787 12.5795 15.7249 -8.94959
597 1 1.57188 14.152 17.2973 -8.94982
598 1 3.14396 12.5792 15.7251 -8.95063
599 1 4.71536 14.1531 17.2991 -8.94819
600 1 6.28636 12.5834 15.7289 -8.97974
601 1 7.86168 14.153 17.3006 -8.95304
602 1 9.43739 12.5827 15.7283 -9.00366
603 1 11.0079 14.1544 17.3017 -8.95129
604 1 12.5842 12.5816 15.7344 -8.95828
605 1 14.1548 14.1542 17.3013 -8.9511
606 1 15.729 12.581 15.7287 -8.94798
607 1 17.2989 14.153 17.2984 -8.94923
608 1 18.8712 12.5799 15.7256 -8.94934
609 1 20.4423 14.1522 17.2974 -8.94951
610 1 22.0136 15.7247 15.725 -8.94993
611 1 1.57151 17.2973 17.2976 -8.94976
612 1 3.14265 15.7254 15.7261 -8.94998
613 1 4.7151 17.2988 17.2994 -8.94928
614 1 6.28521 15.7295 15.7306 -8.94982
615 1 7.86129 17.2987 17.2991 -8.94899
616 1 9.43383 15.7293 15.7288 -8.94792
617 1 11.0074 17.2989 17.299 -8.9496
618 1 12.583 15.7294 15.7303 -8.94683
619 1 14.1537 17.2991 17.299 -8.94898
620 1 15.7294 15.7289 15.7288 -8.94518
621 1 17.2987 17.2985 17.2982 -8.94835
622 1 18.871 15.7255 15.7254 -8.9498
623 1 20.442 17.2974 17.2973 -8.94958
624 1 -0.000798217 18.8698 15.7249 -8.94955
625 1 1.57144 20.442 17.2975 -8.94912
626 1 3.14259 18.8709 15.7262 -8.94822
627 1 4.71624 20.4423 17.2979 -8.94954
628 1 6.28802 18.8717 15.7266 -8.94949
629 1 7.86174 20.4423 17.2978 -8.9494
630 1 9.43441 18.8717 15.7262 -8.94921
631 1 11.0073 20.4423 17.2978 -8.94945
632 1 12.5808 18.8717 15.7262 -8.94893
633 1 14.1527 20.4423 17.2976 -8.94938
634 1 15.7261 18.8713 15.7257 -8.94944
635 1 17.2975 20.4422 17.2973 -8.94946
636 1 18.8696 18.8699 15.7247 -8.94987
637 1 20.4415 20.4418 17.297 -8.94955
638 1 1.57214 11.007 20.4416 -8.94954
639 1 4.71649 11.007 20.4421 -8.94921
640 1 7.86178 11.007 20.4438 -8.95193
641 1 11.0072 11.007 20.4424 -8.94849
642 1 14.1533 11.007 20.4419 -8.9503
643 1 17.2982 11.007 20.4416 -8.94944
644 1 20.4421 11.007 20.4415 -8.94951
645 1 22.014 12.5795 18.8695 -8.94952
646 1 1.5721 14.152 20.4416 -8.94958
647 1 3.14418 12.5794 18.8697 -8.94969
648 1 4.7163 14.1523 20.4423 -8.94939
649 1 6.28829 12.5803 18.8717 -8.94865
650 1 7.86181 14.1523 20.4423 -8.95027
651 1 9.43526 12.5803 18.8718 -8.94793
652 1 11.0073 14.1528 20.4424 -8.95025
653 1 12.5804 12.5798 18.8717 -8.95174
654 1 14.153 14.1527 20.4418 -8.95067
655 1 15.7262 12.58 18.8707 -8.94937
656 1 17.2981 14.1525 20.4416 -8.94936
657 1 18.8703 12.5797 18.8697 -8.94945
658 1 20.4421 14.1521 20.4415 -8.9495
659 1 1.02471e-05 15.7245 18.8695 -8.94959
660 1 1.57197 17.297 20.4417 -8.94957
661 1 3.14386 15.7248 18.8701 -8.9493
662 1 4.71638 17.2975 20.4418 -8.95017
663 1 6.28875 15.7253 18.8709 -8.95104
664 1 7.86163 17.2977 20.4418 -8.94952
665 1 9.43426 15.7258 18.8709 -8.94961
666 1 11.0071 17.2979 20.4418 -8.94958
667 1 12.5803 15.7259 18.8712 -8.94976
668 1 14.1526 17.2979 20.4418 -8.94956
669 1 15.726 15.7258 18.8706 -8.94991
670 1 17.2978 17.2977 20.4416 -8.94948
671 1 18.8702 15.725 18.8697 -8.94947
672 1 20.4419 17.2971 20.4415 -8.94951
673 1 22.0137 18.8695 18.8695 -8.94953
674 1 1.57186 20.4419 20.4416 -8.9493
675 1 3.1438 18.8699 18.87 -8.94939
676 1 4.71674 20.4419 20.4417 -8.94954
677 1 6.28903 18.87 18.87 -8.94948
351 1 0.000156648 12.5795 22.0136 -8.94951
385 1 9.43441 18.87 22.0135 -8.94947
355 1 6.28903 12.5795 22.0142 -8.94962
357 1 9.43473 12.5796 22.0141 -8.94954
359 1 12.5802 12.5797 22.0125 -8.95147
367 1 3.14412 15.7246 22.0137 -8.94966
375 1 15.7259 15.7257 22.0127 -8.94997
383 1 6.28913 18.8699 22.0134 -8.94947
379 1 -0.000154475 18.8695 22.0136 -8.94949
363 1 18.8703 12.5797 22.0134 -8.94944
387 1 12.5798 18.8701 22.0135 -8.94945
526 1 1.56979 17.2983 11.0074 -8.94929
