ITEM: TIMESTEP
34
ITEM: NUMBER OF ATOMS
688
ITEM: BOX BOUNDS pp pp pp
0.0000000000000000e+00 2.2013900999999997e+01
0.0000000000000000e+00 2.2013900999999997e+01
0.0000000000000000e+00 2.2013900999999997e+01
ITEM: ATOMS id type x y z c_pot
191 1 4.7172 7.86206 11.0069 -8.94937
2 1 1.57242 1.57242 1.57242 -8.94963
3 1 3.14484 9.25654e-17 2.09314e-11 -8.94963
4 1 4.71726 1.57242 1.57242 -8.94963
175 1 18.8691 9.43453 9.43453 -8.94964
6 1 7.86211 1.57242 1.57242 -8.94963
7 1 9.43453 2.60557e-16 1.01471e-10 -8.94963
8 1 11.007 1.57242 1.57242 -8.94963
174 1 15.7243 9.43452 9.43453 -8.95018
10 1 14.1518 1.57242 1.57242 -8.94963
173 1 12.5822 9.43242 9.43449 -8.91231
12 1 17.2966 1.57242 1.57242 -8.94963
190 1 1.57242 7.86211 11.007 -8.94964
14 1 20.4415 1.57242 1.57242 -8.94963
172 1 9.40055 9.36536 9.43461 -7.97885
16 1 1.57242 4.71726 1.57242 -8.94963
17 1 3.14484 3.14484 1.0571e-10 -8.94963
18 1 4.71726 4.71726 1.57242 -8.94963
171 1 6.28921 9.43443 9.43493 -8.99913
20 1 7.86211 4.71726 1.57242 -8.94963
170 1 3.14485 9.43454 9.43454 -8.94991
22 1 11.007 4.71726 1.57242 -8.94963
189 1 20.4415 4.71726 11.007 -8.94963
24 1 14.1518 4.71726 1.57242 -8.94963
169 1 1.77144e-07 9.43453 9.43453 -8.94963
26 1 17.2966 4.71726 1.57242 -8.94963
168 1 18.8691 6.28969 9.43453 -8.94963
28 1 20.4415 4.71726 1.57242 -8.94963
29 1 22.0139 6.28969 1.80476e-10 -8.94963
30 1 1.57242 7.86211 1.57242 -8.94963
167 1 15.7242 6.28969 9.43453 -8.9497
32 1 4.71726 7.86211 1.57242 -8.94963
33 1 6.28969 6.28969 -8.11703e-09 -8.94963
34 1 7.86211 7.86211 1.57242 -8.94963
35 1 9.43453 6.28969 1.90285e-08 -8.94963
36 1 11.007 7.86211 1.57242 -8.94964
37 1 12.5794 6.28969 2.46464e-08 -8.94963
38 1 14.1518 7.86211 1.57242 -8.94963
166 1 12.5793 6.28968 9.43454 -8.95074
40 1 17.2966 7.86211 1.57242 -8.94963
165 1 9.43451 6.28828 9.43453 -8.96379
42 1 20.4415 7.86211 1.57242 -8.94963
164 1 6.28973 6.28973 9.43453 -8.95114
163 1 3.14484 6.28969 9.43453 -8.9496
162 1 22.0139 6.28969 9.43453 -8.94963
161 1 18.8691 3.14484 9.43453 -8.94963
160 1 15.7242 3.14484 9.43453 -8.94963
48 1 15.7242 9.43453 2.72853e-08 -8.94963
188 1 17.2966 4.71726 11.007 -8.94963
50 1 9.2386e-12 2.49831e-16 3.14484 -8.94963
51 1 1.57242 1.57242 4.71726 -8.94963
52 1 3.14484 2.09453e-16 3.14484 -8.94963
53 1 4.71726 1.57242 4.71726 -8.94963
54 1 6.28969 3.24843e-16 3.14484 -8.94963
55 1 7.86211 1.57242 4.71726 -8.94963
56 1 9.43453 1.50344e-16 3.14484 -8.94963
57 1 11.007 1.57242 4.71726 -8.94963
58 1 12.5794 1.62062e-16 3.14484 -8.94963
59 1 14.1518 1.57242 4.71726 -8.94963
60 1 15.7242 2.82564e-16 3.14484 -8.94963
61 1 17.2966 1.57242 4.71726 -8.94963
62 1 18.8691 3.25618e-17 3.14484 -8.94963
63 1 20.4415 1.57242 4.71726 -8.94963
64 1 22.0139 3.14484 3.14484 -8.94963
65 1 1.57242 4.71726 4.71726 -8.94963
66 1 3.14484 3.14484 3.14484 -8.94963
67 1 4.71726 4.71726 4.71726 -8.94962
68 1 6.28969 3.14484 3.14484 -8.94963
69 1 7.86211 4.71727 4.71727 -8.94968
70 1 9.43453 3.14484 3.14484 -8.94963
71 1 11.007 4.71727 4.71726 -8.94964
72 1 12.5794 3.14484 3.14484 -8.94963
73 1 14.1518 4.71726 4.71726 -8.94963
74 1 15.7242 3.14484 3.14484 -8.94963
75 1 17.2966 4.71726 4.71726 -8.94963
76 1 18.8691 3.14484 3.14484 -8.94963
77 1 20.4415 4.71726 4.71726 -8.94963
78 1 22.0139 6.28969 3.14484 -8.94963
79 1 1.57242 7.86211 4.71726 -8.94963
80 1 3.14484 6.28969 3.14484 -8.94963
81 1 4.71726 7.86211 4.71726 -8.94965
82 1 6.28969 6.28969 3.14484 -8.94963
83 1 7.8621 7.8621 4.71724 -8.94978
84 1 9.43453 6.28969 3.14484 -8.94964
85 1 11.0069 7.86214 4.71729 -8.95067
86 1 12.5794 6.28969 3.14484 -8.94968
87 1 14.1518 7.86208 4.71724 -8.94913
88 1 15.7242 6.28969 3.14484 -8.94962
89 1 17.2966 7.86211 4.71726 -8.94963
90 1 18.8691 6.28969 3.14484 -8.94963
91 1 20.4415 7.86211 4.71726 -8.94963
92 1 2.23011e-09 9.43453 3.14484 -8.94963
93 1 3.14484 9.43453 3.14484 -8.94963
94 1 6.28969 9.43453 3.14484 -8.94965
95 1 9.43452 9.43452 3.14483 -8.94947
96 1 12.5794 9.43452 3.14481 -8.94968
97 1 15.7242 9.43453 3.14484 -8.94968
98 1 18.8691 9.43453 3.14484 -8.94963
99 1 22.0139 1.98752e-16 6.28969 -8.94963
100 1 1.57242 1.57242 7.86211 -8.94963
101 1 3.14484 3.10266e-17 6.28969 -8.94963
102 1 4.71726 1.57242 7.86211 -8.94963
103 1 6.28969 2.68185e-16 6.28969 -8.94963
104 1 7.86211 1.57242 7.86211 -8.94964
105 1 9.43453 3.91203e-16 6.28969 -8.94963
106 1 11.007 1.57242 7.86211 -8.94963
107 1 12.5794 2.23831e-16 6.28969 -8.94963
108 1 14.1518 1.57242 7.86211 -8.94963
109 1 15.7242 1.93956e-16 6.28969 -8.94963
110 1 17.2966 1.57242 7.86211 -8.94963
111 1 18.8691 9.95055e-17 6.28969 -8.94963
112 1 20.4415 1.57242 7.86211 -8.94963
113 1 22.0139 3.14484 6.28969 -8.94963
114 1 1.57242 4.71726 7.86211 -8.94963
115 1 3.14484 3.14484 6.28969 -8.94963
116 1 4.71727 4.71727 7.86211 -8.94968
117 1 6.28969 3.14484 6.28969 -8.94963
118 1 7.86209 4.71723 7.86209 -8.94968
119 1 9.43453 3.14484 6.28969 -8.94964
120 1 11.007 4.71725 7.86209 -8.94947
121 1 12.5794 3.14484 6.28969 -8.94963
122 1 14.1518 4.71726 7.86211 -8.94965
123 1 15.7242 3.14484 6.28969 -8.94963
124 1 17.2966 4.71726 7.86211 -8.94963
125 1 18.8691 3.14484 6.28969 -8.94963
126 1 20.4415 4.71726 7.86211 -8.94963
127 1 1.88164e-09 6.28969 6.28969 -8.94963
128 1 1.57242 7.86211 7.86211 -8.94964
129 1 3.14484 6.28969 6.28969 -8.94964
130 1 4.71725 7.86211 7.86211 -8.94994
131 1 6.28966 6.28966 6.28966 -8.94913
132 1 7.86099 7.86104 7.86098 -8.92782
133 1 9.43453 6.28971 6.28972 -8.95067
134 1 11.0074 7.86183 7.86167 -8.94285
135 1 12.5794 6.28966 6.28968 -8.94978
136 1 14.1518 7.86208 7.86207 -8.94927
137 1 15.7242 6.28969 6.28969 -8.94965
138 1 17.2966 7.86211 7.86211 -8.94964
139 1 18.8691 6.28969 6.28969 -8.94963
140 1 20.4415 7.86211 7.86211 -8.94963
141 1 22.0139 9.43453 6.28969 -8.94963
142 1 3.14484 9.43453 6.28969 -8.94963
143 1 6.28965 9.43449 6.28966 -8.94913
144 1 9.43412 9.43409 6.28941 -8.94276
145 1 12.5805 9.4334 6.28862 -8.92754
146 1 15.7242 9.43452 6.28968 -8.94984
147 1 18.8691 9.43453 6.28969 -8.94964
148 1 2.14198e-10 1.61742e-16 9.43453 -8.94963
149 1 3.14484 -3.72828e-17 9.43453 -8.94963
150 1 6.28969 8.8164e-17 9.43453 -8.94963
151 1 9.43453 1.35396e-16 9.43453 -8.94964
152 1 12.5794 8.32323e-17 9.43453 -8.94963
153 1 15.7242 3.26046e-16 9.43453 -8.94963
154 1 18.8691 1.75292e-16 9.43453 -8.94963
155 1 1.21356e-09 3.14484 9.43453 -8.94963
156 1 3.14484 3.14484 9.43453 -8.94963
157 1 6.28969 3.14484 9.43453 -8.94963
158 1 9.43453 3.14482 9.43453 -8.95001
159 1 12.5794 3.14484 9.43453 -8.94965
177 1 4.71726 1.57242 11.007 -8.94963
181 1 17.2966 1.57242 11.007 -8.94963
184 1 4.71727 4.71726 11.0069 -8.94968
11 1 15.7242 2.19676e-16 2.0308e-11 -8.94963
25 1 15.7242 3.14484 2.46223e-10 -8.94963
41 1 18.8691 6.28969 3.67097e-10 -8.94963
44 1 3.14484 9.43453 -4.68552e-10 -8.94963
176 1 1.57242 1.57242 11.007 -8.94963
343 1 18.8691 9.43453 18.8691 -8.94963
178 1 7.86211 1.57242 11.007 -8.94964
179 1 11.007 1.57242 11.007 -8.94963
180 1 14.1518 1.57242 11.007 -8.94963
342 1 15.7242 9.43453 18.8691 -8.94963
182 1 20.4415 1.57242 11.007 -8.94963
341 1 12.5794 9.43453 18.8691 -8.94964
340 1 9.43453 9.43453 18.8691 -8.94954
185 1 7.86209 4.71723 11.007 -8.94959
186 1 11.007 4.71725 11.007 -8.9493
187 1 14.1518 4.71726 11.007 -8.94965
339 1 6.28968 9.43453 18.8691 -8.94947
338 1 3.14484 9.43453 18.8691 -8.94963
337 1 22.0139 9.43453 18.8691 -8.94963
336 1 20.4415 7.86211 20.4415 -8.94963
192 1 7.86087 7.86114 11.0081 -8.98341
193 1 11.0072 7.86223 11.0074 -8.98503
194 1 14.1518 7.86209 11.007 -8.94942
195 1 17.2966 7.86211 11.007 -8.94963
196 1 20.4415 7.86211 11.007 -8.94963
197 1 22.0139 1.61946e-17 12.5794 -8.94963
198 1 1.57242 1.57242 14.1518 -8.94963
199 1 3.14484 8.85381e-17 12.5794 -8.94963
200 1 4.71726 1.57242 14.1518 -8.94963
201 1 6.28969 -7.67779e-17 12.5794 -8.94963
202 1 7.86211 1.57242 14.1518 -8.94963
203 1 9.43453 -6.76737e-17 12.5794 -8.94964
204 1 11.007 1.57242 14.1518 -8.94963
205 1 12.5794 1.86401e-17 12.5794 -8.94963
206 1 14.1518 1.57242 14.1518 -8.94963
207 1 15.7242 2.63218e-16 12.5794 -8.94963
208 1 17.2966 1.57242 14.1518 -8.94963
209 1 18.8691 2.30498e-16 12.5794 -8.94963
210 1 20.4415 1.57242 14.1518 -8.94963
211 1 22.0139 3.14484 12.5794 -8.94963
212 1 1.57242 4.71726 14.1518 -8.94963
213 1 3.14484 3.14484 12.5794 -8.94963
214 1 4.71726 4.71726 14.1518 -8.94963
215 1 6.28969 3.14484 12.5794 -8.94964
216 1 7.8621 4.71726 14.1518 -8.94958
217 1 9.43453 3.14484 12.5794 -8.94974
218 1 11.007 4.71727 14.1518 -8.94947
219 1 12.5794 3.14484 12.5794 -8.94963
220 1 14.1518 4.71726 14.1518 -8.94963
221 1 15.7242 3.14484 12.5794 -8.94963
222 1 17.2966 4.71726 14.1518 -8.94963
223 1 18.8691 3.14484 12.5794 -8.94963
224 1 20.4415 4.71726 14.1518 -8.94963
225 1 22.0139 6.28969 12.5794 -8.94963
226 1 1.57242 7.86211 14.1518 -8.94963
227 1 3.14484 6.28969 12.5794 -8.94967
228 1 4.71722 7.86207 14.1518 -8.94918
229 1 6.28965 6.28963 12.5794 -8.94961
230 1 7.86198 7.8622 14.1518 -9.00565
231 1 9.43451 6.28936 12.5793 -8.95452
232 1 11.0067 7.86254 14.1518 -8.99287
233 1 12.5794 6.28968 12.5794 -8.95018
234 1 14.1518 7.86209 14.1518 -8.94924
235 1 15.7242 6.28969 12.5794 -8.94964
236 1 17.2966 7.86211 14.1518 -8.94963
237 1 18.8691 6.28969 12.5794 -8.94963
238 1 20.4415 7.86211 14.1518 -8.94963
239 1 22.0139 9.43453 12.5794 -8.94965
240 1 3.14481 9.43453 12.5794 -8.95029
241 1 6.28749 9.43305 12.5794 -8.98515
242 1 9.44115 9.42013 12.5796 -9.2376
243 1 12.5799 9.43376 12.5804 -8.97461
244 1 15.7242 9.43452 12.5794 -8.94968
245 1 18.8691 9.43453 12.5794 -8.94963
246 1 6.09807e-11 -1.32334e-16 15.7242 -8.94963
247 1 1.57242 1.57242 17.2966 -8.94963
248 1 3.14484 1.04063e-16 15.7242 -8.94963
249 1 4.71726 1.57242 17.2966 -8.94963
250 1 6.28969 2.71477e-16 15.7242 -8.94963
251 1 7.86211 1.57242 17.2966 -8.94963
252 1 9.43453 4.15301e-16 15.7242 -8.94963
253 1 11.007 1.57242 17.2966 -8.94963
254 1 12.5794 1.83362e-16 15.7242 -8.94963
255 1 14.1518 1.57242 17.2966 -8.94963
256 1 15.7242 -5.59899e-18 15.7242 -8.94963
257 1 17.2966 1.57242 17.2966 -8.94963
258 1 18.8691 1.38782e-16 15.7242 -8.94963
259 1 20.4415 1.57242 17.2966 -8.94963
260 1 1.55846e-09 3.14484 15.7242 -8.94963
261 1 1.57242 4.71726 17.2966 -8.94963
262 1 3.14484 3.14484 15.7242 -8.94963
263 1 4.71726 4.71726 17.2966 -8.94963
264 1 6.28969 3.14484 15.7242 -8.94963
265 1 7.86211 4.71726 17.2966 -8.94963
266 1 9.43453 3.14484 15.7242 -8.94964
267 1 11.007 4.71726 17.2966 -8.94963
268 1 12.5794 3.14484 15.7242 -8.94963
269 1 14.1518 4.71726 17.2966 -8.94964
270 1 15.7242 3.14484 15.7242 -8.94963
271 1 17.2966 4.71726 17.2966 -8.94963
272 1 18.8691 3.14484 15.7242 -8.94963
273 1 20.4415 4.71726 17.2966 -8.94963
274 1 22.0139 6.28969 15.7242 -8.94963
275 1 1.57242 7.86211 17.2966 -8.94964
276 1 3.14484 6.28968 15.7242 -8.94961
277 1 4.71727 7.86211 17.2966 -8.94973
278 1 6.28969 6.28969 15.7242 -8.94965
279 1 7.86211 7.86211 17.2966 -8.9499
280 1 9.43453 6.28969 15.7242 -8.94991
281 1 11.0069 7.86211 17.2966 -8.94966
282 1 12.5794 6.28969 15.7242 -8.94977
283 1 14.1518 7.86211 17.2966 -8.94961
284 1 15.7242 6.28969 15.7242 -8.94963
285 1 17.2966 7.86211 17.2966 -8.94963
286 1 18.8691 6.28969 15.7242 -8.94963
287 1 20.4415 7.86211 17.2966 -8.94963
288 1 3.15338e-07 9.43453 15.7242 -8.94963
289 1 3.14486 9.43454 15.7242 -8.94975
290 1 6.28989 9.43453 15.7238 -8.99186
291 1 9.43463 9.43457 15.7241 -9.00535
292 1 12.5794 9.43448 15.7243 -8.94921
293 1 15.7242 9.43453 15.7242 -8.94968
294 1 18.8691 9.43453 15.7242 -8.94963
295 1 22.0139 6.21578e-17 18.8691 -8.94963
296 1 1.57242 1.57242 20.4415 -8.94963
297 1 3.14484 -2.92248e-17 18.8691 -8.94963
298 1 4.71726 1.57242 20.4415 -8.94963
299 1 6.28969 2.90354e-16 18.8691 -8.94963
300 1 7.86211 1.57242 20.4415 -8.94963
301 1 9.43453 3.57394e-16 18.8691 -8.94963
302 1 11.007 1.57242 20.4415 -8.94963
303 1 12.5794 3.35084e-16 18.8691 -8.94963
304 1 14.1518 1.57242 20.4415 -8.94963
305 1 15.7242 1.23799e-16 18.8691 -8.94963
306 1 17.2966 1.57242 20.4415 -8.94963
307 1 18.8691 1.98188e-16 18.8691 -8.94963
308 1 20.4415 1.57242 20.4415 -8.94963
309 1 22.0139 3.14484 18.8691 -8.94963
310 1 1.57242 4.71726 20.4415 -8.94963
311 1 3.14484 3.14484 18.8691 -8.94963
312 1 4.71726 4.71726 20.4415 -8.94963
313 1 6.28969 3.14484 18.8691 -8.94963
314 1 7.86211 4.71726 20.4415 -8.94963
315 1 9.43453 3.14484 18.8691 -8.94963
316 1 11.007 4.71726 20.4415 -8.94963
317 1 12.5794 3.14484 18.8691 -8.94963
318 1 14.1518 4.71726 20.4415 -8.94963
319 1 15.7242 3.14484 18.8691 -8.94963
320 1 17.2966 4.71726 20.4415 -8.94963
321 1 18.8691 3.14484 18.8691 -8.94963
322 1 20.4415 4.71726 20.4415 -8.94963
323 1 9.11359e-09 6.28969 18.8691 -8.94963
324 1 1.57242 7.86211 20.4415 -8.94963
325 1 3.14484 6.28969 18.8691 -8.94963
326 1 4.71726 7.86211 20.4415 -8.94963
327 1 6.28969 6.28969 18.8691 -8.94963
328 1 7.86211 7.86211 20.4415 -8.94964
329 1 9.43453 6.28969 18.8691 -8.94963
330 1 11.007 7.86211 20.4415 -8.94963
331 1 12.5794 6.28969 18.8691 -8.94963
332 1 14.1518 7.86211 20.4415 -8.94963
333 1 15.7242 6.28969 18.8691 -8.94963
334 1 17.2966 7.86211 20.4415 -8.94963
335 1 18.8691 6.28969 18.8691 -8.94963
5 1 6.28969 1.98279e-16 22.0139 -8.94963
9 1 12.5794 1.83149e-16 22.0139 -8.94963
47 1 12.5794 9.43453 22.0139 -8.94964
15 1 3.07786e-11 3.14484 22.0139 -8.94963
19 1 6.28969 3.14484 22.0139 -8.94963
21 1 9.43453 3.14484 22.0139 -8.94963
46 1 9.43453 9.43453 22.0139 -8.94963
27 1 18.8691 3.14484 22.0139 -8.94963
31 1 3.14484 6.28969 22.0139 -8.94963
39 1 15.7242 6.28969 22.0139 -8.94963
45 1 6.28969 9.43453 22.0139 -8.94963
43 1 7.2015e-10 9.43453 22.0139 -8.94963
1 1 9.72127e-13 1.16572e-16 22.0139 -8.94963
13 1 18.8691 2.41874e-16 22.0139 -8.94963
23 1 12.5794 3.14484 22.0139 -8.94963
49 1 18.8691 9.43453 22.0139 -8.94963
183 1 1.57242 4.71726 11.007 -8.94963
344 1 1.57242 11.007 1.57242 -8.94963
345 1 4.71726 11.007 1.57242 -8.94963
346 1 7.86211 11.007 1.57242 -8.94965
347 1 11.007 11.007 1.5724 -8.95
348 1 14.1518 11.007 1.57242 -8.94963
349 1 17.2966 11.007 1.57242 -8.94963
350 1 20.4415 11.007 1.57242 -8.94963
688 3 10.2207 11.007 9.43451 4.03271
352 1 1.57242 14.1518 1.57242 -8.94963
511 1 18.8691 18.8691 9.43453 -8.94963
354 1 4.71726 14.1518 1.57242 -8.94963
510 1 15.7242 18.8691 9.43453 -8.94963
356 1 7.86211 14.1518 1.57242 -8.94963
509 1 12.5794 18.8691 9.43453 -8.94965
358 1 11.007 14.1518 1.57242 -8.94964
508 1 9.43453 18.8691 9.43453 -8.95001
360 1 14.1518 14.1518 1.57242 -8.94963
361 1 15.7242 12.5794 2.72853e-08 -8.94963
362 1 17.2966 14.1518 1.57242 -8.94963
538 1 17.2966 20.4415 11.007 -8.94963
364 1 20.4415 14.1518 1.57242 -8.94963
365 1 22.0139 15.7242 1.80476e-10 -8.94963
366 1 1.57242 17.2966 1.57242 -8.94963
507 1 6.28969 18.8691 9.43453 -8.94963
368 1 4.71726 17.2966 1.57242 -8.94963
369 1 6.28969 15.7242 -8.11703e-09 -8.94963
370 1 7.86211 17.2966 1.57242 -8.94963
371 1 9.43453 15.7242 1.90285e-08 -8.94963
372 1 11.007 17.2966 1.57242 -8.94963
373 1 12.5794 15.7242 2.46464e-08 -8.94963
374 1 14.1518 17.2966 1.57242 -8.94963
506 1 3.14484 18.8691 9.43453 -8.94963
376 1 17.2966 17.2966 1.57242 -8.94963
505 1 1.21356e-09 18.8691 9.43453 -8.94963
378 1 20.4415 17.2966 1.57242 -8.94963
504 1 18.8691 15.7242 9.43453 -8.94963
380 1 1.57242 20.4415 1.57242 -8.94963
381 1 3.14484 18.8691 1.0571e-10 -8.94963
382 1 4.71726 20.4415 1.57242 -8.94963
503 1 15.7242 15.7242 9.43453 -8.9497
384 1 7.86211 20.4415 1.57242 -8.94963
502 1 12.5793 15.7242 9.43454 -8.95074
386 1 11.007 20.4415 1.57242 -8.94963
534 1 4.71726 20.4415 11.007 -8.94963
388 1 14.1518 20.4415 1.57242 -8.94963
501 1 9.43451 15.7256 9.43453 -8.96379
390 1 17.2966 20.4415 1.57242 -8.94963
500 1 6.28973 15.7242 9.43453 -8.95114
392 1 20.4415 20.4415 1.57242 -8.94963
393 1 1.57242 11.007 4.71726 -8.94963
394 1 4.71727 11.007 4.71727 -8.94969
395 1 7.86213 11.007 4.71725 -8.95074
396 1 11.007 11.007 4.71585 -8.96351
397 1 14.1518 11.007 4.7173 -8.95112
398 1 17.2966 11.007 4.71726 -8.94963
399 1 20.4415 11.007 4.71726 -8.94963
400 1 2.23011e-09 12.5794 3.14484 -8.94963
401 1 1.57242 14.1518 4.71726 -8.94963
402 1 3.14484 12.5794 3.14484 -8.94963
403 1 4.71726 14.1518 4.71726 -8.94965
404 1 6.28969 12.5794 3.14484 -8.94965
405 1 7.8621 14.1518 4.71724 -8.94978
406 1 9.43452 12.5794 3.14483 -8.94947
407 1 11.0069 14.1518 4.71729 -8.95067
408 1 12.5794 12.5794 3.14481 -8.94968
409 1 14.1518 14.1518 4.71724 -8.94913
410 1 15.7242 12.5794 3.14484 -8.94968
411 1 17.2966 14.1518 4.71726 -8.94963
412 1 18.8691 12.5794 3.14484 -8.94963
413 1 20.4415 14.1518 4.71726 -8.94963
414 1 22.0139 15.7242 3.14484 -8.94963
415 1 1.57242 17.2966 4.71726 -8.94963
416 1 3.14484 15.7242 3.14484 -8.94963
417 1 4.71726 17.2966 4.71726 -8.94962
418 1 6.28969 15.7242 3.14484 -8.94963
419 1 7.86211 17.2966 4.71727 -8.94968
420 1 9.43453 15.7242 3.14484 -8.94964
421 1 11.007 17.2966 4.71726 -8.94964
422 1 12.5794 15.7242 3.14484 -8.94968
423 1 14.1518 17.2966 4.71726 -8.94963
424 1 15.7242 15.7242 3.14484 -8.94962
425 1 17.2966 17.2966 4.71726 -8.94963
426 1 18.8691 15.7242 3.14484 -8.94963
427 1 20.4415 17.2966 4.71726 -8.94963
428 1 22.0139 18.8691 3.14484 -8.94963
429 1 1.57242 20.4415 4.71726 -8.94963
430 1 3.14484 18.8691 3.14484 -8.94963
431 1 4.71726 20.4415 4.71726 -8.94963
432 1 6.28969 18.8691 3.14484 -8.94963
433 1 7.86211 20.4415 4.71726 -8.94963
434 1 9.43453 18.8691 3.14484 -8.94963
435 1 11.007 20.4415 4.71726 -8.94963
436 1 12.5794 18.8691 3.14484 -8.94963
437 1 14.1518 20.4415 4.71726 -8.94963
438 1 15.7242 18.8691 3.14484 -8.94963
439 1 17.2966 20.4415 4.71726 -8.94963
440 1 18.8691 18.8691 3.14484 -8.94963
441 1 20.4415 20.4415 4.71726 -8.94963
442 1 1.57242 11.007 7.86211 -8.94963
443 1 4.71722 11.007 7.86212 -8.95059
444 1 7.85938 11.007 7.85967 -8.91658
445 1 11.041 11.007 7.7929 -7.92474
446 1 14.1525 11.007 7.86202 -8.95698
447 1 17.2966 11.007 7.86211 -8.9498
448 1 20.4415 11.007 7.86211 -8.94964
449 1 22.0139 12.5794 6.28969 -8.94963
450 1 1.57242 14.1518 7.86211 -8.94964
451 1 3.14484 12.5794 6.28969 -8.94963
452 1 4.71725 14.1518 7.86211 -8.94994
453 1 6.28965 12.5794 6.28966 -8.94913
454 1 7.86099 14.1529 7.86098 -8.92782
455 1 9.43412 12.5798 6.28941 -8.94276
456 1 11.0074 14.1521 7.86167 -8.94285
457 1 12.5805 12.5805 6.28862 -8.92754
458 1 14.1518 14.1518 7.86207 -8.94927
459 1 15.7242 12.5794 6.28968 -8.94984
460 1 17.2966 14.1518 7.86211 -8.94964
461 1 18.8691 12.5794 6.28969 -8.94964
462 1 20.4415 14.1518 7.86211 -8.94963
463 1 1.88164e-09 15.7242 6.28969 -8.94963
464 1 1.57242 17.2966 7.86211 -8.94963
465 1 3.14484 15.7242 6.28969 -8.94964
466 1 4.71727 17.2966 7.86211 -8.94968
467 1 6.28966 15.7242 6.28966 -8.94913
468 1 7.86209 17.2967 7.86209 -8.94968
469 1 9.43453 15.7242 6.28972 -8.95067
470 1 11.007 17.2967 7.86209 -8.94947
471 1 12.5794 15.7242 6.28968 -8.94978
472 1 14.1518 17.2966 7.86211 -8.94965
473 1 15.7242 15.7242 6.28969 -8.94965
474 1 17.2966 17.2966 7.86211 -8.94963
475 1 18.8691 15.7242 6.28969 -8.94963
476 1 20.4415 17.2966 7.86211 -8.94963
477 1 22.0139 18.8691 6.28969 -8.94963
478 1 1.57242 20.4415 7.86211 -8.94963
479 1 3.14484 18.8691 6.28969 -8.94963
480 1 4.71726 20.4415 7.86211 -8.94963
481 1 6.28969 18.8691 6.28969 -8.94963
482 1 7.86211 20.4415 7.86211 -8.94964
483 1 9.43453 18.8691 6.28969 -8.94964
484 1 11.007 20.4415 7.86211 -8.94963
485 1 12.5794 18.8691 6.28969 -8.94963
486 1 14.1518 20.4415 7.86211 -8.94963
487 1 15.7242 18.8691 6.28969 -8.94963
488 1 17.2966 20.4415 7.86211 -8.94963
489 1 18.8691 18.8691 6.28969 -8.94963
490 1 20.4415 20.4415 7.86211 -8.94963
491 1 1.77144e-07 12.5794 9.43453 -8.94963
492 1 3.14485 12.5794 9.43454 -8.94991
493 1 6.28921 12.5795 9.43493 -8.99913
494 1 9.40055 12.6485 9.43461 -7.97885
495 1 12.5822 12.5815 9.43449 -8.91231
496 1 15.7243 12.5794 9.43453 -8.95018
497 1 18.8691 12.5794 9.43453 -8.94964
498 1 22.0139 15.7242 9.43453 -8.94963
499 1 3.14484 15.7242 9.43453 -8.9496
512 1 1.57243 11.007 11.0069 -8.94948
514 1 7.85232 11.007 10.9951 -9.21029
519 1 1.57242 14.1518 11.007 -8.94964
520 1 4.7172 14.1518 11.0069 -8.94937
532 1 20.4415 17.2966 11.007 -8.94963
527 1 4.71727 17.2966 11.0069 -8.94968
531 1 17.2966 17.2966 11.007 -8.94963
518 1 20.4415 11.007 11.007 -8.94963
353 1 3.14484 12.5794 -4.68552e-10 -8.94963
389 1 15.7242 18.8691 2.46223e-10 -8.94963
377 1 18.8691 15.7242 3.67097e-10 -8.94963
687 2 8.64832 11.007 12.5793 1.09831
513 1 4.71776 11.007 11.0073 -8.99751
686 1 20.4415 20.4415 20.4415 -8.94963
515 1 11.0433 11.007 11.0748 -7.95857
516 1 14.1525 11.007 11.007 -8.95749
517 1 17.2966 11.007 11.007 -8.94981
391 1 18.8691 18.8691 22.0139 -8.94963
685 1 18.8691 18.8691 18.8691 -8.94963
684 1 17.2966 20.4415 20.4415 -8.94963
521 1 7.86087 14.1528 11.0081 -8.98341
522 1 11.0072 14.1517 11.0074 -8.98503
523 1 14.1518 14.1518 11.007 -8.94942
524 1 17.2966 14.1518 11.007 -8.94963
525 1 20.4415 14.1518 11.007 -8.94963
683 1 15.7242 18.8691 18.8691 -8.94963
682 1 14.1518 20.4415 20.4415 -8.94963
528 1 7.86209 17.2967 11.007 -8.94959
529 1 11.007 17.2966 11.007 -8.9493
530 1 14.1518 17.2966 11.007 -8.94965
681 1 12.5794 18.8691 18.8691 -8.94963
680 1 11.007 20.4415 20.4415 -8.94963
533 1 1.57242 20.4415 11.007 -8.94963
679 1 9.43453 18.8691 18.8691 -8.94963
535 1 7.86211 20.4415 11.007 -8.94964
536 1 11.007 20.4415 11.007 -8.94963
537 1 14.1518 20.4415 11.007 -8.94963
678 1 7.86211 20.4415 20.4415 -8.94963
539 1 20.4415 20.4415 11.007 -8.94963
540 1 1.57243 11.007 14.1518 -8.94947
541 1 4.71782 11.007 14.1514 -8.99705
542 1 7.85511 11.007 14.1658 -9.24552
543 1 11.0091 11.007 14.1546 -8.99975
544 1 14.1518 11.007 14.1518 -8.95178
545 1 17.2966 11.007 14.1518 -8.94964
546 1 20.4415 11.007 14.1518 -8.94963
547 1 22.0139 12.5794 12.5794 -8.94965
548 1 1.57242 14.1518 14.1518 -8.94963
549 1 3.14481 12.5794 12.5794 -8.95029
550 1 4.71722 14.1518 14.1518 -8.94918
551 1 6.28749 12.5808 12.5794 -8.98515
552 1 7.86198 14.1517 14.1518 -9.00565
553 1 9.44115 12.5938 12.5796 -9.2376
554 1 11.0067 14.1514 14.1518 -8.99287
555 1 12.5799 12.5801 12.5804 -8.97461
556 1 14.1518 14.1518 14.1518 -8.94924
557 1 15.7242 12.5794 12.5794 -8.94968
558 1 17.2966 14.1518 14.1518 -8.94963
559 1 18.8691 12.5794 12.5794 -8.94963
560 1 20.4415 14.1518 14.1518 -8.94963
561 1 22.0139 15.7242 12.5794 -8.94963
562 1 1.57242 17.2966 14.1518 -8.94963
563 1 3.14484 15.7242 12.5794 -8.94967
564 1 4.71726 17.2966 14.1518 -8.94963
565 1 6.28965 15.7243 12.5794 -8.94961
566 1 7.8621 17.2966 14.1518 -8.94958
567 1 9.43451 15.7245 12.5793 -8.95452
568 1 11.007 17.2966 14.1518 -8.94947
569 1 12.5794 15.7242 12.5794 -8.95018
570 1 14.1518 17.2966 14.1518 -8.94963
571 1 15.7242 15.7242 12.5794 -8.94964
572 1 17.2966 17.2966 14.1518 -8.94963
573 1 18.8691 15.7242 12.5794 -8.94963
574 1 20.4415 17.2966 14.1518 -8.94963
575 1 22.0139 18.8691 12.5794 -8.94963
576 1 1.57242 20.4415 14.1518 -8.94963
577 1 3.14484 18.8691 12.5794 -8.94963
578 1 4.71726 20.4415 14.1518 -8.94963
579 1 6.28969 18.8691 12.5794 -8.94964
580 1 7.86211 20.4415 14.1518 -8.94963
581 1 9.43453 18.8691 12.5794 -8.94974
582 1 11.007 20.4415 14.1518 -8.94963
583 1 12.5794 18.8691 12.5794 -8.94963
584 1 14.1518 20.4415 14.1518 -8.94963
585 1 15.7242 18.8691 12.5794 -8.94963
586 1 17.2966 20.4415 14.1518 -8.94963
587 1 18.8691 18.8691 12.5794 -8.94963
588 1 20.4415 20.4415 14.1518 -8.94963
589 1 1.57242 11.007 17.2966 -8.94962
590 1 4.71728 11.007 17.2966 -8.95003
591 1 7.86214 11.007 17.297 -8.9535
592 1 11.007 11.007 17.2967 -8.95048
593 1 14.1518 11.007 17.2966 -8.94967
594 1 17.2966 11.007 17.2966 -8.94963
595 1 20.4415 11.007 17.2966 -8.94963
596 1 3.15338e-07 12.5794 15.7242 -8.94963
597 1 1.57242 14.1518 17.2966 -8.94964
598 1 3.14486 12.5794 15.7242 -8.94975
599 1 4.71727 14.1518 17.2966 -8.94973
600 1 6.28989 12.5794 15.7238 -8.99186
601 1 7.86211 14.1518 17.2966 -8.9499
602 1 9.43463 12.5793 15.7241 -9.00535
603 1 11.0069 14.1518 17.2966 -8.94966
604 1 12.5794 12.5794 15.7243 -8.94921
605 1 14.1518 14.1518 17.2966 -8.94961
606 1 15.7242 12.5794 15.7242 -8.94968
607 1 17.2966 14.1518 17.2966 -8.94963
608 1 18.8691 12.5794 15.7242 -8.94963
609 1 20.4415 14.1518 17.2966 -8.94963
610 1 22.0139 15.7242 15.7242 -8.94963
611 1 1.57242 17.2966 17.2966 -8.94963
612 1 3.14484 15.7242 15.7242 -8.94961
613 1 4.71726 17.2966 17.2966 -8.94963
614 1 6.28969 15.7242 15.7242 -8.94965
615 1 7.86211 17.2966 17.2966 -8.94963
616 1 9.43453 15.7242 15.7242 -8.94991
617 1 11.007 17.2966 17.2966 -8.94963
618 1 12.5794 15.7242 15.7242 -8.94977
619 1 14.1518 17.2966 17.2966 -8.94964
620 1 15.7242 15.7242 15.7242 -8.94963
621 1 17.2966 17.2966 17.2966 -8.94963
622 1 18.8691 15.7242 15.7242 -8.94963
623 1 20.4415 17.2966 17.2966 -8.94963
624 1 1.55846e-09 18.8691 15.7242 -8.94963
625 1 1.57242 20.4415 17.2966 -8.94963
626 1 3.14484 18.8691 15.7242 -8.94963
627 1 4.71726 20.4415 17.2966 -8.94963
628 1 6.28969 18.8691 15.7242 -8.94963
629 1 7.86211 20.4415 17.2966 -8.94963
630 1 9.43453 18.8691 15.7242 -8.94964
631 1 11.007 20.4415 17.2966 -8.94963
632 1 12.5794 18.8691 15.7242 -8.94963
633 1 14.1518 20.4415 17.2966 -8.94963
634 1 15.7242 18.8691 15.7242 -8.94963
635 1 17.2966 20.4415 17.2966 -8.94963
636 1 18.8691 18.8691 15.7242 -8.94963
637 1 20.4415 20.4415 17.2966 -8.94963
638 1 1.57242 11.007 20.4415 -8.94963
639 1 4.71726 11.007 20.4415 -8.94963
640 1 7.86211 11.007 20.4415 -8.94973
641 1 11.007 11.007 20.4415 -8.94966
642 1 14.1518 11.007 20.4415 -8.94963
643 1 17.2966 11.007 20.4415 -8.94963
644 1 20.4415 11.007 20.4415 -8.94963
645 1 22.0139 12.5794 18.8691 -8.94963
646 1 1.57242 14.1518 20.4415 -8.94963
647 1 3.14484 12.5794 18.8691 -8.94963
648 1 4.71726 14.1518 20.4415 -8.94963
649 1 6.28968 12.5794 18.8691 -8.94947
650 1 7.86211 14.1518 20.4415 -8.94964
651 1 9.43453 12.5794 18.8691 -8.94954
652 1 11.007 14.1518 20.4415 -8.94963
653 1 12.5794 12.5794 18.8691 -8.94964
654 1 14.1518 14.1518 20.4415 -8.94963
655 1 15.7242 12.5794 18.8691 -8.94963
656 1 17.2966 14.1518 20.4415 -8.94963
657 1 18.8691 12.5794 18.8691 -8.94963
658 1 20.4415 14.1518 20.4415 -8.94963
659 1 9.11359e-09 15.7242 18.8691 -8.94963
660 1 1.57242 17.2966 20.4415 -8.94963
661 1 3.14484 15.7242 18.8691 -8.94963
662 1 4.71726 17.2966 20.4415 -8.94963
663 1 6.28969 15.7242 18.8691 -8.94963
664 1 7.86211 17.2966 20.4415 -8.94963
665 1 9.43453 15.7242 18.8691 -8.94963
666 1 11.007 17.2966 20.4415 -8.94963
667 1 12.5794 15.7242 18.8691 -8.94963
668 1 14.1518 17.2966 20.4415 -8.94963
669 1 15.7242 15.7242 18.8691 -8.94963
670 1 17.2966 17.2966 20.4415 -8.94963
671 1 18.8691 15.7242 18.8691 -8.94963
672 1 20.4415 17.2966 20.4415 -8.94963
673 1 22.0139 18.8691 18.8691 -8.94963
674 1 1.57242 20.4415 20.4415 -8.94963
675 1 3.14484 18.8691 18.8691 -8.94963
676 1 4.71726 20.4415 20.4415 -8.94963
677 1 6.28969 18.8691 18.8691 -8.94963
351 1 7.2015e-10 12.5794 22.0139 -8.94963
385 1 9.43453 18.8691 22.0139 -8.94963
355 1 6.28969 12.5794 22.0139 -8.94963
357 1 9.43453 12.5794 22.0139 -8.94963
359 1 12.5794 12.5794 22.0139 -8.94964
367 1 3.14484 15.7242 22.0139 -8.94963
375 1 15.7242 15.7242 22.0139 -8.94963
383 1 6.28969 18.8691 22.0139 -8.94963
379 1 3.07787e-11 18.8691 22.0139 -8.94963
363 1 18.8691 12.5794 22.0139 -8.94963
387 1 12.5794 18.8691 22.0139 -8.94963
526 1 1.57242 17.2966 11.007 -8.94963
