ITEM: TIMESTEP
67
ITEM: NUMBER OF ATOMS
688
ITEM: BOX BOUNDS pp pp pp
0.0000000000000000e+00 2.2013900999999997e+01
0.0000000000000000e+00 2.2013900999999997e+01
0.0000000000000000e+00 2.2013900999999997e+01
ITEM: ATOMS id type x y z c_pot
191 1 4.70673 7.85789 11.0087 -8.95665
2 1 1.57226 1.57231 1.57227 -8.94936
3 1 3.14481 1.46193e-15 -3.99128e-05 -8.94968
4 1 4.71719 1.57228 1.57226 -8.9497
175 1 18.8696 9.4342 9.43451 -8.94819
6 1 7.86208 1.57226 1.57224 -8.94957
7 1 9.43452 1.55422e-15 -5.33601e-05 -8.94963
8 1 11.007 1.57225 1.57223 -8.9496
174 1 15.7233 9.43463 9.43444 -8.94058
10 1 14.1518 1.57226 1.57227 -8.94956
173 1 12.5604 9.44355 9.43347 -8.90191
12 1 17.2968 1.57223 1.57226 -8.94952
190 1 1.57011 7.86172 11.0071 -8.95171
14 1 20.4415 1.57237 1.57238 -8.94962
172 1 9.35703 9.20131 9.43168 -8.16712
16 1 1.57226 4.71716 1.57227 -8.94974
17 1 3.14467 3.14466 -0.000165975 -8.94956
18 1 4.71666 4.71666 1.57149 -8.94948
171 1 6.27644 9.42305 9.4305 -9.00489
20 1 7.86196 4.71672 1.57172 -8.94924
170 1 3.14162 9.43503 9.43452 -8.95289
22 1 11.007 4.71665 1.57175 -8.94946
189 1 20.4414 4.717 11.007 -8.94958
24 1 14.1521 4.71664 1.57181 -8.94972
169 1 -0.000645777 9.4346 9.4345 -8.94983
26 1 17.2973 4.71656 1.57179 -8.94847
168 1 18.8696 6.28915 9.43452 -8.94959
28 1 20.4417 4.71713 1.57228 -8.94959
29 1 22.0139 6.28967 -3.81593e-05 -8.94962
30 1 1.57228 7.86209 1.57226 -8.9495
167 1 15.7258 6.28818 9.43452 -8.94727
32 1 4.71691 7.86217 1.57205 -8.94971
33 1 6.2894 6.28938 -0.000497171 -8.95031
34 1 7.86177 7.86182 1.57071 -8.95203
35 1 9.43436 6.28917 -0.000478923 -8.94954
36 1 11.0067 7.86126 1.57042 -8.95027
37 1 12.5795 6.28919 -0.000424582 -8.94955
38 1 14.1529 7.86096 1.56981 -8.95133
166 1 12.5792 6.28997 9.43304 -8.94345
40 1 17.2973 7.86178 1.57178 -8.94941
165 1 9.42999 6.29119 9.43409 -9.00365
42 1 20.4416 7.86204 1.57226 -8.94955
164 1 6.28032 6.27993 9.43369 -8.94302
163 1 3.14132 6.28781 9.43426 -8.94867
162 1 22.0132 6.28929 9.43447 -8.94985
161 1 18.8692 3.14463 9.43453 -8.94963
160 1 15.7247 3.14426 9.43453 -8.94972
48 1 15.7248 9.43433 -0.000618251 -8.94938
188 1 17.2972 4.71671 11.007 -8.94911
50 1 -5.9219e-05 6.92796e-16 3.1448 -8.94964
51 1 1.57222 1.57227 4.71715 -8.94961
52 1 3.1446 5.9681e-16 3.14459 -8.94956
53 1 4.71678 1.57176 4.71674 -8.9499
54 1 6.28964 5.44581e-16 3.14463 -8.9496
55 1 7.8621 1.57185 4.71685 -8.94958
56 1 9.43454 1.05281e-15 3.14459 -8.94959
57 1 11.0071 1.57183 4.71682 -8.94956
58 1 12.5795 1.32851e-15 3.14461 -8.94953
59 1 14.1521 1.57183 4.71702 -8.95037
60 1 15.7244 1.39712e-15 3.14468 -8.94986
61 1 17.2967 1.57231 4.71726 -8.94965
62 1 18.8691 7.00608e-16 3.14484 -8.94967
63 1 20.4415 1.57237 4.71724 -8.9496
64 1 22.0137 3.14468 3.14469 -8.94954
65 1 1.57149 4.71669 4.71667 -8.94951
66 1 3.14414 3.14418 3.14412 -8.94848
67 1 4.71427 4.71431 4.7142 -8.94488
68 1 6.28946 3.1442 3.14424 -8.94974
69 1 7.86159 4.71496 4.71549 -8.94927
70 1 9.43452 3.14414 3.14424 -8.94945
71 1 11.0073 4.71496 4.71558 -8.94796
72 1 12.5795 3.14411 3.14432 -8.94925
73 1 14.1538 4.71383 4.71535 -8.94989
74 1 15.7248 3.14388 3.14425 -8.94944
75 1 17.2972 4.71676 4.71717 -8.95021
76 1 18.8692 3.14468 3.14478 -8.94978
77 1 20.4414 4.71709 4.71717 -8.94975
78 1 22.0139 6.28961 3.14467 -8.94977
79 1 1.57193 7.86217 4.71694 -8.94974
80 1 3.14422 6.2895 3.14425 -8.95016
81 1 4.71545 7.86205 4.7157 -8.95125
82 1 6.28774 6.28783 3.14144 -8.94998
83 1 7.8571 7.85697 4.70782 -8.95374
84 1 9.43417 6.28801 3.14255 -8.94793
85 1 11.0074 7.85801 4.70968 -8.95089
86 1 12.58 6.28792 3.14251 -8.9493
87 1 14.1629 7.85146 4.70641 -8.93021
88 1 15.7272 6.28671 3.14197 -8.94486
89 1 17.2997 7.86067 4.71588 -8.95073
90 1 18.8699 6.28918 3.14435 -8.94965
91 1 20.442 7.86192 4.71702 -8.95006
92 1 -1.30648e-05 9.43449 3.1446 -8.94958
93 1 3.14428 9.43453 3.14426 -8.94907
94 1 6.28917 9.43512 3.14381 -8.94939
95 1 9.43489 9.43447 3.14284 -8.95138
96 1 12.5816 9.43336 3.13762 -8.95878
97 1 15.7266 9.43364 3.14241 -8.94793
98 1 18.8699 9.43436 3.14433 -8.94936
99 1 22.0138 3.35848e-16 6.28966 -8.94963
100 1 1.57217 1.57224 7.86205 -8.9496
101 1 3.14454 -3.22161e-16 6.28953 -8.94947
102 1 4.71662 1.57164 7.86182 -8.94937
103 1 6.28944 1.33981e-15 6.28936 -8.95045
104 1 7.86205 1.57106 7.86192 -8.95125
105 1 9.4347 1.68366e-15 6.28939 -8.95005
106 1 11.0071 1.57182 7.86206 -8.94954
107 1 12.5795 1.18274e-15 6.28958 -8.95024
108 1 14.1521 1.57205 7.86206 -8.94938
109 1 15.7244 1.11397e-15 6.28966 -8.94951
110 1 17.2968 1.57227 7.86209 -8.94962
111 1 18.8691 2.42744e-16 6.28967 -8.94961
112 1 20.4415 1.57235 7.86209 -8.94963
113 1 22.0137 3.14465 6.2896 -8.94953
114 1 1.57146 4.71664 7.86186 -8.94928
115 1 3.14409 3.14408 6.28928 -8.94937
116 1 4.7146 4.71438 7.86092 -8.94787
117 1 6.28856 3.14211 6.28845 -8.95136
118 1 7.85998 4.70984 7.86065 -8.95876
119 1 9.43487 3.14273 6.28886 -8.9502
120 1 11.0068 4.71531 7.86194 -8.95171
121 1 12.5797 3.14302 6.2894 -8.95217
122 1 14.1525 4.71622 7.86248 -8.9485
123 1 15.7245 3.14438 6.28978 -8.94948
124 1 17.2972 4.7167 7.86209 -8.9492
125 1 18.8692 3.14467 6.28966 -8.94951
126 1 20.4414 4.71701 7.86204 -8.94959
127 1 -0.000600733 6.28942 6.28945 -8.95011
128 1 1.57032 7.86185 7.8618 -8.95182
129 1 3.14145 6.28797 6.28787 -8.95021
130 1 4.70699 7.85792 7.85857 -8.95616
131 1 6.2785 6.27861 6.2787 -8.93022
132 1 7.82241 7.82643 7.82819 -8.85349
133 1 9.43444 6.28233 6.28555 -8.95092
134 1 11.0219 7.85435 7.83936 -8.90604
135 1 12.5848 6.28027 6.28412 -8.95362
136 1 14.1552 7.86132 7.86465 -8.9523
137 1 15.7258 6.28855 6.28988 -8.95133
138 1 17.298 7.86153 7.86266 -8.94961
139 1 18.8695 6.28938 6.28972 -8.94969
140 1 20.4415 7.8619 7.8621 -8.94993
141 1 22.0138 9.43455 6.28944 -8.94984
142 1 3.14338 9.43515 6.28904 -8.94971
143 1 6.28583 9.43648 6.28721 -8.95188
144 1 9.42188 9.41268 6.28159 -8.90563
145 1 12.6189 9.40186 6.25413 -8.85508
146 1 15.7332 9.4323 6.28672 -8.95782
147 1 18.8709 9.43432 6.28948 -8.95151
148 1 -8.46168e-05 5.60479e-16 9.43452 -8.94963
149 1 3.1445 8.59198e-17 9.43451 -8.94958
150 1 6.28918 2.98107e-16 9.4344 -8.95018
151 1 9.43474 1.20454e-15 9.43443 -8.94899
152 1 12.5797 1.33897e-15 9.4344 -8.94945
153 1 15.7244 1.71687e-15 9.43453 -8.94968
154 1 18.8691 8.66894e-16 9.43453 -8.94962
155 1 -0.000220125 3.14463 9.43451 -8.94959
156 1 3.144 3.14402 9.43446 -8.94957
157 1 6.28795 3.14156 9.43421 -8.94932
158 1 9.43469 3.14334 9.43434 -8.94674
159 1 12.5801 3.14398 9.43416 -8.94828
177 1 4.71663 1.57164 11.0071 -8.94945
181 1 17.2968 1.57226 11.007 -8.94959
184 1 4.71451 4.71433 11.0078 -8.94822
11 1 15.7242 1.92555e-15 -3.57937e-05 -8.94963
25 1 15.7243 3.14465 -0.00010925 -8.94969
41 1 18.8692 6.28959 -0.00012264 -8.94963
44 1 3.1446 9.4345 -9.76422e-05 -8.94953
176 1 1.57217 1.57223 11.007 -8.94959
343 1 18.8693 9.43449 18.8692 -8.94959
178 1 7.8619 1.57075 11.0069 -8.95135
179 1 11.0073 1.57149 11.0067 -8.94982
180 1 14.1521 1.57211 11.0069 -8.94937
342 1 15.7249 9.43431 18.8699 -8.94938
182 1 20.4415 1.57235 11.007 -8.94963
341 1 12.5798 9.43433 18.871 -8.9516
340 1 9.43505 9.43372 18.8712 -8.94798
185 1 7.85924 4.70844 11.0072 -8.95724
186 1 11.0078 4.71356 11.0058 -8.95081
187 1 14.1524 4.71654 11.0062 -8.94919
339 1 6.28848 9.43367 18.8712 -8.94892
338 1 3.14446 9.43452 18.8693 -8.94972
337 1 22.0138 9.43452 18.8692 -8.9496
336 1 20.4415 7.86209 20.4415 -8.94963
192 1 7.82052 7.82445 11.0374 -8.90501
193 1 11.0258 7.85028 11.0225 -8.93629
194 1 14.1551 7.86181 11.0045 -8.95498
195 1 17.298 7.86159 11.0064 -8.94971
196 1 20.4415 7.86188 11.0069 -8.94995
197 1 22.0138 -2.75695e-17 12.5794 -8.94963
198 1 1.57219 1.57225 14.1519 -8.94961
199 1 3.14452 3.9063e-16 12.5795 -8.94951
200 1 4.71669 1.57166 14.1523 -8.94994
201 1 6.28937 2.53756e-16 12.5796 -8.95044
202 1 7.86194 1.57149 14.1524 -8.94965
203 1 9.43469 -2.90893e-16 12.5796 -8.9509
204 1 11.0073 1.57145 14.1524 -8.94981
205 1 12.5796 9.44296e-16 12.5794 -8.95015
206 1 14.1522 1.5718 14.152 -8.95027
207 1 15.7244 1.55985e-15 12.5794 -8.94955
208 1 17.2967 1.57231 14.1518 -8.94968
209 1 18.8691 1.00865e-15 12.5794 -8.9496
210 1 20.4415 1.57236 14.1518 -8.9496
211 1 22.0137 3.14464 12.5794 -8.94955
212 1 1.57142 4.71664 14.1523 -8.94963
213 1 3.14403 3.14401 12.5797 -8.94934
214 1 4.71395 4.71389 14.1548 -8.94515
215 1 6.28845 3.14175 12.5805 -8.95129
216 1 7.86083 4.71342 14.1542 -8.94772
217 1 9.43487 3.14087 12.5801 -8.95312
218 1 11.0083 4.71307 14.1543 -8.94734
219 1 12.5799 3.1428 12.5796 -8.95169
220 1 14.1539 4.71386 14.1536 -8.95
221 1 15.7245 3.14442 12.5792 -8.94962
222 1 17.2972 4.71675 14.1519 -8.95019
223 1 18.8692 3.14466 12.5794 -8.94951
224 1 20.4414 4.71707 14.1519 -8.94974
225 1 22.0132 6.28936 12.5796 -8.95001
226 1 1.57148 7.86194 14.1522 -8.94989
227 1 3.14135 6.28788 12.5808 -8.95019
228 1 4.7141 7.8609 14.1534 -8.95004
229 1 6.27841 6.27757 12.59 -8.93137
230 1 7.8549 7.85486 14.1629 -9.00454
231 1 9.43494 6.27181 12.5828 -8.96464
232 1 11.0115 7.85347 14.1638 -8.98169
233 1 12.5846 6.28021 12.5845 -8.95314
234 1 14.1631 7.85176 14.1623 -8.93273
235 1 15.7258 6.28856 12.5791 -8.95116
236 1 17.2997 7.8607 14.1531 -8.95083
237 1 18.8695 6.28936 12.5793 -8.94969
238 1 20.4419 7.86189 14.152 -8.95014
239 1 22.0136 9.43454 12.5796 -8.95004
240 1 3.14256 9.43489 12.58 -8.95076
241 1 6.2823 9.43218 12.5806 -8.98632
242 1 9.44354 9.36183 12.5848 -9.16699
243 1 12.6151 9.40342 12.6151 -8.90586
244 1 15.7327 9.43239 12.5822 -8.95674
245 1 18.8708 9.43432 12.5795 -8.95137
246 1 -7.06308e-05 2.33466e-16 15.7243 -8.94964
247 1 1.57222 1.57229 17.2968 -8.94935
248 1 3.14456 6.45467e-16 15.7245 -8.94959
249 1 4.71709 1.57217 17.2969 -8.94968
250 1 6.28953 1.41229e-15 15.7245 -8.94964
251 1 7.86206 1.57218 17.2969 -8.94955
252 1 9.43455 1.58209e-15 15.7246 -8.94956
253 1 11.007 1.57218 17.2969 -8.94958
254 1 12.5796 6.59041e-16 15.7246 -8.94961
255 1 14.152 1.57216 17.2969 -8.9495
256 1 15.7244 4.46848e-16 15.7244 -8.94983
257 1 17.2968 1.57223 17.2968 -8.94955
258 1 18.8691 6.38006e-16 15.7242 -8.94968
259 1 20.4415 1.57236 17.2967 -8.94964
260 1 -0.000220718 3.14467 15.7244 -8.94958
261 1 1.57217 4.71709 17.2969 -8.9497
262 1 3.14401 3.14404 15.725 -8.94848
263 1 4.71638 4.71623 17.2979 -8.94946
264 1 6.2892 3.14373 15.7251 -8.94966
265 1 7.86192 4.71645 17.2977 -8.94912
266 1 9.4345 3.14376 15.725 -8.94933
267 1 11.007 4.7164 17.2976 -8.94973
268 1 12.5799 3.14362 15.7251 -8.9491
269 1 14.1524 4.71629 17.2976 -8.9492
270 1 15.7249 3.14388 15.7248 -8.94951
271 1 17.2974 4.71653 17.2973 -8.94855
272 1 18.8692 3.14467 15.7243 -8.94978
273 1 20.4416 4.7171 17.2968 -8.94958
274 1 22.0138 6.28953 15.7244 -8.94974
275 1 1.57202 7.86202 17.2969 -8.94984
276 1 3.14381 6.2892 15.725 -8.94979
277 1 4.71566 7.86093 17.2984 -8.94775
278 1 6.287 6.2865 15.7283 -8.95057
279 1 7.86189 7.86163 17.2993 -8.9524
280 1 9.434 6.28699 15.7267 -8.94838
281 1 11.0074 7.86055 17.3002 -8.95075
282 1 12.5814 6.28661 15.7278 -8.94731
283 1 14.1535 7.86062 17.2997 -8.95072
284 1 15.7274 6.2867 15.7271 -8.94534
285 1 17.2975 7.86173 17.2974 -8.94943
286 1 18.8699 6.28916 15.7247 -8.94971
287 1 20.4416 7.86203 17.2968 -8.94961
288 1 -0.000145837 9.4345 15.7245 -8.94968
289 1 3.14373 9.43456 15.7247 -8.95076
290 1 6.28519 9.43041 15.7293 -8.98008
291 1 9.437 9.43217 15.728 -9.00214
292 1 12.5833 9.43267 15.7332 -8.9574
293 1 15.7271 9.43359 15.7268 -8.94829
294 1 18.8699 9.43436 15.7247 -8.94945
295 1 22.0139 1.79298e-15 18.8691 -8.94951
296 1 1.57235 1.57235 20.4415 -8.94954
297 1 3.14477 1.04432e-15 18.8692 -8.94966
298 1 4.71724 1.57235 20.4415 -8.94963
299 1 6.28966 1.29931e-15 18.8692 -8.94961
300 1 7.86209 1.57233 20.4415 -8.94962
301 1 9.43453 1.58872e-15 18.8692 -8.94963
302 1 11.007 1.57233 20.4415 -8.94963
303 1 12.5794 1.30215e-15 18.8692 -8.94963
304 1 14.1518 1.57234 20.4415 -8.94963
305 1 15.7243 6.98046e-16 18.8691 -8.94958
306 1 17.2967 1.57236 20.4415 -8.94964
307 1 18.8691 1.23038e-15 18.8691 -8.94957
308 1 20.4415 1.57239 20.4415 -8.94952
309 1 22.0139 3.14478 18.8691 -8.94962
310 1 1.57231 4.71718 20.4416 -8.94954
311 1 3.14459 3.14456 18.8693 -8.9495
312 1 4.71706 4.71702 20.4416 -8.94993
313 1 6.28961 3.14458 18.8693 -8.94957
314 1 7.86201 4.71694 20.4416 -8.94953
315 1 9.43452 3.14453 18.8693 -8.94958
316 1 11.007 4.71692 20.4416 -8.94961
317 1 12.5794 3.14457 18.8693 -8.94965
318 1 14.1519 4.71696 20.4416 -8.94957
319 1 15.7244 3.14459 18.8693 -8.94956
320 1 17.2969 4.717 20.4415 -8.94954
321 1 18.8692 3.14468 18.8692 -8.94936
322 1 20.4415 4.71722 20.4415 -8.94965
323 1 -7.24925e-05 6.28963 18.8692 -8.94966
324 1 1.57229 7.86209 20.4415 -8.94966
325 1 3.14437 6.28935 18.8695 -8.94916
326 1 4.71676 7.86177 20.442 -8.94944
327 1 6.28937 6.28921 18.8699 -8.95061
328 1 7.86196 7.86184 20.4419 -8.95003
329 1 9.43437 6.28895 18.8699 -8.9495
330 1 11.0071 7.86154 20.442 -8.94998
331 1 12.5797 6.289 18.8701 -8.94957
332 1 14.1522 7.86175 20.4417 -8.95045
333 1 15.7249 6.28908 18.8698 -8.94976
334 1 17.2969 7.86198 20.4415 -8.9495
335 1 18.8693 6.28957 18.8692 -8.94963
5 1 6.28967 7.11106e-16 22.0139 -8.94961
9 1 12.5794 1.44106e-15 22.0138 -8.94962
47 1 12.5795 9.43441 22.0128 -8.95133
15 1 -1.27108e-05 3.14479 22.0139 -8.9496
19 1 6.28963 3.14466 22.0138 -8.94956
21 1 9.43451 3.14461 22.0138 -8.94959
46 1 9.4345 9.43438 22.0138 -8.94963
27 1 18.8692 3.14469 22.0138 -8.94935
31 1 3.14463 6.28959 22.0139 -8.94963
39 1 15.7247 6.28916 22.0133 -8.94988
45 1 6.28928 9.43444 22.014 -8.9497
43 1 -2.03244e-05 9.43452 22.0139 -8.94962
1 1 -4.21253e-05 1.71637e-15 22.0139 -8.94951
13 1 18.8691 2.01128e-15 22.0139 -8.94954
23 1 12.5794 3.14463 22.0138 -8.94958
49 1 18.8693 9.4345 22.0138 -8.94961
183 1 1.57143 4.71662 11.0071 -8.94934
344 1 1.57225 11.007 1.57222 -8.94963
345 1 4.71676 11.007 1.57187 -8.94957
346 1 7.86183 11.007 1.57212 -8.9492
347 1 11.0068 11.007 1.57134 -8.94694
348 1 14.1533 11.007 1.56968 -8.94942
349 1 17.2974 11.007 1.57176 -8.94955
350 1 20.4416 11.007 1.57225 -8.94959
688 3 10.2155 11.007 9.43049 2.30716
352 1 1.57228 14.1518 1.57226 -8.9495
511 1 18.8692 18.8693 9.43453 -8.94963
354 1 4.71691 14.1517 1.57205 -8.94971
510 1 15.7247 18.8696 9.43453 -8.94972
356 1 7.86177 14.1521 1.57071 -8.95203
509 1 12.5801 18.8699 9.43416 -8.94828
358 1 11.0067 14.1526 1.57042 -8.95027
508 1 9.43469 18.8706 9.43434 -8.94674
360 1 14.1529 14.1529 1.56981 -8.95133
361 1 15.7248 12.5796 -0.000618251 -8.94938
362 1 17.2973 14.1521 1.57178 -8.94941
538 1 17.2968 20.4416 11.007 -8.94959
364 1 20.4416 14.1519 1.57226 -8.94955
365 1 22.0139 15.7242 -3.81593e-05 -8.94962
366 1 1.57226 17.2967 1.57227 -8.94974
507 1 6.28795 18.8723 9.43421 -8.94932
368 1 4.71666 17.2972 1.57149 -8.94948
369 1 6.2894 15.7245 -0.000497171 -8.95031
370 1 7.86196 17.2972 1.57172 -8.94924
371 1 9.43436 15.7247 -0.000478923 -8.94954
372 1 11.007 17.2973 1.57175 -8.94946
373 1 12.5795 15.7247 -0.000424582 -8.94955
374 1 14.1521 17.2973 1.57181 -8.94972
506 1 3.144 18.8699 9.43446 -8.94957
376 1 17.2973 17.2973 1.57179 -8.94847
505 1 -0.000220125 18.8693 9.43451 -8.94959
378 1 20.4417 17.2968 1.57228 -8.94959
504 1 18.8696 15.7247 9.43452 -8.94959
380 1 1.57226 20.4416 1.57227 -8.94936
381 1 3.14467 18.8692 -0.000165975 -8.94956
382 1 4.71719 20.4416 1.57226 -8.9497
503 1 15.7258 15.7257 9.43452 -8.94727
384 1 7.86208 20.4416 1.57224 -8.94957
502 1 12.5792 15.7239 9.43304 -8.94345
386 1 11.007 20.4417 1.57223 -8.9496
534 1 4.71663 20.4423 11.0071 -8.94945
388 1 14.1518 20.4416 1.57227 -8.94956
501 1 9.42999 15.7227 9.43409 -9.00365
390 1 17.2968 20.4417 1.57226 -8.94952
500 1 6.28032 15.734 9.43369 -8.94302
392 1 20.4415 20.4415 1.57238 -8.94962
393 1 1.57185 11.007 4.71669 -8.94951
394 1 4.71576 11.007 4.71549 -8.94631
395 1 7.864 11.007 4.71731 -8.94898
396 1 11.0115 11.007 4.71933 -9.00237
397 1 14.1605 11.007 4.70884 -8.94256
398 1 17.2997 11.007 4.71575 -8.94905
399 1 20.442 11.007 4.71693 -8.94985
400 1 -1.30648e-05 12.5794 3.1446 -8.94958
401 1 1.57193 14.1517 4.71694 -8.94974
402 1 3.14428 12.5794 3.14426 -8.94907
403 1 4.71545 14.1519 4.7157 -8.95125
404 1 6.28917 12.5788 3.14381 -8.94939
405 1 7.8571 14.1569 4.70782 -8.95374
406 1 9.43489 12.5794 3.14284 -8.95138
407 1 11.0074 14.1559 4.70968 -8.95089
408 1 12.5816 12.5805 3.13762 -8.95878
409 1 14.1629 14.1624 4.70641 -8.93021
410 1 15.7266 12.5803 3.14241 -8.94793
411 1 17.2997 14.1532 4.71588 -8.95073
412 1 18.8699 12.5795 3.14433 -8.94936
413 1 20.442 14.152 4.71702 -8.95006
414 1 22.0139 15.7243 3.14467 -8.94977
415 1 1.57149 17.2972 4.71667 -8.94951
416 1 3.14422 15.7244 3.14425 -8.95016
417 1 4.71427 17.2996 4.7142 -8.94488
418 1 6.28774 15.7261 3.14144 -8.94998
419 1 7.86159 17.2989 4.71549 -8.94927
420 1 9.43417 15.7259 3.14255 -8.94793
421 1 11.0073 17.2989 4.71558 -8.94796
422 1 12.58 15.726 3.14251 -8.9493
423 1 14.1538 17.3001 4.71535 -8.94989
424 1 15.7272 15.7272 3.14197 -8.94486
425 1 17.2972 17.2971 4.71717 -8.95021
426 1 18.8699 15.7247 3.14435 -8.94965
427 1 20.4414 17.2968 4.71717 -8.94975
428 1 22.0137 18.8692 3.14469 -8.94954
429 1 1.57222 20.4416 4.71715 -8.94961
430 1 3.14414 18.8697 3.14412 -8.94848
431 1 4.71678 20.4421 4.71674 -8.9499
432 1 6.28946 18.8697 3.14424 -8.94974
433 1 7.8621 20.4421 4.71685 -8.94958
434 1 9.43452 18.8698 3.14424 -8.94945
435 1 11.0071 20.4421 4.71682 -8.94956
436 1 12.5795 18.8698 3.14432 -8.94925
437 1 14.1521 20.4421 4.71702 -8.95037
438 1 15.7248 18.87 3.14425 -8.94944
439 1 17.2967 20.4416 4.71726 -8.94965
440 1 18.8692 18.8692 3.14478 -8.94978
441 1 20.4415 20.4415 4.71724 -8.9496
442 1 1.57169 11.007 7.86165 -8.94784
443 1 4.7184 11.007 7.86192 -8.94015
444 1 7.88208 11.007 7.86101 -8.91146
445 1 11.0869 11.007 7.63376 -8.11438
446 1 14.1613 11.007 7.85531 -8.9725
447 1 17.2993 11.007 7.86252 -8.95137
448 1 20.4419 11.007 7.86213 -8.94973
449 1 22.0138 12.5793 6.28944 -8.94984
450 1 1.57032 14.152 7.8618 -8.95182
451 1 3.14338 12.5788 6.28904 -8.94971
452 1 4.70699 14.156 7.85857 -8.95616
453 1 6.28583 12.5774 6.28721 -8.95188
454 1 7.82241 14.1875 7.82819 -8.85349
455 1 9.42188 12.6012 6.28159 -8.90563
456 1 11.0219 14.1595 7.83936 -8.90604
457 1 12.6189 12.612 6.25413 -8.85508
458 1 14.1552 14.1526 7.86465 -8.9523
459 1 15.7332 12.5816 6.28672 -8.95782
460 1 17.298 14.1524 7.86266 -8.94961
461 1 18.8709 12.5796 6.28948 -8.95151
462 1 20.4415 14.152 7.8621 -8.94993
463 1 -0.000600733 15.7245 6.28945 -8.95011
464 1 1.57146 17.2973 7.86186 -8.94928
465 1 3.14145 15.7259 6.28787 -8.95021
466 1 4.7146 17.2995 7.86092 -8.94787
467 1 6.2785 15.7353 6.2787 -8.93022
468 1 7.85998 17.3041 7.86065 -8.95876
469 1 9.43444 15.7316 6.28555 -8.95092
470 1 11.0068 17.2986 7.86194 -8.95171
471 1 12.5848 15.7336 6.28412 -8.95362
472 1 14.1525 17.2977 7.86248 -8.9485
473 1 15.7258 15.7254 6.28988 -8.95133
474 1 17.2972 17.2972 7.86209 -8.9492
475 1 18.8695 15.7245 6.28972 -8.94969
476 1 20.4414 17.2969 7.86204 -8.94959
477 1 22.0137 18.8692 6.2896 -8.94953
478 1 1.57217 20.4417 7.86205 -8.9496
479 1 3.14409 18.8698 6.28928 -8.94937
480 1 4.71662 20.4423 7.86182 -8.94937
481 1 6.28856 18.8718 6.28845 -8.95136
482 1 7.86205 20.4428 7.86192 -8.95125
483 1 9.43487 18.8712 6.28886 -8.9502
484 1 11.0071 20.4421 7.86206 -8.94954
485 1 12.5797 18.8709 6.2894 -8.95217
486 1 14.1521 20.4419 7.86206 -8.94938
487 1 15.7245 18.8695 6.28978 -8.94948
488 1 17.2968 20.4416 7.86209 -8.94962
489 1 18.8692 18.8692 6.28966 -8.94951
490 1 20.4415 20.4415 7.86209 -8.94963
491 1 -0.000645777 12.5793 9.4345 -8.94983
492 1 3.14162 12.5789 9.43452 -8.95289
493 1 6.27644 12.5908 9.4305 -9.00489
494 1 9.35703 12.8126 9.43168 -8.16712
495 1 12.5604 12.5704 9.43347 -8.90191
496 1 15.7233 12.5793 9.43444 -8.94058
497 1 18.8696 12.5797 9.43451 -8.94819
498 1 22.0132 15.7246 9.43447 -8.94985
499 1 3.14132 15.7261 9.43426 -8.94867
512 1 1.57162 11.007 11.0073 -8.94742
514 1 7.85827 11.007 10.9474 -9.17101
519 1 1.57011 14.1522 11.0071 -8.95171
520 1 4.70673 14.156 11.0087 -8.95665
532 1 20.4414 17.2969 11.007 -8.94958
527 1 4.71451 17.2996 11.0078 -8.94822
531 1 17.2972 17.2972 11.007 -8.94911
518 1 20.4419 11.007 11.0069 -8.94965
353 1 3.1446 12.5794 -9.76422e-05 -8.94953
389 1 15.7243 18.8692 -0.00010925 -8.94969
377 1 18.8692 15.7243 -0.00012264 -8.94963
687 2 8.66334 11.007 12.5746 0.764132
513 1 4.71916 11.007 11.008 -8.99319
686 1 20.4415 20.4415 20.4415 -8.94952
515 1 11.0894 11.007 11.2348 -8.14861
516 1 14.1606 11.007 11.0136 -8.97401
517 1 17.2991 11.007 11.0065 -8.95142
391 1 18.8692 18.8692 22.0138 -8.94935
685 1 18.8692 18.8692 18.8692 -8.94936
684 1 17.2967 20.4415 20.4415 -8.94964
521 1 7.82052 14.1895 11.0374 -8.90501
522 1 11.0258 14.1636 11.0225 -8.93629
523 1 14.1551 14.1521 11.0045 -8.95498
524 1 17.298 14.1523 11.0064 -8.94971
525 1 20.4415 14.152 11.0069 -8.94995
683 1 15.7244 18.8693 18.8693 -8.94956
682 1 14.1518 20.4416 20.4415 -8.94963
528 1 7.85924 17.3055 11.0072 -8.95724
529 1 11.0078 17.3003 11.0058 -8.95081
530 1 14.1524 17.2974 11.0062 -8.94919
681 1 12.5794 18.8693 18.8693 -8.94965
680 1 11.007 20.4416 20.4415 -8.94963
533 1 1.57217 20.4417 11.007 -8.94959
679 1 9.43452 18.8694 18.8693 -8.94958
535 1 7.8619 20.4431 11.0069 -8.95135
536 1 11.0073 20.4424 11.0067 -8.94982
537 1 14.1521 20.4418 11.0069 -8.94937
678 1 7.86209 20.4416 20.4415 -8.94962
539 1 20.4415 20.4416 11.007 -8.94963
540 1 1.57173 11.007 14.1523 -8.94873
541 1 4.71702 11.007 14.1523 -8.99765
542 1 7.84299 11.007 14.2002 -9.20752
543 1 11.0158 11.007 14.1568 -9.03512
544 1 14.1609 11.007 14.1602 -8.94464
545 1 17.2998 11.007 14.1532 -8.94927
546 1 20.442 11.007 14.1521 -8.94981
547 1 22.0136 12.5794 12.5796 -8.95004
548 1 1.57148 14.152 14.1522 -8.94989
549 1 3.14256 12.579 12.58 -8.95076
550 1 4.7141 14.153 14.1534 -8.95004
551 1 6.2823 12.5817 12.5806 -8.98632
552 1 7.8549 14.159 14.1629 -9.00454
553 1 9.44354 12.6521 12.5848 -9.16699
554 1 11.0115 14.1604 14.1638 -8.98169
555 1 12.6151 12.6105 12.6151 -8.90586
556 1 14.1631 14.1621 14.1623 -8.93273
557 1 15.7327 12.5815 12.5822 -8.95674
558 1 17.2997 14.1532 14.1531 -8.95083
559 1 18.8708 12.5796 12.5795 -8.95137
560 1 20.4419 14.152 14.152 -8.95014
561 1 22.0132 15.7245 12.5796 -8.95001
562 1 1.57142 17.2973 14.1523 -8.94963
563 1 3.14135 15.726 12.5808 -8.95019
564 1 4.71395 17.3 14.1548 -8.94515
565 1 6.27841 15.7363 12.59 -8.93137
566 1 7.86083 17.3005 14.1542 -8.94772
567 1 9.43494 15.7421 12.5828 -8.96464
568 1 11.0083 17.3008 14.1543 -8.94734
569 1 12.5846 15.7337 12.5845 -8.95314
570 1 14.1539 17.3 14.1536 -8.95
571 1 15.7258 15.7253 12.5791 -8.95116
572 1 17.2972 17.2972 14.1519 -8.95019
573 1 18.8695 15.7245 12.5793 -8.94969
574 1 20.4414 17.2968 14.1519 -8.94974
575 1 22.0137 18.8693 12.5794 -8.94955
576 1 1.57219 20.4417 14.1519 -8.94961
577 1 3.14403 18.8699 12.5797 -8.94934
578 1 4.71669 20.4422 14.1523 -8.94994
579 1 6.28845 18.8722 12.5805 -8.95129
580 1 7.86194 20.4424 14.1524 -8.94965
581 1 9.43487 18.873 12.5801 -8.95312
582 1 11.0073 20.4425 14.1524 -8.94981
583 1 12.5799 18.8711 12.5796 -8.95169
584 1 14.1522 20.4421 14.152 -8.95027
585 1 15.7245 18.8695 12.5792 -8.94962
586 1 17.2967 20.4416 14.1518 -8.94968
587 1 18.8692 18.8692 12.5794 -8.94951
588 1 20.4415 20.4415 14.1518 -8.9496
589 1 1.57209 11.007 17.297 -8.94941
590 1 4.71668 11.007 17.2976 -8.94941
591 1 7.86146 11.007 17.3071 -8.96342
592 1 11.0069 11.007 17.2996 -8.94897
593 1 14.1537 11.007 17.2999 -8.94874
594 1 17.2975 11.007 17.2974 -8.94951
595 1 20.4416 11.007 17.2969 -8.9496
596 1 -0.000145837 12.5794 15.7245 -8.94968
597 1 1.57202 14.1519 17.2969 -8.94984
598 1 3.14373 12.5793 15.7247 -8.95076
599 1 4.71566 14.153 17.2984 -8.94775
600 1 6.28519 12.5835 15.7293 -8.98008
601 1 7.86189 14.1523 17.2993 -8.9524
602 1 9.437 12.5817 15.728 -9.00214
603 1 11.0074 14.1534 17.3002 -8.95075
604 1 12.5833 12.5812 15.7332 -8.9574
605 1 14.1535 14.1533 17.2997 -8.95072
606 1 15.7271 12.5803 15.7268 -8.94829
607 1 17.2975 14.1522 17.2974 -8.94943
608 1 18.8699 12.5795 15.7247 -8.94945
609 1 20.4416 14.1519 17.2968 -8.94961
610 1 22.0138 15.7244 15.7244 -8.94974
611 1 1.57217 17.2968 17.2969 -8.9497
612 1 3.14381 15.7247 15.725 -8.94979
613 1 4.71638 17.2977 17.2979 -8.94946
614 1 6.287 15.7274 15.7283 -8.95057
615 1 7.86192 17.2975 17.2977 -8.94912
616 1 9.434 15.7269 15.7267 -8.94838
617 1 11.007 17.2975 17.2976 -8.94973
618 1 12.5814 15.7273 15.7278 -8.94731
619 1 14.1524 17.2976 17.2976 -8.9492
620 1 15.7274 15.7272 15.7271 -8.94534
621 1 17.2974 17.2974 17.2973 -8.94855
622 1 18.8699 15.7247 15.7247 -8.94971
623 1 20.4416 17.2968 17.2968 -8.94958
624 1 -0.000220718 18.8692 15.7244 -8.94958
625 1 1.57222 20.4416 17.2968 -8.94935
626 1 3.14401 18.8699 15.725 -8.94848
627 1 4.71709 20.4417 17.2969 -8.94968
628 1 6.2892 18.8702 15.7251 -8.94966
629 1 7.86206 20.4417 17.2969 -8.94955
630 1 9.4345 18.8701 15.725 -8.94933
631 1 11.007 20.4417 17.2969 -8.94958
632 1 12.5799 18.8703 15.7251 -8.9491
633 1 14.152 20.4417 17.2969 -8.9495
634 1 15.7249 18.87 15.7248 -8.94951
635 1 17.2968 20.4417 17.2968 -8.94955
636 1 18.8692 18.8692 15.7243 -8.94978
637 1 20.4415 20.4415 17.2967 -8.94964
638 1 1.57229 11.007 20.4415 -8.94962
639 1 4.71687 11.007 20.4418 -8.94931
640 1 7.86188 11.007 20.4433 -8.95218
641 1 11.0069 11.007 20.442 -8.94915
642 1 14.1524 11.007 20.4417 -8.95004
643 1 17.297 11.007 20.4415 -8.94955
644 1 20.4415 11.007 20.4415 -8.94963
645 1 22.0138 12.5794 18.8692 -8.9496
646 1 1.57229 14.1518 20.4415 -8.94966
647 1 3.14446 12.5794 18.8693 -8.94972
648 1 4.71676 14.1521 20.442 -8.94944
649 1 6.28848 12.5802 18.8712 -8.94892
650 1 7.86196 14.1521 20.4419 -8.95003
651 1 9.43505 12.5802 18.8712 -8.94798
652 1 11.0071 14.1524 20.442 -8.94998
653 1 12.5798 12.5796 18.871 -8.9516
654 1 14.1522 14.1522 20.4417 -8.95045
655 1 15.7249 12.5796 18.8699 -8.94938
656 1 17.2969 14.1519 20.4415 -8.9495
657 1 18.8693 12.5794 18.8692 -8.94959
658 1 20.4415 14.1518 20.4415 -8.94963
659 1 -7.24925e-05 15.7243 18.8692 -8.94966
660 1 1.57231 17.2967 20.4416 -8.94954
661 1 3.14437 15.7246 18.8695 -8.94916
662 1 4.71706 17.2969 20.4416 -8.94993
663 1 6.28937 15.7247 18.8699 -8.95061
664 1 7.86201 17.297 20.4416 -8.94953
665 1 9.43437 15.725 18.8699 -8.9495
666 1 11.007 17.297 20.4416 -8.94961
667 1 12.5797 15.7249 18.8701 -8.94957
668 1 14.1519 17.2969 20.4416 -8.94957
669 1 15.7249 15.7248 18.8698 -8.94976
670 1 17.2969 17.2969 20.4415 -8.94954
671 1 18.8693 15.7243 18.8692 -8.94963
672 1 20.4415 17.2967 20.4415 -8.94965
673 1 22.0139 18.8691 18.8691 -8.94962
674 1 1.57235 20.4416 20.4415 -8.94954
675 1 3.14459 18.8693 18.8693 -8.9495
676 1 4.71724 20.4415 20.4415 -8.94963
677 1 6.28961 18.8693 18.8693 -8.94957
351 1 -2.03244e-05 12.5794 22.0139 -8.94962
385 1 9.43451 18.8693 22.0138 -8.94959
355 1 6.28928 12.5795 22.014 -8.9497
357 1 9.4345 12.5795 22.0138 -8.94963
359 1 12.5795 12.5795 22.0128 -8.95133
367 1 3.14463 15.7243 22.0139 -8.94963
375 1 15.7247 15.7247 22.0133 -8.94988
383 1 6.28963 18.8692 22.0138 -8.94956
379 1 -1.27108e-05 18.8691 22.0139 -8.9496
363 1 18.8693 12.5794 22.0138 -8.94961
387 1 12.5794 18.8693 22.0138 -8.94958
526 1 1.57143 17.2973 11.0071 -8.94934
