ITEM: TIMESTEP
53
ITEM: NUMBER OF ATOMS
688
ITEM: BOX BOUNDS pp pp pp
0.0000000000000000e+00 2.2013900999999997e+01
0.0000000000000000e+00 2.2013900999999997e+01
0.0000000000000000e+00 2.2013900999999997e+01
ITEM: ATOMS id type x y z c_pot
191 1 4.71511 7.86113 11.007 -8.95128
2 1 1.57242 1.57242 1.57242 -8.94963
3 1 3.14484 9.50781e-16 4.6496e-08 -8.94963
4 1 4.71726 1.57242 1.57242 -8.94964
175 1 18.8691 9.43449 9.43453 -8.94963
6 1 7.86211 1.57242 1.57242 -8.94963
7 1 9.43453 1.29467e-15 1.54284e-08 -8.94963
8 1 11.007 1.57242 1.57242 -8.94963
174 1 15.725 9.43403 9.4345 -8.94715
10 1 14.1518 1.57242 1.57242 -8.94963
173 1 12.579 9.43323 9.43399 -8.90366
12 1 17.2966 1.57242 1.57242 -8.94963
190 1 1.57225 7.86206 11.0069 -8.95003
14 1 20.4415 1.57242 1.57242 -8.94963
172 1 9.35802 9.25191 9.43376 -8.11515
16 1 1.57242 4.71726 1.57242 -8.94964
17 1 3.14484 3.14484 -7.98185e-07 -8.94963
18 1 4.71726 4.71726 1.57241 -8.94962
171 1 6.28056 9.43069 9.43357 -9.00167
20 1 7.86211 4.71726 1.57242 -8.94963
170 1 3.14421 9.43465 9.43463 -8.95206
22 1 11.007 4.71726 1.57242 -8.94965
189 1 20.4415 4.71726 11.007 -8.94963
24 1 14.1518 4.71727 1.57242 -8.94971
169 1 -2.67882e-05 9.43453 9.43453 -8.94978
26 1 17.2966 4.71726 1.57241 -8.94957
168 1 18.8691 6.28968 9.43453 -8.94962
28 1 20.4415 4.71726 1.57242 -8.94963
29 1 22.0139 6.28969 -1.18216e-07 -8.94963
30 1 1.57242 7.86211 1.57242 -8.94964
167 1 15.7243 6.28959 9.43454 -8.94923
32 1 4.71726 7.86211 1.57242 -8.94965
33 1 6.28968 6.28968 -1.38148e-05 -8.94965
34 1 7.86206 7.86206 1.57229 -8.94985
35 1 9.43453 6.28968 -5.78153e-06 -8.94964
36 1 11.0069 7.86207 1.57234 -8.94961
37 1 12.5794 6.28968 1.95991e-06 -8.94962
38 1 14.1519 7.86202 1.57225 -8.94974
166 1 12.5793 6.28938 9.43439 -8.94996
40 1 17.2966 7.86211 1.57242 -8.94969
165 1 9.43373 6.28251 9.43463 -8.98604
42 1 20.4415 7.86211 1.57242 -8.94963
164 1 6.28865 6.28843 9.43446 -8.94966
163 1 3.14468 6.28959 9.43447 -8.9493
162 1 22.0139 6.28968 9.43453 -8.94963
161 1 18.8691 3.14484 9.43453 -8.94964
160 1 15.7242 3.14483 9.43453 -8.94963
48 1 15.7242 9.43453 -1.94253e-06 -8.94962
188 1 17.2966 4.71726 11.007 -8.94964
50 1 5.23966e-08 4.24483e-16 3.14484 -8.94963
51 1 1.57242 1.57242 4.71726 -8.94964
52 1 3.14484 2.82344e-16 3.14484 -8.94963
53 1 4.71726 1.57241 4.71726 -8.94962
54 1 6.28969 7.26972e-16 3.14484 -8.94964
55 1 7.86211 1.57242 4.71726 -8.94963
56 1 9.43453 3.98075e-16 3.14484 -8.94964
57 1 11.007 1.57242 4.71726 -8.94963
58 1 12.5794 8.69691e-16 3.14484 -8.94963
59 1 14.1518 1.57241 4.71726 -8.94965
60 1 15.7242 1.3127e-15 3.14484 -8.94963
61 1 17.2966 1.57242 4.71726 -8.94963
62 1 18.8691 -5.3246e-17 3.14484 -8.94963
63 1 20.4415 1.57242 4.71726 -8.94963
64 1 22.0139 3.14484 3.14484 -8.94963
65 1 1.57241 4.71726 4.71726 -8.94962
66 1 3.14483 3.14483 3.14483 -8.94957
67 1 4.71712 4.71712 4.71712 -8.94882
68 1 6.28969 3.14485 3.14485 -8.94971
69 1 7.86213 4.71725 4.71725 -8.95002
70 1 9.43453 3.14484 3.14484 -8.94965
71 1 11.0069 4.71719 4.71719 -8.94947
72 1 12.5794 3.14484 3.14484 -8.94963
73 1 14.1519 4.71709 4.71718 -8.94968
74 1 15.7242 3.14483 3.14484 -8.94962
75 1 17.2966 4.71726 4.71726 -8.94969
76 1 18.8691 3.14484 3.14484 -8.94964
77 1 20.4415 4.71726 4.71726 -8.94963
78 1 22.0139 6.28969 3.14484 -8.94964
79 1 1.57242 7.86211 4.71726 -8.94964
80 1 3.14484 6.28969 3.14484 -8.94969
81 1 4.7172 7.86208 4.71721 -8.94993
82 1 6.2896 6.2896 3.14467 -8.94968
83 1 7.86146 7.86149 4.71564 -8.95175
84 1 9.43453 6.28961 3.14477 -8.94947
85 1 11.0066 7.86174 4.71638 -8.95131
86 1 12.5793 6.28967 3.14483 -8.95001
87 1 14.1536 7.86029 4.71548 -8.94131
88 1 15.7244 6.28954 3.1447 -8.94881
89 1 17.2968 7.86204 4.71719 -8.94977
90 1 18.8691 6.28968 3.14484 -8.94963
91 1 20.4415 7.8621 4.71726 -8.94966
92 1 2.12325e-07 9.43453 3.14484 -8.94963
93 1 3.14484 9.43453 3.14484 -8.94965
94 1 6.28963 9.43456 3.14476 -8.94978
95 1 9.43415 9.43414 3.14411 -8.94898
96 1 12.5799 9.43404 3.14327 -8.95237
97 1 15.7243 9.43452 3.14481 -8.94981
98 1 18.8691 9.43453 3.14484 -8.94962
99 1 22.0139 3.4138e-16 6.28969 -8.94963
100 1 1.57242 1.57242 7.86211 -8.94963
101 1 3.14484 -4.26801e-16 6.28969 -8.94963
102 1 4.71726 1.57242 7.86211 -8.94962
103 1 6.28968 1.11037e-15 6.28968 -8.94968
104 1 7.86208 1.57231 7.86208 -8.94995
105 1 9.43453 1.07777e-15 6.28968 -8.94964
106 1 11.007 1.57236 7.86208 -8.9497
107 1 12.5794 3.96992e-16 6.28968 -8.94967
108 1 14.1518 1.57242 7.86211 -8.94964
109 1 15.7242 3.88212e-16 6.28969 -8.94963
110 1 17.2966 1.57242 7.86211 -8.94963
111 1 18.8691 1.16439e-16 6.28969 -8.94963
112 1 20.4415 1.57242 7.86211 -8.94963
113 1 22.0139 3.14484 6.28969 -8.94963
114 1 1.57242 4.71726 7.8621 -8.9496
115 1 3.14484 3.14485 6.28969 -8.94969
116 1 4.71722 4.71722 7.86209 -8.9498
117 1 6.2896 3.14467 6.2896 -8.94975
118 1 7.86162 4.7157 7.86161 -8.95238
119 1 9.43456 3.14476 6.28965 -8.9496
120 1 11.0073 4.71655 7.86173 -8.94912
121 1 12.5794 3.14471 6.28964 -8.94987
122 1 14.1518 4.71719 7.86214 -8.94971
123 1 15.7242 3.14484 6.28969 -8.94965
124 1 17.2966 4.71726 7.86211 -8.94965
125 1 18.8691 3.14484 6.28969 -8.94963
126 1 20.4415 4.71726 7.86211 -8.94963
127 1 -8.01065e-06 6.28968 6.28968 -8.94966
128 1 1.57233 7.8621 7.8621 -8.95002
129 1 3.14468 6.28961 6.2896 -8.94971
130 1 4.7156 7.86154 7.86154 -8.95191
131 1 6.28792 6.28791 6.28788 -8.94143
132 1 7.84541 7.84654 7.84626 -8.87628
133 1 9.43485 6.28882 6.28934 -8.95136
134 1 11.0124 7.8588 7.85539 -8.92539
135 1 12.58 6.28804 6.28905 -8.95172
136 1 14.1528 7.8615 7.86236 -8.94933
137 1 15.7243 6.28965 6.28968 -8.94995
138 1 17.2968 7.86204 7.86211 -8.94958
139 1 18.8691 6.28968 6.28968 -8.94962
140 1 20.4415 7.8621 7.86211 -8.94966
141 1 22.0139 9.43453 6.28968 -8.94966
142 1 3.14473 9.43456 6.28965 -8.94971
143 1 6.28858 9.43465 6.28893 -8.94902
144 1 9.42941 9.42792 6.28628 -8.92497
145 1 12.5961 9.41864 6.27398 -8.87631
146 1 15.7257 9.43411 6.28926 -8.95263
147 1 18.8692 9.43451 6.28967 -8.94995
148 1 3.73643e-08 8.97982e-16 9.43453 -8.94963
149 1 3.14484 -1.78054e-16 9.43453 -8.94964
150 1 6.28968 -7.65241e-16 9.43453 -8.94965
151 1 9.43453 4.39825e-16 9.43453 -8.95
152 1 12.5794 4.00707e-17 9.43453 -8.94963
153 1 15.7242 1.83457e-15 9.43453 -8.94964
154 1 18.8691 9.20615e-16 9.43453 -8.94963
155 1 4.19437e-07 3.14484 9.43453 -8.94964
156 1 3.14484 3.14484 9.43453 -8.94968
157 1 6.28961 3.1447 9.43451 -8.94947
158 1 9.43457 3.14405 9.43454 -8.95136
159 1 12.5794 3.14479 9.43451 -8.94951
177 1 4.71726 1.57242 11.007 -8.94964
181 1 17.2966 1.57242 11.007 -8.94963
184 1 4.71719 4.71717 11.0069 -8.94993
11 1 15.7242 1.40008e-15 7.64013e-08 -8.94963
25 1 15.7242 3.14484 3.71819e-07 -8.94964
41 1 18.8691 6.28969 3.54691e-07 -8.94964
44 1 3.14484 9.43453 -3.07218e-06 -8.94963
176 1 1.57242 1.57242 11.007 -8.94963
343 1 18.8691 9.43453 18.8691 -8.94963
178 1 7.86207 1.57229 11.007 -8.94995
179 1 11.007 1.57234 11.007 -8.9497
180 1 14.1518 1.57242 11.0069 -8.94965
342 1 15.7242 9.43453 18.8691 -8.94964
182 1 20.4415 1.57242 11.007 -8.94963
341 1 12.5794 9.43449 18.8692 -8.95007
340 1 9.43466 9.43433 18.8693 -8.9489
185 1 7.86145 4.71549 11.0073 -8.95158
186 1 11.0075 4.71635 11.0072 -8.94846
187 1 14.1518 4.71723 11.0069 -8.94988
339 1 6.28951 9.43436 18.8693 -8.94916
338 1 3.14486 9.43455 18.869 -8.94975
337 1 22.0139 9.43453 18.8691 -8.94963
336 1 20.4415 7.86211 20.4415 -8.94963
192 1 7.84419 7.84616 11.0222 -8.92932
193 1 11.0139 7.85795 11.0111 -8.95864
194 1 14.1527 7.86166 11.0068 -8.95042
195 1 17.2968 7.86205 11.007 -8.94959
196 1 20.4415 7.8621 11.007 -8.94968
197 1 22.0139 2.5466e-16 12.5794 -8.94963
198 1 1.57242 1.57242 14.1518 -8.94964
199 1 3.14484 3.5437e-16 12.5794 -8.94963
200 1 4.71726 1.57241 14.1518 -8.94964
201 1 6.28968 -5.17684e-16 12.5794 -8.94969
202 1 7.8621 1.5724 14.1518 -8.94963
203 1 9.43453 -1.22369e-16 12.5794 -8.9498
204 1 11.007 1.5724 14.1518 -8.94964
205 1 12.5794 -3.47002e-16 12.5794 -8.94965
206 1 14.1518 1.57241 14.1518 -8.94965
207 1 15.7242 1.24314e-15 12.5794 -8.94964
208 1 17.2966 1.57242 14.1518 -8.94963
209 1 18.8691 1.42045e-15 12.5794 -8.94963
210 1 20.4415 1.57242 14.1518 -8.94963
211 1 22.0139 3.14484 12.5794 -8.94964
212 1 1.57241 4.71726 14.1518 -8.94965
213 1 3.14484 3.14484 12.5794 -8.94968
214 1 4.71709 4.71707 14.152 -8.94893
215 1 6.28961 3.14465 12.5795 -8.94985
216 1 7.86197 4.71705 14.152 -8.94923
217 1 9.43456 3.14446 12.5794 -8.95087
218 1 11.0071 4.71699 14.152 -8.94896
219 1 12.5794 3.14473 12.5794 -8.94978
220 1 14.1519 4.71712 14.1519 -8.94979
221 1 15.7242 3.14484 12.5794 -8.94965
222 1 17.2966 4.71727 14.1518 -8.94969
223 1 18.8691 3.14484 12.5794 -8.94963
224 1 20.4415 4.71726 14.1518 -8.94963
225 1 22.0139 6.28968 12.5794 -8.94964
226 1 1.57235 7.86208 14.1518 -8.9497
227 1 3.14467 6.2896 12.5794 -8.94967
228 1 4.71659 7.86155 14.1522 -8.94865
229 1 6.28784 6.28751 12.5812 -8.94261
230 1 7.86022 7.86119 14.154 -9.00476
231 1 9.43487 6.28436 12.5797 -8.96236
232 1 11.0083 7.86073 14.155 -8.98449
233 1 12.5798 6.28834 12.58 -8.95238
234 1 14.1536 7.8604 14.1535 -8.94216
235 1 15.7242 6.28965 12.5794 -8.94988
236 1 17.2968 7.86204 14.1519 -8.94977
237 1 18.8691 6.28968 12.5794 -8.94962
238 1 20.4415 7.8621 14.1518 -8.94967
239 1 22.0139 9.43454 12.5794 -8.94983
240 1 3.14419 9.43448 12.5794 -8.95095
241 1 6.28353 9.4307 12.5799 -8.98333
242 1 9.45014 9.38629 12.5822 -9.19735
243 1 12.595 9.41974 12.5952 -8.92597
244 1 15.7257 9.43409 12.5798 -8.95214
245 1 18.8692 9.43451 12.5794 -8.94993
246 1 8.73024e-08 -3.30792e-16 15.7242 -8.94963
247 1 1.57242 1.57242 17.2966 -8.94963
248 1 3.14484 -2.33607e-16 15.7242 -8.94963
249 1 4.71726 1.57242 17.2966 -8.94964
250 1 6.28969 1.10611e-15 15.7242 -8.94964
251 1 7.86211 1.57242 17.2966 -8.94964
252 1 9.43453 1.68825e-15 15.7242 -8.94963
253 1 11.0069 1.57242 17.2966 -8.94964
254 1 12.5794 2.73629e-16 15.7242 -8.94963
255 1 14.1518 1.57242 17.2966 -8.94963
256 1 15.7242 1.72392e-16 15.7242 -8.94963
257 1 17.2966 1.57242 17.2966 -8.94963
258 1 18.8691 -1.54064e-16 15.7242 -8.94963
259 1 20.4415 1.57242 17.2966 -8.94963
260 1 -6.18289e-07 3.14484 15.7242 -8.94963
261 1 1.57242 4.71726 17.2966 -8.94962
262 1 3.14483 3.14483 15.7242 -8.94957
263 1 4.71725 4.71725 17.2967 -8.94961
264 1 6.28968 3.14482 15.7242 -8.94969
265 1 7.86212 4.71727 17.2966 -8.94963
266 1 9.43453 3.14485 15.7242 -8.94964
267 1 11.0069 4.71727 17.2966 -8.94977
268 1 12.5794 3.14482 15.7242 -8.94959
269 1 14.1518 4.71726 17.2966 -8.94965
270 1 15.7242 3.14483 15.7242 -8.94963
271 1 17.2966 4.71726 17.2966 -8.94958
272 1 18.8691 3.14484 15.7242 -8.94964
273 1 20.4415 4.71726 17.2966 -8.94963
274 1 22.0139 6.28968 15.7242 -8.94963
275 1 1.57243 7.86212 17.2966 -8.94971
276 1 3.14479 6.28965 15.7243 -8.94949
277 1 4.71712 7.86197 17.2968 -8.94894
278 1 6.28953 6.28938 15.7245 -8.95
279 1 7.86213 7.86216 17.2967 -8.95049
280 1 9.43447 6.28964 15.7242 -8.95013
281 1 11.007 7.862 17.2969 -8.94993
282 1 12.5795 6.28952 15.7244 -8.94932
283 1 14.1519 7.86196 17.2969 -8.9495
284 1 15.7243 6.28955 15.7243 -8.9489
285 1 17.2966 7.86211 17.2966 -8.94969
286 1 18.8691 6.28968 15.7242 -8.94963
287 1 20.4415 7.86211 17.2966 -8.94963
288 1 7.58066e-06 9.43453 15.7242 -8.94963
289 1 3.14485 9.43462 15.7241 -8.95037
290 1 6.28797 9.43221 15.7253 -8.98311
291 1 9.43536 9.43352 15.7252 -9.00176
292 1 12.5805 9.43364 15.7264 -8.95081
293 1 15.7243 9.4345 15.7243 -8.94989
294 1 18.8691 9.43453 15.7242 -8.94964
295 1 22.0139 5.44645e-16 18.8691 -8.94963
296 1 1.57242 1.57242 20.4415 -8.94963
297 1 3.14484 -3.10827e-16 18.8691 -8.94963
298 1 4.71726 1.57242 20.4415 -8.94963
299 1 6.28969 9.10921e-16 18.8691 -8.94963
300 1 7.86211 1.57242 20.4415 -8.94963
301 1 9.43453 1.62846e-15 18.8691 -8.94963
302 1 11.007 1.57242 20.4415 -8.94963
303 1 12.5794 1.7851e-15 18.8691 -8.94963
304 1 14.1518 1.57242 20.4415 -8.94963
305 1 15.7242 -1.13679e-16 18.8691 -8.94963
306 1 17.2966 1.57242 20.4415 -8.94963
307 1 18.8691 8.3013e-16 18.8691 -8.94963
308 1 20.4415 1.57242 20.4415 -8.94963
309 1 22.0139 3.14484 18.8691 -8.94963
310 1 1.57242 4.71726 20.4415 -8.94963
311 1 3.14484 3.14484 18.8691 -8.94963
312 1 4.71726 4.71726 20.4415 -8.94964
313 1 6.28969 3.14484 18.8691 -8.94964
314 1 7.86211 4.71726 20.4415 -8.94963
315 1 9.43453 3.14484 18.8691 -8.94963
316 1 11.007 4.71726 20.4415 -8.94964
317 1 12.5794 3.14484 18.8691 -8.94964
318 1 14.1518 4.71727 20.4415 -8.94964
319 1 15.7242 3.14484 18.8691 -8.94964
320 1 17.2966 4.71726 20.4415 -8.94962
321 1 18.8691 3.14484 18.8691 -8.94963
322 1 20.4415 4.71726 20.4415 -8.94963
323 1 1.0222e-06 6.28969 18.8691 -8.94964
324 1 1.57242 7.86211 20.4415 -8.94965
325 1 3.14484 6.28968 18.8691 -8.94958
326 1 4.71725 7.86209 20.4415 -8.94959
327 1 6.28969 6.28968 18.8691 -8.94977
328 1 7.8621 7.86211 20.4415 -8.94965
329 1 9.43452 6.28967 18.8691 -8.94964
330 1 11.007 7.86209 20.4415 -8.94962
331 1 12.5794 6.28968 18.8691 -8.94962
332 1 14.1518 7.8621 20.4415 -8.94968
333 1 15.7242 6.28967 18.8691 -8.9496
334 1 17.2966 7.86211 20.4415 -8.94964
335 1 18.8691 6.28969 18.8691 -8.94964
5 1 6.28969 9.21277e-16 22.0139 -8.94963
9 1 12.5794 1.07097e-15 22.0139 -8.94963
47 1 12.5794 9.4345 22.0138 -8.94997
15 1 5.7585e-08 3.14484 22.0139 -8.94963
19 1 6.28969 3.14484 22.0139 -8.94963
21 1 9.43453 3.14484 22.0139 -8.94963
46 1 9.43451 9.43449 22.0139 -8.94969
27 1 18.8691 3.14484 22.0139 -8.94963
31 1 3.14484 6.28969 22.0139 -8.94963
39 1 15.7242 6.28968 22.0139 -8.94962
45 1 6.28967 9.43452 22.0139 -8.94966
43 1 -1.39594e-07 9.43453 22.0139 -8.94963
1 1 -2.57602e-08 9.925e-16 22.0139 -8.94963
13 1 18.8691 8.44578e-16 22.0139 -8.94963
23 1 12.5794 3.14484 22.0139 -8.94963
49 1 18.8691 9.43453 22.0139 -8.94963
183 1 1.57242 4.71726 11.007 -8.94965
344 1 1.57242 11.007 1.57242 -8.94964
345 1 4.71726 11.007 1.57241 -8.9496
346 1 7.8621 11.007 1.57239 -8.94971
347 1 11.0069 11.007 1.57162 -8.9514
348 1 14.1519 11.007 1.5723 -8.9495
349 1 17.2966 11.007 1.57242 -8.94967
350 1 20.4415 11.007 1.57242 -8.94963
688 3 10.2198 11.007 9.43494 2.61817
352 1 1.57242 14.1518 1.57242 -8.94964
511 1 18.8691 18.8691 9.43453 -8.94964
354 1 4.71726 14.1518 1.57242 -8.94965
510 1 15.7242 18.8691 9.43453 -8.94963
356 1 7.86206 14.1518 1.57229 -8.94985
509 1 12.5794 18.8691 9.43451 -8.94951
358 1 11.0069 14.1518 1.57234 -8.94961
508 1 9.43457 18.8699 9.43454 -8.95136
360 1 14.1519 14.1519 1.57225 -8.94974
361 1 15.7242 12.5794 -1.94253e-06 -8.94962
362 1 17.2966 14.1518 1.57242 -8.94969
538 1 17.2966 20.4415 11.007 -8.94963
364 1 20.4415 14.1518 1.57242 -8.94963
365 1 22.0139 15.7242 -1.18216e-07 -8.94963
366 1 1.57242 17.2966 1.57242 -8.94964
507 1 6.28961 18.8692 9.43451 -8.94947
368 1 4.71726 17.2966 1.57241 -8.94962
369 1 6.28968 15.7242 -1.38148e-05 -8.94965
370 1 7.86211 17.2966 1.57242 -8.94963
371 1 9.43453 15.7242 -5.78153e-06 -8.94964
372 1 11.007 17.2966 1.57242 -8.94965
373 1 12.5794 15.7242 1.95991e-06 -8.94962
374 1 14.1518 17.2966 1.57242 -8.94971
506 1 3.14484 18.8691 9.43453 -8.94968
376 1 17.2966 17.2966 1.57241 -8.94957
505 1 4.19437e-07 18.8691 9.43453 -8.94964
378 1 20.4415 17.2966 1.57242 -8.94963
504 1 18.8691 15.7242 9.43453 -8.94962
380 1 1.57242 20.4415 1.57242 -8.94963
381 1 3.14484 18.8691 -7.98185e-07 -8.94963
382 1 4.71726 20.4415 1.57242 -8.94964
503 1 15.7243 15.7243 9.43454 -8.94923
384 1 7.86211 20.4415 1.57242 -8.94963
502 1 12.5793 15.7245 9.43439 -8.94996
386 1 11.007 20.4415 1.57242 -8.94963
534 1 4.71726 20.4415 11.007 -8.94964
388 1 14.1518 20.4415 1.57242 -8.94963
501 1 9.43373 15.7314 9.43463 -8.98604
390 1 17.2966 20.4415 1.57242 -8.94963
500 1 6.28865 15.7255 9.43446 -8.94966
392 1 20.4415 20.4415 1.57242 -8.94963
393 1 1.57241 11.007 4.71726 -8.94962
394 1 4.7172 11.007 4.71719 -8.94906
395 1 7.86229 11.007 4.71681 -8.95188
396 1 11.0077 11.007 4.70998 -8.9853
397 1 14.1528 11.007 4.71622 -8.94935
398 1 17.2967 11.007 4.71721 -8.94951
399 1 20.4415 11.007 4.71726 -8.94964
400 1 2.12325e-07 12.5794 3.14484 -8.94963
401 1 1.57242 14.1518 4.71726 -8.94964
402 1 3.14484 12.5794 3.14484 -8.94965
403 1 4.7172 14.1518 4.71721 -8.94993
404 1 6.28963 12.5793 3.14476 -8.94978
405 1 7.86146 14.1524 4.71564 -8.95175
406 1 9.43415 12.5798 3.14411 -8.94898
407 1 11.0066 14.1522 4.71638 -8.95131
408 1 12.5799 12.5799 3.14327 -8.95237
409 1 14.1536 14.1536 4.71548 -8.94131
410 1 15.7243 12.5794 3.14481 -8.94981
411 1 17.2968 14.1519 4.71719 -8.94977
412 1 18.8691 12.5794 3.14484 -8.94962
413 1 20.4415 14.1518 4.71726 -8.94966
414 1 22.0139 15.7242 3.14484 -8.94964
415 1 1.57241 17.2966 4.71726 -8.94962
416 1 3.14484 15.7242 3.14484 -8.94969
417 1 4.71712 17.2968 4.71712 -8.94882
418 1 6.2896 15.7243 3.14467 -8.94968
419 1 7.86213 17.2967 4.71725 -8.95002
420 1 9.43453 15.7243 3.14477 -8.94947
421 1 11.0069 17.2967 4.71719 -8.94947
422 1 12.5793 15.7242 3.14483 -8.95001
423 1 14.1519 17.2968 4.71718 -8.94968
424 1 15.7244 15.7244 3.1447 -8.94881
425 1 17.2966 17.2966 4.71726 -8.94969
426 1 18.8691 15.7242 3.14484 -8.94963
427 1 20.4415 17.2966 4.71726 -8.94963
428 1 22.0139 18.8691 3.14484 -8.94963
429 1 1.57242 20.4415 4.71726 -8.94964
430 1 3.14483 18.8691 3.14483 -8.94957
431 1 4.71726 20.4415 4.71726 -8.94962
432 1 6.28969 18.8691 3.14485 -8.94971
433 1 7.86211 20.4415 4.71726 -8.94963
434 1 9.43453 18.8691 3.14484 -8.94965
435 1 11.007 20.4415 4.71726 -8.94963
436 1 12.5794 18.8691 3.14484 -8.94963
437 1 14.1518 20.4415 4.71726 -8.94965
438 1 15.7242 18.8691 3.14484 -8.94962
439 1 17.2966 20.4415 4.71726 -8.94963
440 1 18.8691 18.8691 3.14484 -8.94964
441 1 20.4415 20.4415 4.71726 -8.94963
442 1 1.57235 11.007 7.86207 -8.94953
443 1 4.71682 11.007 7.86192 -8.94773
444 1 7.86302 11.007 7.85677 -8.91503
445 1 11.0846 11.007 7.68079 -8.066
446 1 14.1593 11.007 7.86058 -8.9676
447 1 17.2973 11.007 7.86214 -8.95137
448 1 20.4415 11.007 7.86211 -8.94978
449 1 22.0139 12.5794 6.28968 -8.94966
450 1 1.57233 14.1518 7.8621 -8.95002
451 1 3.14473 12.5793 6.28965 -8.94971
452 1 4.7156 14.1524 7.86154 -8.95191
453 1 6.28858 12.5793 6.28893 -8.94902
454 1 7.84541 14.1674 7.84626 -8.87628
455 1 9.42941 12.586 6.28628 -8.92497
456 1 11.0124 14.1551 7.85539 -8.92539
457 1 12.5961 12.5953 6.27398 -8.87631
458 1 14.1528 14.1524 7.86236 -8.94933
459 1 15.7257 12.5798 6.28926 -8.95263
460 1 17.2968 14.1519 7.86211 -8.94958
461 1 18.8692 12.5794 6.28967 -8.94995
462 1 20.4415 14.1518 7.86211 -8.94966
463 1 -8.01065e-06 15.7242 6.28968 -8.94966
464 1 1.57242 17.2966 7.8621 -8.9496
465 1 3.14468 15.7243 6.2896 -8.94971
466 1 4.71722 17.2967 7.86209 -8.9498
467 1 6.28792 15.726 6.28788 -8.94143
468 1 7.86162 17.2982 7.86161 -8.95238
469 1 9.43485 15.7251 6.28934 -8.95136
470 1 11.0073 17.2973 7.86173 -8.94912
471 1 12.58 15.7259 6.28905 -8.95172
472 1 14.1518 17.2967 7.86214 -8.94971
473 1 15.7243 15.7243 6.28968 -8.94995
474 1 17.2966 17.2966 7.86211 -8.94965
475 1 18.8691 15.7242 6.28968 -8.94962
476 1 20.4415 17.2966 7.86211 -8.94963
477 1 22.0139 18.8691 6.28969 -8.94963
478 1 1.57242 20.4415 7.86211 -8.94963
479 1 3.14484 18.8691 6.28969 -8.94969
480 1 4.71726 20.4415 7.86211 -8.94962
481 1 6.2896 18.8692 6.2896 -8.94975
482 1 7.86208 20.4416 7.86208 -8.94995
483 1 9.43456 18.8691 6.28965 -8.9496
484 1 11.007 20.4415 7.86208 -8.9497
485 1 12.5794 18.8692 6.28964 -8.94987
486 1 14.1518 20.4415 7.86211 -8.94964
487 1 15.7242 18.8691 6.28969 -8.94965
488 1 17.2966 20.4415 7.86211 -8.94963
489 1 18.8691 18.8691 6.28969 -8.94963
490 1 20.4415 20.4415 7.86211 -8.94963
491 1 -2.67882e-05 12.5794 9.43453 -8.94978
492 1 3.14421 12.5792 9.43463 -8.95206
493 1 6.28056 12.5832 9.43357 -9.00167
494 1 9.35802 12.762 9.43376 -8.11515
495 1 12.579 12.5807 9.43399 -8.90366
496 1 15.725 12.5799 9.4345 -8.94715
497 1 18.8691 12.5794 9.43453 -8.94963
498 1 22.0139 15.7242 9.43453 -8.94963
499 1 3.14468 15.7243 9.43447 -8.9493
512 1 1.57237 11.007 11.007 -8.94926
514 1 7.84183 11.007 10.9659 -9.18232
519 1 1.57225 14.1518 11.0069 -8.95003
520 1 4.71511 14.1528 11.007 -8.95128
532 1 20.4415 17.2966 11.007 -8.94963
527 1 4.71719 17.2967 11.0069 -8.94993
531 1 17.2966 17.2966 11.007 -8.94964
518 1 20.4415 11.007 11.0069 -8.94977
353 1 3.14484 12.5794 -3.07218e-06 -8.94963
389 1 15.7242 18.8691 3.71819e-07 -8.94964
377 1 18.8691 15.7242 3.54691e-07 -8.94964
687 2 8.6493 11.007 12.5787 0.847922
513 1 4.7171 11.007 11.0085 -8.99804
686 1 20.4415 20.4415 20.4415 -8.94963
515 1 11.0904 11.007 11.1837 -8.09026
516 1 14.1597 11.007 11.0084 -8.96873
517 1 17.2973 11.007 11.0069 -8.95154
391 1 18.8691 18.8691 22.0139 -8.94963
685 1 18.8691 18.8691 18.8691 -8.94963
684 1 17.2966 20.4415 20.4415 -8.94963
521 1 7.84419 14.1677 11.0222 -8.92932
522 1 11.0139 14.156 11.0111 -8.95864
523 1 14.1527 14.1522 11.0068 -8.95042
524 1 17.2968 14.1519 11.007 -8.94959
525 1 20.4415 14.1518 11.007 -8.94968
683 1 15.7242 18.8691 18.8691 -8.94964
682 1 14.1518 20.4415 20.4415 -8.94963
528 1 7.86145 17.2984 11.0073 -8.95158
529 1 11.0075 17.2976 11.0072 -8.94846
530 1 14.1518 17.2967 11.0069 -8.94988
681 1 12.5794 18.8691 18.8691 -8.94964
680 1 11.007 20.4415 20.4415 -8.94963
533 1 1.57242 20.4415 11.007 -8.94963
679 1 9.43453 18.8691 18.8691 -8.94963
535 1 7.86207 20.4416 11.007 -8.94995
536 1 11.007 20.4416 11.007 -8.9497
537 1 14.1518 20.4415 11.0069 -8.94965
678 1 7.86211 20.4415 20.4415 -8.94963
539 1 20.4415 20.4415 11.007 -8.94963
540 1 1.57245 11.007 14.1518 -8.94924
541 1 4.71781 11.007 14.1508 -8.99983
542 1 7.84199 11.007 14.1939 -9.22121
543 1 11.0131 11.007 14.1644 -9.01929
544 1 14.1533 11.007 14.1529 -8.95089
545 1 17.2968 11.007 14.1518 -8.94968
546 1 20.4415 11.007 14.1518 -8.94963
547 1 22.0139 12.5794 12.5794 -8.94983
548 1 1.57235 14.1518 14.1518 -8.9497
549 1 3.14419 12.5794 12.5794 -8.95095
550 1 4.71659 14.1524 14.1522 -8.94865
551 1 6.28353 12.5832 12.5799 -8.98333
552 1 7.86022 14.1527 14.154 -9.00476
553 1 9.45014 12.6276 12.5822 -9.19735
554 1 11.0083 14.1532 14.155 -8.98449
555 1 12.595 12.5942 12.5952 -8.92597
556 1 14.1536 14.1535 14.1535 -8.94216
557 1 15.7257 12.5798 12.5798 -8.95214
558 1 17.2968 14.1519 14.1519 -8.94977
559 1 18.8692 12.5794 12.5794 -8.94993
560 1 20.4415 14.1518 14.1518 -8.94967
561 1 22.0139 15.7242 12.5794 -8.94964
562 1 1.57241 17.2966 14.1518 -8.94965
563 1 3.14467 15.7243 12.5794 -8.94967
564 1 4.71709 17.2968 14.152 -8.94893
565 1 6.28784 15.7264 12.5812 -8.94261
566 1 7.86197 17.2969 14.152 -8.94923
567 1 9.43487 15.7295 12.5797 -8.96236
568 1 11.0071 17.2969 14.152 -8.94896
569 1 12.5798 15.7256 12.58 -8.95238
570 1 14.1519 17.2968 14.1519 -8.94979
571 1 15.7242 15.7243 12.5794 -8.94988
572 1 17.2966 17.2966 14.1518 -8.94969
573 1 18.8691 15.7242 12.5794 -8.94962
574 1 20.4415 17.2966 14.1518 -8.94963
575 1 22.0139 18.8691 12.5794 -8.94964
576 1 1.57242 20.4415 14.1518 -8.94964
577 1 3.14484 18.8691 12.5794 -8.94968
578 1 4.71726 20.4415 14.1518 -8.94964
579 1 6.28961 18.8693 12.5795 -8.94985
580 1 7.8621 20.4415 14.1518 -8.94963
581 1 9.43456 18.8694 12.5794 -8.95087
582 1 11.007 20.4415 14.1518 -8.94964
583 1 12.5794 18.8692 12.5794 -8.94978
584 1 14.1518 20.4415 14.1518 -8.94965
585 1 15.7242 18.8691 12.5794 -8.94965
586 1 17.2966 20.4415 14.1518 -8.94963
587 1 18.8691 18.8691 12.5794 -8.94963
588 1 20.4415 20.4415 14.1518 -8.94963
589 1 1.57243 11.007 17.2966 -8.94956
590 1 4.71749 11.007 17.2964 -8.95024
591 1 7.86209 11.007 17.3011 -8.96098
592 1 11.007 11.007 17.2979 -8.95297
593 1 14.1519 11.007 17.2968 -8.94941
594 1 17.2966 11.007 17.2966 -8.94966
595 1 20.4415 11.007 17.2966 -8.94963
596 1 7.58066e-06 12.5794 15.7242 -8.94963
597 1 1.57243 14.1518 17.2966 -8.94971
598 1 3.14485 12.5793 15.7241 -8.95037
599 1 4.71712 14.1519 17.2968 -8.94894
600 1 6.28797 12.5817 15.7253 -8.98311
601 1 7.86213 14.1517 17.2967 -8.95049
602 1 9.43536 12.5804 15.7252 -9.00176
603 1 11.007 14.1519 17.2969 -8.94993
604 1 12.5805 12.5803 15.7264 -8.95081
605 1 14.1519 14.1519 17.2969 -8.9495
606 1 15.7243 12.5794 15.7243 -8.94989
607 1 17.2966 14.1518 17.2966 -8.94969
608 1 18.8691 12.5794 15.7242 -8.94964
609 1 20.4415 14.1518 17.2966 -8.94963
610 1 22.0139 15.7242 15.7242 -8.94963
611 1 1.57242 17.2966 17.2966 -8.94962
612 1 3.14479 15.7243 15.7243 -8.94949
613 1 4.71725 17.2967 17.2967 -8.94961
614 1 6.28953 15.7245 15.7245 -8.95
615 1 7.86212 17.2966 17.2966 -8.94963
616 1 9.43447 15.7243 15.7242 -8.95013
617 1 11.0069 17.2966 17.2966 -8.94977
618 1 12.5795 15.7244 15.7244 -8.94932
619 1 14.1518 17.2966 17.2966 -8.94965
620 1 15.7243 15.7243 15.7243 -8.9489
621 1 17.2966 17.2966 17.2966 -8.94958
622 1 18.8691 15.7242 15.7242 -8.94963
623 1 20.4415 17.2966 17.2966 -8.94963
624 1 -6.18289e-07 18.8691 15.7242 -8.94963
625 1 1.57242 20.4415 17.2966 -8.94963
626 1 3.14483 18.8691 15.7242 -8.94957
627 1 4.71726 20.4415 17.2966 -8.94964
628 1 6.28968 18.8691 15.7242 -8.94969
629 1 7.86211 20.4415 17.2966 -8.94964
630 1 9.43453 18.8691 15.7242 -8.94964
631 1 11.0069 20.4415 17.2966 -8.94964
632 1 12.5794 18.8691 15.7242 -8.94959
633 1 14.1518 20.4415 17.2966 -8.94963
634 1 15.7242 18.8691 15.7242 -8.94963
635 1 17.2966 20.4415 17.2966 -8.94963
636 1 18.8691 18.8691 15.7242 -8.94964
637 1 20.4415 20.4415 17.2966 -8.94963
638 1 1.57242 11.007 20.4415 -8.94963
639 1 4.71727 11.007 20.4415 -8.94955
640 1 7.86211 11.007 20.4418 -8.95089
641 1 11.0069 11.007 20.4415 -8.95014
642 1 14.1518 11.007 20.4415 -8.94963
643 1 17.2966 11.007 20.4415 -8.94964
644 1 20.4415 11.007 20.4415 -8.94963
645 1 22.0139 12.5794 18.8691 -8.94963
646 1 1.57242 14.1518 20.4415 -8.94965
647 1 3.14486 12.5793 18.869 -8.94975
648 1 4.71725 14.1518 20.4415 -8.94959
649 1 6.28951 12.5795 18.8693 -8.94916
650 1 7.8621 14.1518 20.4415 -8.94965
651 1 9.43466 12.5796 18.8693 -8.9489
652 1 11.007 14.1518 20.4415 -8.94962
653 1 12.5794 12.5794 18.8692 -8.95007
654 1 14.1518 14.1518 20.4415 -8.94968
655 1 15.7242 12.5794 18.8691 -8.94964
656 1 17.2966 14.1518 20.4415 -8.94964
657 1 18.8691 12.5794 18.8691 -8.94963
658 1 20.4415 14.1518 20.4415 -8.94963
659 1 1.0222e-06 15.7242 18.8691 -8.94964
660 1 1.57242 17.2966 20.4415 -8.94963
661 1 3.14484 15.7242 18.8691 -8.94958
662 1 4.71726 17.2966 20.4415 -8.94964
663 1 6.28969 15.7242 18.8691 -8.94977
664 1 7.86211 17.2966 20.4415 -8.94963
665 1 9.43452 15.7242 18.8691 -8.94964
666 1 11.007 17.2966 20.4415 -8.94964
667 1 12.5794 15.7242 18.8691 -8.94962
668 1 14.1518 17.2966 20.4415 -8.94964
669 1 15.7242 15.7242 18.8691 -8.9496
670 1 17.2966 17.2966 20.4415 -8.94962
671 1 18.8691 15.7242 18.8691 -8.94964
672 1 20.4415 17.2966 20.4415 -8.94963
673 1 22.0139 18.8691 18.8691 -8.94963
674 1 1.57242 20.4415 20.4415 -8.94963
675 1 3.14484 18.8691 18.8691 -8.94963
676 1 4.71726 20.4415 20.4415 -8.94963
677 1 6.28969 18.8691 18.8691 -8.94964
351 1 -1.39594e-07 12.5794 22.0139 -8.94963
385 1 9.43453 18.8691 22.0139 -8.94963
355 1 6.28967 12.5794 22.0139 -8.94966
357 1 9.43451 12.5794 22.0139 -8.94969
359 1 12.5794 12.5794 22.0138 -8.94997
367 1 3.14484 15.7242 22.0139 -8.94963
375 1 15.7242 15.7242 22.0139 -8.94962
383 1 6.28969 18.8691 22.0139 -8.94963
379 1 5.7585e-08 18.8691 22.0139 -8.94963
363 1 18.8691 12.5794 22.0139 -8.94963
387 1 12.5794 18.8691 22.0139 -8.94963
526 1 1.57242 17.2966 11.007 -8.94965
