ITEM: TIMESTEP
49
ITEM: NUMBER OF ATOMS
688
ITEM: BOX BOUNDS pp pp pp
0.0000000000000000e+00 2.2013900999999997e+01
0.0000000000000000e+00 2.2013900999999997e+01
0.0000000000000000e+00 2.2013900999999997e+01
ITEM: ATOMS id type x y z c_pot
191 1 4.71621 7.86158 11.0069 -8.95026
2 1 1.57242 1.57242 1.57242 -8.94963
3 1 3.14484 6.08892e-16 1.08297e-08 -8.94963
4 1 4.71726 1.57242 1.57242 -8.94963
175 1 18.8691 9.43452 9.43453 -8.94968
6 1 7.86211 1.57242 1.57242 -8.94963
7 1 9.43453 1.03103e-15 1.48426e-10 -8.94963
8 1 11.007 1.57242 1.57242 -8.94963
174 1 15.7247 9.43426 9.43451 -8.94865
10 1 14.1518 1.57242 1.57242 -8.94963
173 1 12.5817 9.43166 9.43422 -8.90629
12 1 17.2966 1.57242 1.57242 -8.94963
190 1 1.57236 7.86209 11.0069 -8.94982
14 1 20.4415 1.57242 1.57242 -8.94963
172 1 9.36561 9.27796 9.43423 -8.09708
16 1 1.57242 4.71726 1.57242 -8.94963
17 1 3.14484 3.14484 -1.17706e-07 -8.94963
18 1 4.71726 4.71726 1.57242 -8.94963
171 1 6.28367 9.43234 9.43436 -9.00064
20 1 7.86211 4.71726 1.57242 -8.94964
170 1 3.1446 9.4346 9.4346 -8.95138
22 1 11.007 4.71726 1.57242 -8.94964
189 1 20.4415 4.71726 11.007 -8.94963
24 1 14.1518 4.71727 1.57242 -8.94967
169 1 -5.6569e-06 9.43453 9.43453 -8.9497
26 1 17.2966 4.71726 1.57242 -8.94961
168 1 18.8691 6.28969 9.43453 -8.94963
28 1 20.4415 4.71726 1.57242 -8.94963
29 1 22.0139 6.28969 -1.5495e-08 -8.94963
30 1 1.57242 7.86211 1.57242 -8.94963
167 1 15.7242 6.28968 9.43453 -8.94952
32 1 4.71726 7.86211 1.57242 -8.94964
33 1 6.28968 6.28968 -3.37304e-06 -8.94964
34 1 7.86209 7.86209 1.57238 -8.9497
35 1 9.43453 6.28969 -3.89099e-07 -8.94964
36 1 11.0069 7.8621 1.57241 -8.94963
37 1 12.5794 6.28969 1.71954e-06 -8.94963
38 1 14.1518 7.86208 1.57236 -8.94965
166 1 12.5793 6.28951 9.4345 -8.95086
40 1 17.2966 7.86211 1.57242 -8.94966
165 1 9.43418 6.28295 9.43461 -8.97925
42 1 20.4415 7.86211 1.57242 -8.94963
164 1 6.28936 6.28926 9.43451 -8.95088
163 1 3.1448 6.28965 9.4345 -8.94944
162 1 22.0139 6.28968 9.43453 -8.94963
161 1 18.8691 3.14484 9.43453 -8.94963
160 1 15.7242 3.14484 9.43453 -8.94962
48 1 15.7242 9.43453 9.77921e-07 -8.94963
188 1 17.2966 4.71727 11.0069 -8.94965
50 1 1.07493e-08 2.5806e-16 3.14484 -8.94963
51 1 1.57242 1.57242 4.71726 -8.94963
52 1 3.14484 2.80992e-16 3.14484 -8.94963
53 1 4.71726 1.57242 4.71726 -8.94963
54 1 6.28969 7.07194e-16 3.14484 -8.94963
55 1 7.86211 1.57242 4.71727 -8.94963
56 1 9.43453 1.75924e-16 3.14484 -8.94963
57 1 11.007 1.57242 4.71726 -8.94963
58 1 12.5794 5.03809e-16 3.14484 -8.94963
59 1 14.1518 1.57242 4.71726 -8.94963
60 1 15.7242 1.11181e-15 3.14484 -8.94963
61 1 17.2966 1.57242 4.71726 -8.94963
62 1 18.8691 1.56447e-16 3.14484 -8.94963
63 1 20.4415 1.57242 4.71726 -8.94963
64 1 22.0139 3.14484 3.14484 -8.94963
65 1 1.57242 4.71726 4.71726 -8.94963
66 1 3.14484 3.14484 3.14484 -8.94961
67 1 4.71722 4.71722 4.71722 -8.94928
68 1 6.28969 3.14485 3.14485 -8.94967
69 1 7.86212 4.71728 4.71728 -8.94993
70 1 9.43453 3.14484 3.14484 -8.94964
71 1 11.0069 4.71725 4.71725 -8.94961
72 1 12.5794 3.14484 3.14484 -8.94964
73 1 14.1518 4.71721 4.71724 -8.94965
74 1 15.7242 3.14484 3.14484 -8.94963
75 1 17.2966 4.71727 4.71726 -8.94966
76 1 18.8691 3.14484 3.14484 -8.94963
77 1 20.4415 4.71726 4.71726 -8.94963
78 1 22.0139 6.28969 3.14484 -8.94963
79 1 1.57242 7.86211 4.71726 -8.94963
80 1 3.14484 6.28969 3.14484 -8.94965
81 1 4.71725 7.86209 4.71725 -8.94979
82 1 6.28966 6.28966 3.14479 -8.94965
83 1 7.86183 7.86185 4.71654 -8.95095
84 1 9.43454 6.28967 3.14483 -8.94961
85 1 11.0068 7.86204 4.71697 -8.9514
86 1 12.5794 6.2897 3.14486 -8.94993
87 1 14.1526 7.86132 4.71649 -8.94459
88 1 15.7243 6.28964 3.1448 -8.94928
89 1 17.2967 7.86209 4.71724 -8.94969
90 1 18.8691 6.28968 3.14484 -8.94963
91 1 20.4415 7.86211 4.71726 -8.94964
92 1 8.91613e-08 9.43453 3.14484 -8.94963
93 1 3.14485 9.43453 3.14485 -8.94965
94 1 6.28967 9.43454 3.14482 -8.94975
95 1 9.43429 9.43429 3.14446 -8.94891
96 1 12.5797 9.43425 3.14409 -8.95102
97 1 15.7242 9.43453 3.14485 -8.94985
98 1 18.8691 9.43453 3.14484 -8.94963
99 1 22.0139 3.09028e-16 6.28969 -8.94963
100 1 1.57242 1.57242 7.86211 -8.94963
101 1 3.14484 -1.94054e-16 6.28969 -8.94963
102 1 4.71726 1.57242 7.86211 -8.94963
103 1 6.28968 8.76816e-16 6.28968 -8.94965
104 1 7.8621 1.57238 7.8621 -8.94977
105 1 9.43453 9.37357e-16 6.28969 -8.94963
106 1 11.007 1.5724 7.8621 -8.94966
107 1 12.5794 2.43531e-16 6.28968 -8.94964
108 1 14.1518 1.57242 7.86211 -8.94964
109 1 15.7242 2.62389e-16 6.28969 -8.94963
110 1 17.2966 1.57242 7.86211 -8.94963
111 1 18.8691 1.35738e-16 6.28969 -8.94963
112 1 20.4415 1.57242 7.86211 -8.94963
113 1 22.0139 3.14484 6.28969 -8.94963
114 1 1.57242 4.71726 7.86211 -8.94962
115 1 3.14484 3.14485 6.28969 -8.94966
116 1 4.71727 4.71727 7.86211 -8.94984
117 1 6.28966 3.14479 6.28966 -8.94965
118 1 7.86183 4.71652 7.86183 -8.95102
119 1 9.43454 3.14483 6.28968 -8.94962
120 1 11.0072 4.71689 7.86187 -8.94899
121 1 12.5794 3.1448 6.28967 -8.94971
122 1 14.1518 4.71724 7.86212 -8.94974
123 1 15.7242 3.14484 6.28969 -8.94964
124 1 17.2966 4.71727 7.86211 -8.94965
125 1 18.8691 3.14484 6.28969 -8.94963
126 1 20.4415 4.71726 7.86211 -8.94963
127 1 -1.50554e-06 6.28969 6.28969 -8.94964
128 1 1.5724 7.86211 7.86211 -8.94981
129 1 3.14479 6.28966 6.28966 -8.94968
130 1 4.71656 7.86189 7.86188 -8.95112
131 1 6.28892 6.28891 6.2889 -8.94466
132 1 7.85169 7.85231 7.85201 -8.88909
133 1 9.43468 6.2894 6.28963 -8.95143
134 1 11.0104 7.85991 7.85811 -8.93079
135 1 12.5797 6.28895 6.28942 -8.95093
136 1 14.1523 7.86174 7.86208 -8.94902
137 1 15.7242 6.28968 6.28967 -8.94981
138 1 17.2967 7.86208 7.8621 -8.94962
139 1 18.8691 6.28969 6.28969 -8.94963
140 1 20.4415 7.86211 7.86211 -8.94964
141 1 22.0139 9.43453 6.28968 -8.94964
142 1 3.1448 9.43453 6.28968 -8.9497
143 1 6.2891 9.43444 6.28929 -8.94871
144 1 9.43123 9.43055 6.28744 -8.93042
145 1 12.5898 9.42436 6.27979 -8.88872
146 1 15.7249 9.43434 6.2895 -8.95143
147 1 18.8691 9.43452 6.28968 -8.94977
148 1 8.76508e-09 7.92362e-16 9.43453 -8.94963
149 1 3.14484 -9.04298e-17 9.43453 -8.94963
150 1 6.28968 -6.56264e-16 9.43453 -8.94963
151 1 9.43453 1.6531e-16 9.43453 -8.94986
152 1 12.5794 6.47992e-17 9.43453 -8.94963
153 1 15.7242 1.65718e-15 9.43453 -8.94963
154 1 18.8691 5.38418e-16 9.43453 -8.94963
155 1 1.61512e-07 3.14484 9.43453 -8.94963
156 1 3.14484 3.14484 9.43453 -8.94965
157 1 6.28967 3.14481 9.43452 -8.94956
158 1 9.43454 3.14439 9.43453 -8.95138
159 1 12.5794 3.14483 9.43452 -8.94962
177 1 4.71726 1.57242 11.0069 -8.94964
181 1 17.2966 1.57242 11.007 -8.94963
184 1 4.71726 4.71725 11.0069 -8.94992
11 1 15.7242 9.90049e-16 1.60292e-08 -8.94963
25 1 15.7242 3.14484 1.1012e-07 -8.94964
41 1 18.8691 6.28969 1.205e-07 -8.94963
44 1 3.14484 9.43453 -8.7017e-07 -8.94963
176 1 1.57242 1.57242 11.007 -8.94963
343 1 18.8691 9.43453 18.8691 -8.94963
178 1 7.86209 1.57238 11.007 -8.94977
179 1 11.007 1.57239 11.007 -8.94966
180 1 14.1518 1.57242 11.007 -8.94965
342 1 15.7242 9.43453 18.8691 -8.94965
182 1 20.4415 1.57242 11.007 -8.94963
341 1 12.5794 9.43451 18.8691 -8.94984
340 1 9.43459 9.43444 18.8692 -8.94914
185 1 7.86176 4.71643 11.0071 -8.95049
186 1 11.0073 4.71682 11.0071 -8.94847
187 1 14.1518 4.71725 11.0069 -8.94982
339 1 6.28961 9.43445 18.8691 -8.94921
338 1 3.14485 9.43454 18.869 -8.9497
337 1 22.0139 9.43453 18.8691 -8.94963
336 1 20.4415 7.86211 20.4415 -8.94963
192 1 7.85086 7.85217 11.0168 -8.94254
193 1 11.0111 7.85979 11.0095 -8.96608
194 1 14.1523 7.86184 11.007 -8.94972
195 1 17.2967 7.86209 11.007 -8.94963
196 1 20.4415 7.86211 11.007 -8.94965
197 1 22.0139 2.88686e-16 12.5794 -8.94963
198 1 1.57242 1.57242 14.1518 -8.94963
199 1 3.14484 2.15155e-16 12.5794 -8.94963
200 1 4.71726 1.57242 14.1518 -8.94963
201 1 6.28968 -5.48305e-16 12.5794 -8.94965
202 1 7.86211 1.57242 14.1518 -8.94963
203 1 9.43453 -2.27276e-16 12.5794 -8.94971
204 1 11.007 1.57242 14.1518 -8.94963
205 1 12.5794 -1.65915e-16 12.5794 -8.94964
206 1 14.1518 1.57242 14.1518 -8.94964
207 1 15.7242 1.04973e-15 12.5794 -8.94963
208 1 17.2966 1.57242 14.1518 -8.94963
209 1 18.8691 1.09816e-15 12.5794 -8.94963
210 1 20.4415 1.57242 14.1518 -8.94963
211 1 22.0139 3.14484 12.5794 -8.94963
212 1 1.57242 4.71726 14.1518 -8.94965
213 1 3.14484 3.14484 12.5794 -8.94966
214 1 4.71721 4.7172 14.1518 -8.94935
215 1 6.28966 3.14478 12.5794 -8.94972
216 1 7.86204 4.7172 14.1519 -8.94942
217 1 9.43454 3.14469 12.5794 -8.95042
218 1 11.007 4.71719 14.1519 -8.94917
219 1 12.5794 3.14481 12.5794 -8.94967
220 1 14.1518 4.71722 14.1518 -8.94972
221 1 15.7242 3.14484 12.5794 -8.94964
222 1 17.2966 4.71727 14.1518 -8.94965
223 1 18.8691 3.14484 12.5794 -8.94963
224 1 20.4415 4.71726 14.1518 -8.94963
225 1 22.0139 6.28969 12.5794 -8.94963
226 1 1.57239 7.86209 14.1518 -8.94967
227 1 3.1448 6.28967 12.5794 -8.94968
228 1 4.71688 7.86176 14.152 -8.94866
229 1 6.28888 6.28867 12.5802 -8.94575
230 1 7.86101 7.86178 14.1528 -9.00466
231 1 9.43466 6.28661 12.5794 -8.96079
232 1 11.0076 7.86186 14.1534 -8.98662
233 1 12.5795 6.28917 12.5796 -8.95171
234 1 14.1525 7.8614 14.1525 -8.94513
235 1 15.7242 6.28968 12.5794 -8.94976
236 1 17.2967 7.86209 14.1518 -8.94968
237 1 18.8691 6.28969 12.5794 -8.94963
238 1 20.4415 7.86211 14.1518 -8.94965
239 1 22.0139 9.43453 12.5794 -8.94975
240 1 3.14447 9.43451 12.5794 -8.95097
241 1 6.28433 9.43093 12.5797 -8.98358
242 1 9.44923 9.39473 12.5814 -9.20874
243 1 12.5889 9.42527 12.5894 -8.9378
244 1 15.7248 9.43432 12.5796 -8.95104
245 1 18.8691 9.43452 12.5794 -8.94976
246 1 2.06085e-08 -5.65009e-16 15.7242 -8.94963
247 1 1.57242 1.57242 17.2966 -8.94963
248 1 3.14484 -1.54035e-16 15.7242 -8.94963
249 1 4.71726 1.57242 17.2966 -8.94963
250 1 6.28969 1.03206e-15 15.7242 -8.94963
251 1 7.86211 1.57242 17.2966 -8.94963
252 1 9.43453 1.52998e-15 15.7242 -8.94963
253 1 11.007 1.57242 17.2966 -8.94964
254 1 12.5794 4.69191e-16 15.7242 -8.94963
255 1 14.1518 1.57242 17.2966 -8.94963
256 1 15.7242 2.053e-16 15.7242 -8.94963
257 1 17.2966 1.57242 17.2966 -8.94963
258 1 18.8691 -1.85974e-16 15.7242 -8.94963
259 1 20.4415 1.57242 17.2966 -8.94963
260 1 -3.28497e-08 3.14484 15.7242 -8.94963
261 1 1.57242 4.71726 17.2966 -8.94962
262 1 3.14484 3.14484 15.7242 -8.94961
263 1 4.71726 4.71726 17.2966 -8.94962
264 1 6.28968 3.14484 15.7242 -8.94965
265 1 7.86211 4.71727 17.2966 -8.94964
266 1 9.43453 3.14485 15.7242 -8.94964
267 1 11.0069 4.71727 17.2966 -8.94971
268 1 12.5794 3.14484 15.7242 -8.94961
269 1 14.1518 4.71727 17.2966 -8.94966
270 1 15.7242 3.14484 15.7242 -8.94963
271 1 17.2966 4.71726 17.2966 -8.94962
272 1 18.8691 3.14484 15.7242 -8.94963
273 1 20.4415 4.71726 17.2966 -8.94963
274 1 22.0139 6.28968 15.7242 -8.94963
275 1 1.57243 7.86211 17.2966 -8.94968
276 1 3.14482 6.28967 15.7242 -8.94952
277 1 4.71724 7.86208 17.2967 -8.94934
278 1 6.28964 6.28958 15.7243 -8.94984
279 1 7.86212 7.86216 17.2966 -8.95031
280 1 9.43451 6.28972 15.7242 -8.95023
281 1 11.007 7.86208 17.2967 -8.94982
282 1 12.5794 6.28966 15.7242 -8.94964
283 1 14.1518 7.86205 17.2967 -8.9495
284 1 15.7243 6.28965 15.7243 -8.94933
285 1 17.2966 7.86211 17.2966 -8.94966
286 1 18.8691 6.28968 15.7242 -8.94963
287 1 20.4415 7.86211 17.2966 -8.94963
288 1 5.63057e-06 9.43453 15.7242 -8.94963
289 1 3.14489 9.4346 15.7241 -8.95014
290 1 6.28892 9.43318 15.7244 -8.98511
291 1 9.43511 9.43399 15.7247 -9.00255
292 1 12.58 9.43399 15.7253 -8.94971
293 1 15.7242 9.43452 15.7242 -8.94989
294 1 18.8691 9.43453 15.7242 -8.94964
295 1 22.0139 1.3347e-17 18.8691 -8.94963
296 1 1.57242 1.57242 20.4415 -8.94963
297 1 3.14484 -4.41123e-16 18.8691 -8.94963
298 1 4.71726 1.57242 20.4415 -8.94963
299 1 6.28969 8.70966e-16 18.8691 -8.94963
300 1 7.86211 1.57242 20.4415 -8.94963
301 1 9.43453 1.5222e-15 18.8691 -8.94963
302 1 11.007 1.57242 20.4415 -8.94963
303 1 12.5794 1.56091e-15 18.8691 -8.94963
304 1 14.1518 1.57242 20.4415 -8.94963
305 1 15.7242 -4.71717e-17 18.8691 -8.94963
306 1 17.2966 1.57242 20.4415 -8.94963
307 1 18.8691 5.01444e-16 18.8691 -8.94963
308 1 20.4415 1.57242 20.4415 -8.94963
309 1 22.0139 3.14484 18.8691 -8.94963
310 1 1.57242 4.71726 20.4415 -8.94963
311 1 3.14484 3.14484 18.8691 -8.94963
312 1 4.71726 4.71726 20.4415 -8.94964
313 1 6.28969 3.14484 18.8691 -8.94964
314 1 7.86211 4.71726 20.4415 -8.94963
315 1 9.43453 3.14484 18.8691 -8.94963
316 1 11.007 4.71726 20.4415 -8.94964
317 1 12.5794 3.14484 18.8691 -8.94963
318 1 14.1518 4.71726 20.4415 -8.94963
319 1 15.7242 3.14484 18.8691 -8.94964
320 1 17.2966 4.71726 20.4415 -8.94963
321 1 18.8691 3.14484 18.8691 -8.94963
322 1 20.4415 4.71726 20.4415 -8.94963
323 1 5.13938e-07 6.28969 18.8691 -8.94964
324 1 1.57242 7.86211 20.4415 -8.94964
325 1 3.14484 6.28969 18.8691 -8.94962
326 1 4.71726 7.8621 20.4415 -8.94961
327 1 6.28969 6.28969 18.8691 -8.9497
328 1 7.86211 7.86211 20.4415 -8.94964
329 1 9.43453 6.28968 18.8691 -8.94965
330 1 11.007 7.8621 20.4415 -8.94962
331 1 12.5794 6.28969 18.8691 -8.94963
332 1 14.1518 7.8621 20.4415 -8.94965
333 1 15.7242 6.28968 18.8691 -8.94961
334 1 17.2966 7.86211 20.4415 -8.94964
335 1 18.8691 6.28969 18.8691 -8.94963
5 1 6.28969 7.13328e-16 22.0139 -8.94963
9 1 12.5794 6.56978e-16 22.0139 -8.94963
47 1 12.5794 9.43452 22.0139 -8.94978
15 1 1.16407e-08 3.14484 22.0139 -8.94963
19 1 6.28969 3.14484 22.0139 -8.94963
21 1 9.43453 3.14484 22.0139 -8.94963
46 1 9.43452 9.43451 22.0139 -8.94966
27 1 18.8691 3.14484 22.0139 -8.94963
31 1 3.14484 6.28969 22.0139 -8.94963
39 1 15.7242 6.28968 22.0139 -8.94963
45 1 6.28968 9.43453 22.0139 -8.94964
43 1 -4.84686e-08 9.43453 22.0139 -8.94963
1 1 -1.98601e-09 5.47716e-16 22.0139 -8.94963
13 1 18.8691 7.82353e-16 22.0139 -8.94963
23 1 12.5794 3.14484 22.0139 -8.94963
49 1 18.8691 9.43453 22.0139 -8.94963
183 1 1.57242 4.71727 11.007 -8.94965
344 1 1.57242 11.007 1.57242 -8.94963
345 1 4.71726 11.007 1.57242 -8.94961
346 1 7.86211 11.007 1.57241 -8.94972
347 1 11.0069 11.007 1.57196 -8.95138
348 1 14.1518 11.007 1.5724 -8.94958
349 1 17.2966 11.007 1.57242 -8.94965
350 1 20.4415 11.007 1.57242 -8.94963
688 3 10.2202 11.007 9.43498 2.85696
352 1 1.57242 14.1518 1.57242 -8.94963
511 1 18.8691 18.8691 9.43453 -8.94963
354 1 4.71726 14.1518 1.57242 -8.94964
510 1 15.7242 18.8691 9.43453 -8.94962
356 1 7.86209 14.1518 1.57238 -8.9497
509 1 12.5794 18.8691 9.43452 -8.94962
358 1 11.0069 14.1518 1.57241 -8.94963
508 1 9.43454 18.8695 9.43453 -8.95138
360 1 14.1518 14.1518 1.57236 -8.94965
361 1 15.7242 12.5794 9.77921e-07 -8.94963
362 1 17.2966 14.1518 1.57242 -8.94966
538 1 17.2966 20.4415 11.007 -8.94963
364 1 20.4415 14.1518 1.57242 -8.94963
365 1 22.0139 15.7242 -1.5495e-08 -8.94963
366 1 1.57242 17.2966 1.57242 -8.94963
507 1 6.28967 18.8691 9.43452 -8.94956
368 1 4.71726 17.2966 1.57242 -8.94963
369 1 6.28968 15.7242 -3.37304e-06 -8.94964
370 1 7.86211 17.2966 1.57242 -8.94964
371 1 9.43453 15.7242 -3.89099e-07 -8.94964
372 1 11.007 17.2966 1.57242 -8.94964
373 1 12.5794 15.7242 1.71954e-06 -8.94963
374 1 14.1518 17.2966 1.57242 -8.94967
506 1 3.14484 18.8691 9.43453 -8.94965
376 1 17.2966 17.2966 1.57242 -8.94961
505 1 1.61512e-07 18.8691 9.43453 -8.94963
378 1 20.4415 17.2966 1.57242 -8.94963
504 1 18.8691 15.7242 9.43453 -8.94963
380 1 1.57242 20.4415 1.57242 -8.94963
381 1 3.14484 18.8691 -1.17706e-07 -8.94963
382 1 4.71726 20.4415 1.57242 -8.94963
503 1 15.7242 15.7242 9.43453 -8.94952
384 1 7.86211 20.4415 1.57242 -8.94963
502 1 12.5793 15.7244 9.4345 -8.95086
386 1 11.007 20.4415 1.57242 -8.94963
534 1 4.71726 20.4415 11.0069 -8.94964
388 1 14.1518 20.4415 1.57242 -8.94963
501 1 9.43418 15.731 9.43461 -8.97925
390 1 17.2966 20.4415 1.57242 -8.94963
500 1 6.28936 15.7246 9.43451 -8.95088
392 1 20.4415 20.4415 1.57242 -8.94963
393 1 1.57242 11.007 4.71726 -8.94962
394 1 4.71727 11.007 4.71726 -8.94944
395 1 7.86222 11.007 4.717 -8.95191
396 1 11.0073 11.007 4.71045 -8.97865
397 1 14.1521 11.007 4.71692 -8.9507
398 1 17.2967 11.007 4.71725 -8.94958
399 1 20.4415 11.007 4.71726 -8.94963
400 1 8.91613e-08 12.5794 3.14484 -8.94963
401 1 1.57242 14.1518 4.71726 -8.94963
402 1 3.14485 12.5794 3.14485 -8.94965
403 1 4.71725 14.1518 4.71725 -8.94979
404 1 6.28967 12.5794 3.14482 -8.94975
405 1 7.86183 14.1521 4.71654 -8.95095
406 1 9.43429 12.5796 3.14446 -8.94891
407 1 11.0068 14.1519 4.71697 -8.9514
408 1 12.5797 12.5797 3.14409 -8.95102
409 1 14.1526 14.1526 4.71649 -8.94459
410 1 15.7242 12.5794 3.14485 -8.94985
411 1 17.2967 14.1518 4.71724 -8.94969
412 1 18.8691 12.5794 3.14484 -8.94963
413 1 20.4415 14.1518 4.71726 -8.94964
414 1 22.0139 15.7242 3.14484 -8.94963
415 1 1.57242 17.2966 4.71726 -8.94963
416 1 3.14484 15.7242 3.14484 -8.94965
417 1 4.71722 17.2967 4.71722 -8.94928
418 1 6.28966 15.7242 3.14479 -8.94965
419 1 7.86212 17.2966 4.71728 -8.94993
420 1 9.43454 15.7242 3.14483 -8.94961
421 1 11.0069 17.2966 4.71725 -8.94961
422 1 12.5794 15.7242 3.14486 -8.94993
423 1 14.1518 17.2967 4.71724 -8.94965
424 1 15.7243 15.7243 3.1448 -8.94928
425 1 17.2966 17.2966 4.71726 -8.94966
426 1 18.8691 15.7242 3.14484 -8.94963
427 1 20.4415 17.2966 4.71726 -8.94963
428 1 22.0139 18.8691 3.14484 -8.94963
429 1 1.57242 20.4415 4.71726 -8.94963
430 1 3.14484 18.8691 3.14484 -8.94961
431 1 4.71726 20.4415 4.71726 -8.94963
432 1 6.28969 18.8691 3.14485 -8.94967
433 1 7.86211 20.4415 4.71727 -8.94963
434 1 9.43453 18.8691 3.14484 -8.94964
435 1 11.007 20.4415 4.71726 -8.94963
436 1 12.5794 18.8691 3.14484 -8.94964
437 1 14.1518 20.4415 4.71726 -8.94963
438 1 15.7242 18.8691 3.14484 -8.94963
439 1 17.2966 20.4415 4.71726 -8.94963
440 1 18.8691 18.8691 3.14484 -8.94963
441 1 20.4415 20.4415 4.71726 -8.94963
442 1 1.57239 11.007 7.86209 -8.94962
443 1 4.71696 11.007 7.86206 -8.94938
444 1 7.86009 11.007 7.85673 -8.91642
445 1 11.0767 11.007 7.70603 -8.0477
446 1 14.1571 11.007 7.86127 -8.96494
447 1 17.2969 11.007 7.86211 -8.9509
448 1 20.4415 11.007 7.86211 -8.94971
449 1 22.0139 12.5794 6.28968 -8.94964
450 1 1.5724 14.1518 7.86211 -8.94981
451 1 3.1448 12.5794 6.28968 -8.9497
452 1 4.71656 14.152 7.86188 -8.95112
453 1 6.2891 12.5795 6.28929 -8.94871
454 1 7.85169 14.1616 7.85201 -8.88909
455 1 9.43123 12.5834 6.28744 -8.93042
456 1 11.0104 14.154 7.85811 -8.93079
457 1 12.5898 12.5895 6.27979 -8.88872
458 1 14.1523 14.1522 7.86208 -8.94902
459 1 15.7249 12.5796 6.2895 -8.95143
460 1 17.2967 14.1518 7.8621 -8.94962
461 1 18.8691 12.5794 6.28968 -8.94977
462 1 20.4415 14.1518 7.86211 -8.94964
463 1 -1.50554e-06 15.7242 6.28969 -8.94964
464 1 1.57242 17.2966 7.86211 -8.94962
465 1 3.14479 15.7242 6.28966 -8.94968
466 1 4.71727 17.2966 7.86211 -8.94984
467 1 6.28892 15.725 6.2889 -8.94466
468 1 7.86183 17.2974 7.86183 -8.95102
469 1 9.43468 15.7245 6.28963 -8.95143
470 1 11.0072 17.297 7.86187 -8.94899
471 1 12.5797 15.7249 6.28942 -8.95093
472 1 14.1518 17.2967 7.86212 -8.94974
473 1 15.7242 15.7242 6.28967 -8.94981
474 1 17.2966 17.2966 7.86211 -8.94965
475 1 18.8691 15.7242 6.28969 -8.94963
476 1 20.4415 17.2966 7.86211 -8.94963
477 1 22.0139 18.8691 6.28969 -8.94963
478 1 1.57242 20.4415 7.86211 -8.94963
479 1 3.14484 18.8691 6.28969 -8.94966
480 1 4.71726 20.4415 7.86211 -8.94963
481 1 6.28966 18.8691 6.28966 -8.94965
482 1 7.8621 20.4415 7.8621 -8.94977
483 1 9.43454 18.8691 6.28968 -8.94962
484 1 11.007 20.4415 7.8621 -8.94966
485 1 12.5794 18.8691 6.28967 -8.94971
486 1 14.1518 20.4415 7.86211 -8.94964
487 1 15.7242 18.8691 6.28969 -8.94964
488 1 17.2966 20.4415 7.86211 -8.94963
489 1 18.8691 18.8691 6.28969 -8.94963
490 1 20.4415 20.4415 7.86211 -8.94963
491 1 -5.6569e-06 12.5794 9.43453 -8.9497
492 1 3.1446 12.5793 9.4346 -8.95138
493 1 6.28367 12.5816 9.43436 -9.00064
494 1 9.36561 12.7359 9.43423 -8.09708
495 1 12.5817 12.5822 9.43422 -8.90629
496 1 15.7247 12.5796 9.43451 -8.94865
497 1 18.8691 12.5794 9.43453 -8.94968
498 1 22.0139 15.7242 9.43453 -8.94963
499 1 3.1448 15.7242 9.4345 -8.94944
512 1 1.57243 11.007 11.0069 -8.94934
514 1 7.8419 11.007 10.9735 -9.19057
519 1 1.57236 14.1518 11.0069 -8.94982
520 1 4.71621 14.1523 11.0069 -8.95026
532 1 20.4415 17.2966 11.007 -8.94963
527 1 4.71726 17.2967 11.0069 -8.94992
531 1 17.2966 17.2966 11.0069 -8.94965
518 1 20.4415 11.007 11.0069 -8.9497
353 1 3.14484 12.5794 -8.7017e-07 -8.94963
389 1 15.7242 18.8691 1.1012e-07 -8.94964
377 1 18.8691 15.7242 1.205e-07 -8.94963
687 2 8.64868 11.007 12.5791 0.900512
513 1 4.71754 11.007 11.0081 -8.99856
686 1 20.4415 20.4415 20.4415 -8.94963
515 1 11.0818 11.007 11.1589 -8.07314
516 1 14.1574 11.007 11.0078 -8.96588
517 1 17.2969 11.007 11.0069 -8.95103
391 1 18.8691 18.8691 22.0139 -8.94963
685 1 18.8691 18.8691 18.8691 -8.94963
684 1 17.2966 20.4415 20.4415 -8.94963
521 1 7.85086 14.1617 11.0168 -8.94254
522 1 11.0111 14.1541 11.0095 -8.96608
523 1 14.1523 14.1521 11.007 -8.94972
524 1 17.2967 14.1518 11.007 -8.94963
525 1 20.4415 14.1518 11.007 -8.94965
683 1 15.7242 18.8691 18.8691 -8.94964
682 1 14.1518 20.4415 20.4415 -8.94963
528 1 7.86176 17.2975 11.0071 -8.95049
529 1 11.0073 17.2971 11.0071 -8.94847
530 1 14.1518 17.2966 11.0069 -8.94982
681 1 12.5794 18.8691 18.8691 -8.94963
680 1 11.007 20.4415 20.4415 -8.94963
533 1 1.57242 20.4415 11.007 -8.94963
679 1 9.43453 18.8691 18.8691 -8.94963
535 1 7.86209 20.4415 11.007 -8.94977
536 1 11.007 20.4415 11.007 -8.94966
537 1 14.1518 20.4415 11.007 -8.94965
678 1 7.86211 20.4415 20.4415 -8.94963
539 1 20.4415 20.4415 11.007 -8.94963
540 1 1.57247 11.007 14.1518 -8.94928
541 1 4.71807 11.007 14.1509 -8.99938
542 1 7.84443 11.007 14.1879 -9.22817
543 1 11.0122 11.007 14.1628 -9.01354
544 1 14.1524 11.007 14.1522 -8.95211
545 1 17.2967 11.007 14.1518 -8.94969
546 1 20.4415 11.007 14.1518 -8.94962
547 1 22.0139 12.5794 12.5794 -8.94975
548 1 1.57239 14.1518 14.1518 -8.94967
549 1 3.14447 12.5794 12.5794 -8.95097
550 1 4.71688 14.1521 14.152 -8.94866
551 1 6.28433 12.583 12.5797 -8.98358
552 1 7.86101 14.1521 14.1528 -9.00466
553 1 9.44923 12.6192 12.5814 -9.20874
554 1 11.0076 14.152 14.1534 -8.98662
555 1 12.5889 12.5886 12.5894 -8.9378
556 1 14.1525 14.1525 14.1525 -8.94513
557 1 15.7248 12.5796 12.5796 -8.95104
558 1 17.2967 14.1518 14.1518 -8.94968
559 1 18.8691 12.5794 12.5794 -8.94976
560 1 20.4415 14.1518 14.1518 -8.94965
561 1 22.0139 15.7242 12.5794 -8.94963
562 1 1.57242 17.2966 14.1518 -8.94965
563 1 3.1448 15.7242 12.5794 -8.94968
564 1 4.71721 17.2967 14.1518 -8.94935
565 1 6.28888 15.7252 12.5802 -8.94575
566 1 7.86204 17.2967 14.1519 -8.94942
567 1 9.43466 15.7273 12.5794 -8.96079
568 1 11.007 17.2967 14.1519 -8.94917
569 1 12.5795 15.7247 12.5796 -8.95171
570 1 14.1518 17.2967 14.1518 -8.94972
571 1 15.7242 15.7242 12.5794 -8.94976
572 1 17.2966 17.2966 14.1518 -8.94965
573 1 18.8691 15.7242 12.5794 -8.94963
574 1 20.4415 17.2966 14.1518 -8.94963
575 1 22.0139 18.8691 12.5794 -8.94963
576 1 1.57242 20.4415 14.1518 -8.94963
577 1 3.14484 18.8691 12.5794 -8.94966
578 1 4.71726 20.4415 14.1518 -8.94963
579 1 6.28966 18.8691 12.5794 -8.94972
580 1 7.86211 20.4415 14.1518 -8.94963
581 1 9.43454 18.8692 12.5794 -8.95042
582 1 11.007 20.4415 14.1518 -8.94963
583 1 12.5794 18.8691 12.5794 -8.94967
584 1 14.1518 20.4415 14.1518 -8.94964
585 1 15.7242 18.8691 12.5794 -8.94964
586 1 17.2966 20.4415 14.1518 -8.94963
587 1 18.8691 18.8691 12.5794 -8.94963
588 1 20.4415 20.4415 14.1518 -8.94963
589 1 1.57243 11.007 17.2966 -8.94958
590 1 4.71743 11.007 17.2964 -8.95036
591 1 7.86214 11.007 17.2994 -8.95925
592 1 11.007 11.007 17.2974 -8.95267
593 1 14.1518 11.007 17.2967 -8.94958
594 1 17.2966 11.007 17.2966 -8.94964
595 1 20.4415 11.007 17.2966 -8.94963
596 1 5.63057e-06 12.5794 15.7242 -8.94963
597 1 1.57243 14.1518 17.2966 -8.94968
598 1 3.14489 12.5793 15.7241 -8.95014
599 1 4.71724 14.1518 17.2967 -8.94934
600 1 6.28892 12.5807 15.7244 -8.98511
601 1 7.86212 14.1517 17.2966 -8.95031
602 1 9.43511 12.5799 15.7247 -9.00255
603 1 11.007 14.1518 17.2967 -8.94982
604 1 12.58 12.5799 15.7253 -8.94971
605 1 14.1518 14.1518 17.2967 -8.9495
606 1 15.7242 12.5794 15.7242 -8.94989
607 1 17.2966 14.1518 17.2966 -8.94966
608 1 18.8691 12.5794 15.7242 -8.94964
609 1 20.4415 14.1518 17.2966 -8.94963
610 1 22.0139 15.7242 15.7242 -8.94963
611 1 1.57242 17.2966 17.2966 -8.94962
612 1 3.14482 15.7242 15.7242 -8.94952
613 1 4.71726 17.2966 17.2966 -8.94962
614 1 6.28964 15.7243 15.7243 -8.94984
615 1 7.86211 17.2966 17.2966 -8.94964
616 1 9.43451 15.7242 15.7242 -8.95023
617 1 11.0069 17.2966 17.2966 -8.94971
618 1 12.5794 15.7242 15.7242 -8.94964
619 1 14.1518 17.2966 17.2966 -8.94966
620 1 15.7243 15.7243 15.7243 -8.94933
621 1 17.2966 17.2966 17.2966 -8.94962
622 1 18.8691 15.7242 15.7242 -8.94963
623 1 20.4415 17.2966 17.2966 -8.94963
624 1 -3.28497e-08 18.8691 15.7242 -8.94963
625 1 1.57242 20.4415 17.2966 -8.94963
626 1 3.14484 18.8691 15.7242 -8.94961
627 1 4.71726 20.4415 17.2966 -8.94963
628 1 6.28968 18.8691 15.7242 -8.94965
629 1 7.86211 20.4415 17.2966 -8.94963
630 1 9.43453 18.8691 15.7242 -8.94964
631 1 11.007 20.4415 17.2966 -8.94964
632 1 12.5794 18.8691 15.7242 -8.94961
633 1 14.1518 20.4415 17.2966 -8.94963
634 1 15.7242 18.8691 15.7242 -8.94963
635 1 17.2966 20.4415 17.2966 -8.94963
636 1 18.8691 18.8691 15.7242 -8.94963
637 1 20.4415 20.4415 17.2966 -8.94963
638 1 1.57242 11.007 20.4415 -8.94963
639 1 4.71727 11.007 20.4415 -8.9496
640 1 7.86211 11.007 20.4416 -8.95042
641 1 11.0069 11.007 20.4415 -8.94995
642 1 14.1518 11.007 20.4415 -8.94963
643 1 17.2966 11.007 20.4415 -8.94963
644 1 20.4415 11.007 20.4415 -8.94963
645 1 22.0139 12.5794 18.8691 -8.94963
646 1 1.57242 14.1518 20.4415 -8.94964
647 1 3.14485 12.5794 18.869 -8.9497
648 1 4.71726 14.1518 20.4415 -8.94961
649 1 6.28961 12.5795 18.8691 -8.94921
650 1 7.86211 14.1518 20.4415 -8.94964
651 1 9.43459 12.5795 18.8692 -8.94914
652 1 11.007 14.1518 20.4415 -8.94962
653 1 12.5794 12.5794 18.8691 -8.94984
654 1 14.1518 14.1518 20.4415 -8.94965
655 1 15.7242 12.5794 18.8691 -8.94965
656 1 17.2966 14.1518 20.4415 -8.94964
657 1 18.8691 12.5794 18.8691 -8.94963
658 1 20.4415 14.1518 20.4415 -8.94963
659 1 5.13938e-07 15.7242 18.8691 -8.94964
660 1 1.57242 17.2966 20.4415 -8.94963
661 1 3.14484 15.7242 18.8691 -8.94962
662 1 4.71726 17.2966 20.4415 -8.94964
663 1 6.28969 15.7242 18.8691 -8.9497
664 1 7.86211 17.2966 20.4415 -8.94963
665 1 9.43453 15.7242 18.8691 -8.94965
666 1 11.007 17.2966 20.4415 -8.94964
667 1 12.5794 15.7242 18.8691 -8.94963
668 1 14.1518 17.2966 20.4415 -8.94963
669 1 15.7242 15.7242 18.8691 -8.94961
670 1 17.2966 17.2966 20.4415 -8.94963
671 1 18.8691 15.7242 18.8691 -8.94963
672 1 20.4415 17.2966 20.4415 -8.94963
673 1 22.0139 18.8691 18.8691 -8.94963
674 1 1.57242 20.4415 20.4415 -8.94963
675 1 3.14484 18.8691 18.8691 -8.94963
676 1 4.71726 20.4415 20.4415 -8.94963
677 1 6.28969 18.8691 18.8691 -8.94964
351 1 -4.84686e-08 12.5794 22.0139 -8.94963
385 1 9.43453 18.8691 22.0139 -8.94963
355 1 6.28968 12.5794 22.0139 -8.94964
357 1 9.43452 12.5794 22.0139 -8.94966
359 1 12.5794 12.5794 22.0139 -8.94978
367 1 3.14484 15.7242 22.0139 -8.94963
375 1 15.7242 15.7242 22.0139 -8.94963
383 1 6.28969 18.8691 22.0139 -8.94963
379 1 1.16407e-08 18.8691 22.0139 -8.94963
363 1 18.8691 12.5794 22.0139 -8.94963
387 1 12.5794 18.8691 22.0139 -8.94963
526 1 1.57242 17.2966 11.007 -8.94965
