ITEM: TIMESTEP
64
ITEM: NUMBER OF ATOMS
688
ITEM: BOX BOUNDS pp pp pp
0.0000000000000000e+00 2.2013900999999997e+01
0.0000000000000000e+00 2.2013900999999997e+01
0.0000000000000000e+00 2.2013900999999997e+01
ITEM: ATOMS id type x y z c_pot
191 1 4.70771 7.85839 11.0085 -8.95618
2 1 1.57234 1.57236 1.57234 -8.94945
3 1 3.14483 1.66333e-15 -1.60712e-05 -8.94968
4 1 4.71724 1.57235 1.57234 -8.94971
175 1 18.8696 9.43421 9.43452 -8.94845
6 1 7.86209 1.57234 1.57233 -8.9496
7 1 9.43453 1.65492e-15 -2.32785e-05 -8.94964
8 1 11.007 1.57233 1.57232 -8.94962
174 1 15.7239 9.4343 9.43442 -8.94105
10 1 14.1518 1.57234 1.57234 -8.94959
173 1 12.5624 9.44277 9.43342 -8.9006
12 1 17.2967 1.57231 1.57233 -8.94955
190 1 1.57053 7.86178 11.0071 -8.95148
14 1 20.4415 1.5724 1.57241 -8.94963
172 1 9.35508 9.2033 9.43197 -8.1639
16 1 1.57234 4.71721 1.57235 -8.94972
17 1 3.14475 3.14474 -9.74481e-05 -8.94958
18 1 4.71687 4.71687 1.57179 -8.9495
171 1 6.27593 9.42385 9.43068 -9.00494
20 1 7.86203 4.71691 1.57196 -8.94932
170 1 3.14177 9.435 9.43454 -8.95296
22 1 11.007 4.71686 1.57197 -8.94951
189 1 20.4415 4.71712 11.007 -8.94959
24 1 14.1519 4.7169 1.57205 -8.94977
169 1 -0.000524327 9.43458 9.43451 -8.94994
26 1 17.2971 4.7168 1.57199 -8.94867
168 1 18.8694 6.28931 9.43453 -8.94958
28 1 20.4416 4.71719 1.57234 -8.9496
29 1 22.0139 6.28968 -1.77214e-05 -8.94964
30 1 1.57235 7.8621 1.57233 -8.94955
167 1 15.7256 6.28834 9.43453 -8.94745
32 1 4.71703 7.86215 1.57217 -8.94971
33 1 6.2895 6.28948 -0.000371811 -8.95014
34 1 7.86181 7.86185 1.57098 -8.9517
35 1 9.43442 6.28934 -0.000347632 -8.94955
36 1 11.0067 7.86143 1.57082 -8.95007
37 1 12.5794 6.28937 -0.000277913 -8.94954
38 1 14.1527 7.86119 1.57031 -8.95112
166 1 12.5792 6.28977 9.43324 -8.94416
40 1 17.2971 7.86192 1.57202 -8.94952
165 1 9.43045 6.29023 9.43425 -9.00284
42 1 20.4416 7.86208 1.57234 -8.94958
164 1 6.28168 6.28118 9.43384 -8.9437
163 1 3.14211 6.28823 9.43429 -8.94868
162 1 22.0134 6.28942 9.43448 -8.94979
161 1 18.8691 3.14473 9.43453 -8.94964
160 1 15.7246 3.14442 9.43454 -8.94971
48 1 15.7246 9.43441 -0.000424375 -8.94942
188 1 17.297 4.71687 11.007 -8.94921
50 1 -2.31662e-05 5.86734e-16 3.14483 -8.94965
51 1 1.57232 1.57234 4.71721 -8.94965
52 1 3.14471 5.16074e-16 3.1447 -8.94957
53 1 4.71694 1.57195 4.71692 -8.94982
54 1 6.28967 3.77405e-16 3.14474 -8.94961
55 1 7.86211 1.57204 4.717 -8.94956
56 1 9.43453 1.1008e-15 3.14471 -8.94961
57 1 11.0071 1.57201 4.71696 -8.94956
58 1 12.5794 1.60706e-15 3.14471 -8.94956
59 1 14.152 1.572 4.71709 -8.95019
60 1 15.7243 1.78927e-15 3.14475 -8.94977
61 1 17.2967 1.57236 4.71727 -8.94965
62 1 18.8691 9.60919e-16 3.14484 -8.94966
63 1 20.4415 1.5724 4.71726 -8.94962
64 1 22.0138 3.14476 3.14476 -8.94956
65 1 1.57179 4.71688 4.71687 -8.94952
66 1 3.14438 3.1444 3.14437 -8.94868
67 1 4.71493 4.71495 4.71487 -8.94526
68 1 6.28958 3.14446 3.14449 -8.94978
69 1 7.86183 4.71559 4.71597 -8.94939
70 1 9.43452 3.14438 3.14445 -8.94951
71 1 11.0072 4.71548 4.71595 -8.94812
72 1 12.5795 3.14437 3.1445 -8.94932
73 1 14.1533 4.71455 4.7158 -8.9499
74 1 15.7246 3.14419 3.14445 -8.94947
75 1 17.297 4.71696 4.71722 -8.9501
76 1 18.8691 3.14476 3.14481 -8.94975
77 1 20.4414 4.71717 4.71722 -8.94971
78 1 22.0139 6.28965 3.14475 -8.94973
79 1 1.5721 7.86216 4.71705 -8.9497
80 1 3.14445 6.28958 3.14447 -8.95006
81 1 4.71589 7.86213 4.71605 -8.95105
82 1 6.28821 6.28827 3.14215 -8.94998
83 1 7.85784 7.85784 4.70886 -8.95385
84 1 9.43426 6.28838 3.14306 -8.9481
85 1 11.007 7.8587 4.71075 -8.95093
86 1 12.5797 6.28839 3.14313 -8.94941
87 1 14.1617 7.85246 4.70758 -8.93088
88 1 15.7265 6.28734 3.14258 -8.94523
89 1 17.299 7.86098 4.71618 -8.95061
90 1 18.8696 6.28935 3.14451 -8.94964
91 1 20.4418 7.86198 4.71711 -8.94998
92 1 -1.11665e-05 9.4345 3.14471 -8.9496
93 1 3.14445 9.43452 3.14444 -8.94918
94 1 6.28922 9.43504 3.14396 -8.94947
95 1 9.43464 9.43444 3.14287 -8.951
96 1 12.5811 9.43343 3.13823 -8.95826
97 1 15.726 9.43389 3.14301 -8.9482
98 1 18.8696 9.43443 3.14451 -8.94941
99 1 22.0139 1.55395e-16 6.28967 -8.94964
100 1 1.5723 1.57232 7.86208 -8.94963
101 1 3.14468 -3.74765e-16 6.28961 -8.94952
102 1 4.71685 1.57189 7.86192 -8.9494
103 1 6.28951 1.377e-15 6.28947 -8.95032
104 1 7.86205 1.57131 7.86196 -8.95114
105 1 9.43464 1.13206e-15 6.28948 -8.94997
106 1 11.0071 1.57191 7.86205 -8.94961
107 1 12.5795 1.1882e-15 6.2896 -8.95015
108 1 14.152 1.57215 7.86208 -8.94944
109 1 15.7243 1.29571e-15 6.28968 -8.94955
110 1 17.2967 1.57233 7.8621 -8.94963
111 1 18.8691 2.9498e-16 6.28968 -8.94963
112 1 20.4415 1.57239 7.8621 -8.94964
113 1 22.0138 3.14475 6.28965 -8.94957
114 1 1.57179 4.71686 7.86194 -8.94933
115 1 3.14438 3.14436 6.28945 -8.94949
116 1 4.7153 4.71509 7.86125 -8.94816
117 1 6.28881 3.14267 6.28872 -8.95114
118 1 7.86039 4.71052 7.8608 -8.95825
119 1 9.43486 3.14317 6.28903 -8.95
120 1 11.007 4.71537 7.86197 -8.95134
121 1 12.5797 3.14335 6.28944 -8.95184
122 1 14.1524 4.71638 7.86246 -8.9487
123 1 15.7244 3.14454 6.28976 -8.94952
124 1 17.297 4.71687 7.86209 -8.94929
125 1 18.8691 3.14475 6.28967 -8.94955
126 1 20.4415 4.71712 7.86207 -8.9496
127 1 -0.000415031 6.28951 6.28953 -8.95002
128 1 1.57074 7.86191 7.86187 -8.95159
129 1 3.14216 6.28834 6.28826 -8.95012
130 1 4.70806 7.85847 7.85892 -8.95572
131 1 6.27978 6.27984 6.27983 -8.93092
132 1 7.82424 7.82808 7.82945 -8.85379
133 1 9.43474 6.28336 6.28627 -8.95093
134 1 11.0208 7.85499 7.84137 -8.90778
135 1 12.584 6.28126 6.28507 -8.95374
136 1 14.1549 7.86123 7.8646 -8.952
137 1 15.7254 6.28881 6.28991 -8.9511
138 1 17.2978 7.86157 7.86254 -8.94952
139 1 18.8694 6.28948 6.28971 -8.94964
140 1 20.4415 7.86195 7.8621 -8.9499
141 1 22.0138 9.43454 6.28951 -8.94982
142 1 3.14362 9.43504 6.28914 -8.94964
143 1 6.28614 9.43649 6.28738 -8.95157
144 1 9.42266 9.41462 6.28226 -8.90735
145 1 12.6171 9.40286 6.25568 -8.85521
146 1 15.7323 9.43251 6.28718 -8.95739
147 1 18.8705 9.43436 6.28952 -8.95131
148 1 -3.42176e-05 5.90775e-16 9.43453 -8.94964
149 1 3.14466 -1.99455e-16 9.43452 -8.94961
150 1 6.28933 1.22728e-16 9.43444 -8.95007
151 1 9.43468 1.48598e-15 9.43447 -8.94931
152 1 12.5796 6.3718e-16 9.43445 -8.94952
153 1 15.7243 2.20195e-15 9.43453 -8.94968
154 1 18.8691 1.51779e-15 9.43453 -8.94963
155 1 -0.000115301 3.14473 9.43452 -8.94961
156 1 3.14431 3.14431 9.43448 -8.94961
157 1 6.28836 3.14225 9.43429 -8.94925
158 1 9.43474 3.14335 9.4344 -8.9473
159 1 12.5799 3.1441 9.43425 -8.94843
177 1 4.71685 1.57189 11.0071 -8.94949
181 1 17.2967 1.57233 11.007 -8.94961
184 1 4.7152 4.71502 11.0075 -8.94848
11 1 15.7242 9.66917e-16 -1.45827e-05 -8.94964
25 1 15.7243 3.14475 -5.56693e-05 -8.9497
41 1 18.8691 6.28964 -6.4923e-05 -8.94966
44 1 3.14471 9.43452 -6.76787e-05 -8.94955
176 1 1.57229 1.57232 11.007 -8.94962
343 1 18.8692 9.43451 18.8692 -8.94962
178 1 7.86193 1.57105 11.0069 -8.95122
179 1 11.0073 1.57163 11.0068 -8.94985
180 1 14.152 1.57221 11.0069 -8.94944
342 1 15.7247 9.43439 18.8696 -8.94942
182 1 20.4415 1.57239 11.007 -8.94964
341 1 12.5798 9.43435 18.8707 -8.95147
340 1 9.43502 9.43375 18.8709 -8.94807
185 1 7.85968 4.70931 11.0073 -8.95673
186 1 11.0079 4.71383 11.006 -8.95042
187 1 14.1523 4.71666 11.0064 -8.94933
339 1 6.28865 9.43374 18.8709 -8.94899
338 1 3.1446 9.43455 18.8692 -8.94974
337 1 22.0139 9.43453 18.8691 -8.94961
336 1 20.4415 7.8621 20.4415 -8.94963
192 1 7.82235 7.82637 11.0366 -8.90557
193 1 11.0247 7.85125 11.0209 -8.93812
194 1 14.1549 7.8617 11.0045 -8.95454
195 1 17.2978 7.86161 11.0065 -8.94962
196 1 20.4415 7.86194 11.0069 -8.94992
197 1 22.0139 -1.56482e-16 12.5794 -8.94964
198 1 1.57231 1.57233 14.1518 -8.94964
199 1 3.14467 6.65451e-16 12.5794 -8.94955
200 1 4.71688 1.57188 14.1521 -8.94986
201 1 6.28946 3.66548e-16 12.5796 -8.95031
202 1 7.86199 1.57176 14.1522 -8.94961
203 1 9.43464 -1.48024e-16 12.5796 -8.95074
204 1 11.0072 1.57171 14.1522 -8.94978
205 1 12.5796 4.98281e-16 12.5794 -8.95005
206 1 14.152 1.57199 14.152 -8.95011
207 1 15.7243 1.3865e-15 12.5794 -8.94959
208 1 17.2967 1.57237 14.1518 -8.94967
209 1 18.8691 1.17608e-15 12.5794 -8.94962
210 1 20.4415 1.5724 14.1518 -8.94962
211 1 22.0138 3.14474 12.5794 -8.94958
212 1 1.57174 4.71684 14.1522 -8.94962
213 1 3.14433 3.1443 12.5796 -8.94946
214 1 4.71465 4.71458 14.1542 -8.94551
215 1 6.28872 3.14237 12.5803 -8.95111
216 1 7.86113 4.71428 14.1537 -8.94786
217 1 9.43484 3.14153 12.58 -8.95281
218 1 11.0081 4.71385 14.1539 -8.94751
219 1 12.5798 3.1432 12.5796 -8.9514
220 1 14.1534 4.7146 14.1531 -8.95004
221 1 15.7244 3.14457 12.5792 -8.94964
222 1 17.297 4.71695 14.1518 -8.95009
223 1 18.8691 3.14475 12.5794 -8.94955
224 1 20.4414 4.71716 14.1518 -8.9497
225 1 22.0134 6.28947 12.5795 -8.94993
226 1 1.57168 7.86195 14.1521 -8.94982
227 1 3.14205 6.28824 12.5805 -8.95009
228 1 4.71454 7.861 14.1531 -8.94979
229 1 6.27965 6.27887 12.589 -8.93207
230 1 7.85569 7.85606 14.1618 -9.00506
231 1 9.43521 6.27339 12.5823 -8.96458
232 1 11.0111 7.85445 14.1628 -8.9817
233 1 12.5838 6.2813 12.5836 -8.9534
234 1 14.1619 7.85271 14.1612 -8.93319
235 1 15.7254 6.28882 12.5791 -8.95092
236 1 17.2991 7.861 14.1528 -8.9507
237 1 18.8693 6.28946 12.5793 -8.94964
238 1 20.4418 7.86196 14.152 -8.95006
239 1 22.0136 9.43453 12.5795 -8.95004
240 1 3.1427 9.43475 12.5799 -8.95063
241 1 6.28237 9.43227 12.5806 -8.98567
242 1 9.44478 9.36465 12.5843 -9.17016
243 1 12.6138 9.40436 12.6137 -8.90752
244 1 15.7319 9.43257 12.5818 -8.95638
245 1 18.8705 9.43435 12.5795 -8.95122
246 1 -2.83156e-05 2.75728e-16 15.7242 -8.94965
247 1 1.57232 1.57235 17.2967 -8.94944
248 1 3.14468 6.80764e-16 15.7244 -8.94959
249 1 4.71717 1.57227 17.2968 -8.94968
250 1 6.2896 1.12651e-15 15.7244 -8.94965
251 1 7.86209 1.57228 17.2968 -8.94959
252 1 9.43453 1.43735e-15 15.7244 -8.94958
253 1 11.007 1.57229 17.2968 -8.94961
254 1 12.5795 9.14794e-16 15.7244 -8.94962
255 1 14.1519 1.57226 17.2968 -8.94954
256 1 15.7243 6.18245e-16 15.7243 -8.94976
257 1 17.2967 1.57231 17.2967 -8.94958
258 1 18.8691 3.22608e-16 15.7242 -8.94967
259 1 20.4415 1.5724 17.2967 -8.94964
260 1 -0.000127596 3.14475 15.7243 -8.9496
261 1 1.57227 4.71716 17.2968 -8.94967
262 1 3.14429 3.1443 15.7247 -8.94868
263 1 4.71666 4.71652 17.2975 -8.94949
264 1 6.28937 3.14407 15.7248 -8.94971
265 1 7.86201 4.71671 17.2973 -8.94922
266 1 9.4345 3.14411 15.7247 -8.9494
267 1 11.007 4.71669 17.2973 -8.94978
268 1 12.5797 3.14398 15.7248 -8.94919
269 1 14.1522 4.71661 17.2973 -8.94929
270 1 15.7246 3.1442 15.7246 -8.94954
271 1 17.2971 4.71678 17.2971 -8.94873
272 1 18.8691 3.14476 15.7242 -8.94975
273 1 20.4416 4.71717 17.2967 -8.94959
274 1 22.0138 6.28958 15.7243 -8.94969
275 1 1.57214 7.86205 17.2968 -8.94985
276 1 3.1441 6.28932 15.7248 -8.94969
277 1 4.71588 7.861 17.2981 -8.94775
278 1 6.28757 6.28706 15.7275 -8.95062
279 1 7.86195 7.86172 17.2988 -8.9521
280 1 9.43408 6.28757 15.7261 -8.94858
281 1 11.0073 7.86082 17.2996 -8.95059
282 1 12.5809 6.28721 15.7271 -8.94748
283 1 14.1532 7.86089 17.2991 -8.95052
284 1 15.7267 6.28733 15.7265 -8.94564
285 1 17.2972 7.86188 17.2971 -8.94953
286 1 18.8696 6.28934 15.7245 -8.94968
287 1 20.4416 7.86207 17.2967 -8.94963
288 1 -0.000119332 9.43451 15.7244 -8.94969
289 1 3.1439 9.43455 15.7246 -8.9508
290 1 6.28516 9.43034 15.729 -8.98024
291 1 9.43674 9.43232 15.7278 -9.00178
292 1 12.5829 9.43274 15.7325 -8.95676
293 1 15.7264 9.43383 15.7262 -8.94852
294 1 18.8696 9.43442 15.7246 -8.9495
295 1 22.0139 9.91912e-16 18.8691 -8.94957
296 1 1.57239 1.57238 20.4415 -8.94958
297 1 3.14481 8.67538e-16 18.8691 -8.94966
298 1 4.71726 1.57239 20.4415 -8.94964
299 1 6.28968 1.1647e-15 18.8691 -8.94963
300 1 7.8621 1.57238 20.4415 -8.94963
301 1 9.43453 2.02148e-15 18.8691 -8.94964
302 1 11.007 1.57238 20.4415 -8.94964
303 1 12.5794 1.62806e-15 18.8691 -8.94965
304 1 14.1518 1.57239 20.4415 -8.94964
305 1 15.7242 1.17182e-16 18.8691 -8.9496
306 1 17.2967 1.5724 20.4415 -8.94965
307 1 18.8691 1.67913e-15 18.8691 -8.9496
308 1 20.4415 1.57241 20.4415 -8.94957
309 1 22.0139 3.14482 18.8691 -8.94963
310 1 1.57236 4.71721 20.4415 -8.94955
311 1 3.1447 3.14468 18.8692 -8.94953
312 1 4.71715 4.71712 20.4415 -8.94984
313 1 6.28966 3.1447 18.8692 -8.9496
314 1 7.86205 4.71708 20.4416 -8.94955
315 1 9.43453 3.14467 18.8692 -8.94961
316 1 11.007 4.71707 20.4415 -8.94963
317 1 12.5794 3.1447 18.8692 -8.94968
318 1 14.1519 4.7171 20.4416 -8.94958
319 1 15.7243 3.14471 18.8692 -8.9496
320 1 17.2968 4.71711 20.4415 -8.94955
321 1 18.8691 3.14476 18.8691 -8.94944
322 1 20.4415 4.71725 20.4415 -8.94966
323 1 -4.70813e-05 6.28966 18.8691 -8.94966
324 1 1.57236 7.86211 20.4415 -8.94968
325 1 3.14451 6.28942 18.8694 -8.94918
326 1 4.7169 7.86184 20.4419 -8.94948
327 1 6.28949 6.28934 18.8696 -8.95043
328 1 7.862 7.8619 20.4418 -8.94995
329 1 9.43441 6.28915 18.8697 -8.94951
330 1 11.0071 7.86167 20.4419 -8.9499
331 1 12.5796 6.28921 18.8698 -8.94955
332 1 14.1521 7.86185 20.4416 -8.95031
333 1 15.7246 6.28927 18.8696 -8.94969
334 1 17.2968 7.86205 20.4415 -8.94954
335 1 18.8692 6.28963 18.8691 -8.94966
5 1 6.28968 8.03991e-16 22.0139 -8.94963
9 1 12.5794 1.78419e-15 22.0139 -8.94963
47 1 12.5795 9.43442 22.0129 -8.95122
15 1 -3.80796e-06 3.14482 22.0139 -8.94962
19 1 6.28966 3.14475 22.0138 -8.94959
21 1 9.43452 3.14472 22.0138 -8.94962
46 1 9.43449 9.43437 22.0137 -8.94969
27 1 18.8691 3.14476 22.0138 -8.94944
31 1 3.14472 6.28963 22.0139 -8.94962
39 1 15.7246 6.28933 22.0135 -8.9498
45 1 6.28939 9.43445 22.014 -8.94972
43 1 -1.07625e-05 9.43452 22.0139 -8.94964
1 1 -1.88886e-05 1.54179e-15 22.0139 -8.94957
13 1 18.8691 2.2393e-15 22.0139 -8.94958
23 1 12.5794 3.14474 22.0138 -8.94961
49 1 18.8692 9.43452 22.0138 -8.94963
183 1 1.57178 4.71684 11.007 -8.9494
344 1 1.57233 11.007 1.57231 -8.94965
345 1 4.7169 11.007 1.572 -8.94957
346 1 7.86184 11.007 1.57211 -8.94927
347 1 11.0068 11.007 1.57119 -8.94752
348 1 14.1529 11.007 1.57024 -8.94935
349 1 17.2971 11.007 1.57201 -8.94959
350 1 20.4416 11.007 1.57233 -8.94961
688 3 10.218 11.007 9.43385 2.31538
352 1 1.57235 14.1518 1.57233 -8.94955
511 1 18.8691 18.8692 9.43453 -8.94964
354 1 4.71703 14.1517 1.57217 -8.94971
510 1 15.7246 18.8695 9.43454 -8.94971
356 1 7.86181 14.152 1.57098 -8.9517
509 1 12.5799 18.8698 9.43425 -8.94843
358 1 11.0067 14.1525 1.57082 -8.95007
508 1 9.43474 18.8706 9.4344 -8.9473
360 1 14.1527 14.1527 1.57031 -8.95112
361 1 15.7246 12.5795 -0.000424375 -8.94942
362 1 17.2971 14.152 1.57202 -8.94952
538 1 17.2967 20.4416 11.007 -8.94961
364 1 20.4416 14.1518 1.57234 -8.94958
365 1 22.0139 15.7242 -1.77214e-05 -8.94964
366 1 1.57234 17.2967 1.57235 -8.94972
507 1 6.28836 18.8717 9.43429 -8.94925
368 1 4.71687 17.297 1.57179 -8.9495
369 1 6.2895 15.7244 -0.000371811 -8.95014
370 1 7.86203 17.297 1.57196 -8.94932
371 1 9.43442 15.7246 -0.000347632 -8.94955
372 1 11.007 17.297 1.57197 -8.94951
373 1 12.5794 15.7245 -0.000277913 -8.94954
374 1 14.1519 17.297 1.57205 -8.94977
506 1 3.14431 18.8696 9.43448 -8.94961
376 1 17.2971 17.2971 1.57199 -8.94867
505 1 -0.000115301 18.8692 9.43452 -8.94961
378 1 20.4416 17.2967 1.57234 -8.9496
504 1 18.8694 15.7246 9.43453 -8.94958
380 1 1.57234 20.4415 1.57234 -8.94945
381 1 3.14475 18.8692 -9.74481e-05 -8.94958
382 1 4.71724 20.4415 1.57234 -8.94971
503 1 15.7256 15.7256 9.43453 -8.94745
384 1 7.86209 20.4416 1.57233 -8.9496
502 1 12.5792 15.7241 9.43324 -8.94416
386 1 11.007 20.4416 1.57232 -8.94962
534 1 4.71685 20.442 11.0071 -8.94949
388 1 14.1518 20.4416 1.57234 -8.94959
501 1 9.43045 15.7237 9.43425 -9.00284
390 1 17.2967 20.4416 1.57233 -8.94955
500 1 6.28168 15.7327 9.43384 -8.9437
392 1 20.4415 20.4415 1.57241 -8.94963
393 1 1.572 11.007 4.71686 -8.94953
394 1 4.71597 11.007 4.71575 -8.94662
395 1 7.86369 11.007 4.7171 -8.94944
396 1 11.011 11.007 4.71813 -9.00158
397 1 14.1592 11.007 4.70994 -8.94319
398 1 17.299 11.007 4.71612 -8.94906
399 1 20.4419 11.007 4.71705 -8.9498
400 1 -1.11665e-05 12.5794 3.14471 -8.9496
401 1 1.5721 14.1517 4.71705 -8.9497
402 1 3.14445 12.5794 3.14444 -8.94918
403 1 4.71589 14.1518 4.71605 -8.95105
404 1 6.28922 12.5789 3.14396 -8.94947
405 1 7.85784 14.1561 4.70886 -8.95385
406 1 9.43464 12.5795 3.14287 -8.951
407 1 11.007 14.1552 4.71075 -8.95093
408 1 12.5811 12.5805 3.13823 -8.95826
409 1 14.1617 14.1614 4.70758 -8.93088
410 1 15.726 12.58 3.14301 -8.9482
411 1 17.299 14.1529 4.71618 -8.95061
412 1 18.8696 12.5795 3.14451 -8.94941
413 1 20.4418 14.1519 4.71711 -8.94998
414 1 22.0139 15.7243 3.14475 -8.94973
415 1 1.57179 17.297 4.71687 -8.94952
416 1 3.14445 15.7243 3.14447 -8.95006
417 1 4.71493 17.299 4.71487 -8.94526
418 1 6.28821 15.7256 3.14215 -8.94998
419 1 7.86183 17.2983 4.71597 -8.94939
420 1 9.43426 15.7255 3.14306 -8.9481
421 1 11.0072 17.2984 4.71595 -8.94812
422 1 12.5797 15.7255 3.14313 -8.94941
423 1 14.1533 17.2994 4.7158 -8.9499
424 1 15.7265 15.7266 3.14258 -8.94523
425 1 17.297 17.2969 4.71722 -8.9501
426 1 18.8696 15.7246 3.14451 -8.94964
427 1 20.4414 17.2967 4.71722 -8.94971
428 1 22.0138 18.8691 3.14476 -8.94956
429 1 1.57232 20.4416 4.71721 -8.94965
430 1 3.14438 18.8695 3.14437 -8.94868
431 1 4.71694 20.4419 4.71692 -8.94982
432 1 6.28958 18.8694 3.14449 -8.94978
433 1 7.86211 20.4419 4.717 -8.94956
434 1 9.43452 18.8695 3.14445 -8.94951
435 1 11.0071 20.4419 4.71696 -8.94956
436 1 12.5795 18.8695 3.1445 -8.94932
437 1 14.152 20.4419 4.71709 -8.95019
438 1 15.7246 18.8697 3.14445 -8.94947
439 1 17.2967 20.4415 4.71727 -8.94965
440 1 18.8691 18.8691 3.14481 -8.94975
441 1 20.4415 20.4415 4.71726 -8.94962
442 1 1.57177 11.007 7.8617 -8.94811
443 1 4.7179 11.007 7.86175 -8.94073
444 1 7.87992 11.007 7.86054 -8.91194
445 1 11.089 11.007 7.63538 -8.1136
446 1 14.1618 11.007 7.85601 -8.97251
447 1 17.2992 11.007 7.86251 -8.95151
448 1 20.4419 11.007 7.86213 -8.94984
449 1 22.0138 12.5794 6.28951 -8.94982
450 1 1.57074 14.152 7.86187 -8.95159
451 1 3.14362 12.5789 6.28914 -8.94964
452 1 4.70806 14.1554 7.85892 -8.95572
453 1 6.28614 12.5774 6.28738 -8.95157
454 1 7.82424 14.1858 7.82945 -8.85379
455 1 9.42266 12.5993 6.28226 -8.90735
456 1 11.0208 14.1589 7.84137 -8.90778
457 1 12.6171 12.611 6.25568 -8.85521
458 1 14.1549 14.1527 7.8646 -8.952
459 1 15.7323 12.5814 6.28718 -8.95739
460 1 17.2978 14.1523 7.86254 -8.94952
461 1 18.8705 12.5795 6.28952 -8.95131
462 1 20.4415 14.1519 7.8621 -8.9499
463 1 -0.000415031 15.7244 6.28953 -8.95002
464 1 1.57179 17.297 7.86194 -8.94933
465 1 3.14216 15.7256 6.28826 -8.95012
466 1 4.7153 17.2988 7.86125 -8.94816
467 1 6.27978 15.7341 6.27983 -8.93092
468 1 7.86039 17.3034 7.8608 -8.95825
469 1 9.43474 15.7305 6.28627 -8.95093
470 1 11.007 17.2985 7.86197 -8.95134
471 1 12.584 15.7326 6.28507 -8.95374
472 1 14.1524 17.2975 7.86246 -8.9487
473 1 15.7254 15.7251 6.28991 -8.9511
474 1 17.297 17.297 7.86209 -8.94929
475 1 18.8694 15.7244 6.28971 -8.94964
476 1 20.4415 17.2968 7.86207 -8.9496
477 1 22.0138 18.8692 6.28965 -8.94957
478 1 1.5723 20.4416 7.86208 -8.94963
479 1 3.14438 18.8695 6.28945 -8.94949
480 1 4.71685 20.442 7.86192 -8.9494
481 1 6.28881 18.8712 6.28872 -8.95114
482 1 7.86205 20.4426 7.86196 -8.95114
483 1 9.43486 18.8707 6.28903 -8.95
484 1 11.0071 20.442 7.86205 -8.94961
485 1 12.5797 18.8706 6.28944 -8.95184
486 1 14.152 20.4418 7.86208 -8.94944
487 1 15.7244 18.8694 6.28976 -8.94952
488 1 17.2967 20.4416 7.8621 -8.94963
489 1 18.8691 18.8692 6.28967 -8.94955
490 1 20.4415 20.4415 7.8621 -8.94964
491 1 -0.000524327 12.5793 9.43451 -8.94994
492 1 3.14177 12.5789 9.43454 -8.95296
493 1 6.27593 12.5901 9.43068 -9.00494
494 1 9.35508 12.8106 9.43197 -8.1639
495 1 12.5624 12.5711 9.43342 -8.9006
496 1 15.7239 12.5796 9.43442 -8.94105
497 1 18.8696 12.5797 9.43452 -8.94845
498 1 22.0134 15.7245 9.43448 -8.94979
499 1 3.14211 15.7257 9.43429 -8.94868
512 1 1.57165 11.007 11.0073 -8.94778
514 1 7.85583 11.007 10.9486 -9.17119
519 1 1.57053 14.1521 11.0071 -8.95148
520 1 4.70771 14.1555 11.0085 -8.95618
532 1 20.4415 17.2968 11.007 -8.94959
527 1 4.7152 17.2989 11.0075 -8.94848
531 1 17.297 17.297 11.007 -8.94921
518 1 20.4418 11.007 11.0069 -8.9498
353 1 3.14471 12.5794 -6.76787e-05 -8.94955
389 1 15.7243 18.8691 -5.56693e-05 -8.9497
377 1 18.8691 15.7243 -6.4923e-05 -8.94966
687 2 8.65952 11.007 12.5754 0.769148
513 1 4.71831 11.007 11.0083 -8.99383
686 1 20.4415 20.4415 20.4415 -8.94957
515 1 11.0909 11.007 11.2292 -8.13686
516 1 14.1614 11.007 11.0128 -8.97396
517 1 17.2991 11.007 11.0065 -8.95161
391 1 18.8691 18.8691 22.0138 -8.94944
685 1 18.8691 18.8691 18.8691 -8.94944
684 1 17.2967 20.4415 20.4415 -8.94965
521 1 7.82235 14.1875 11.0366 -8.90557
522 1 11.0247 14.1626 11.0209 -8.93812
523 1 14.1549 14.1522 11.0045 -8.95454
524 1 17.2978 14.1523 11.0065 -8.94962
525 1 20.4415 14.152 11.0069 -8.94992
683 1 15.7243 18.8692 18.8692 -8.9496
682 1 14.1518 20.4415 20.4415 -8.94964
528 1 7.85968 17.3046 11.0073 -8.95673
529 1 11.0079 17.3001 11.006 -8.95042
530 1 14.1523 17.2972 11.0064 -8.94933
681 1 12.5794 18.8692 18.8692 -8.94968
680 1 11.007 20.4415 20.4415 -8.94964
533 1 1.57229 20.4416 11.007 -8.94962
679 1 9.43453 18.8692 18.8692 -8.94961
535 1 7.86193 20.4428 11.0069 -8.95122
536 1 11.0073 20.4423 11.0068 -8.94985
537 1 14.152 20.4417 11.0069 -8.94944
678 1 7.8621 20.4415 20.4415 -8.94963
539 1 20.4415 20.4415 11.007 -8.94964
540 1 1.57184 11.007 14.1522 -8.94883
541 1 4.71687 11.007 14.1521 -8.99818
542 1 7.84239 11.007 14.2005 -9.20851
543 1 11.0157 11.007 14.1581 -9.03378
544 1 14.1599 11.007 14.1591 -8.94511
545 1 17.2991 11.007 14.1529 -8.94929
546 1 20.4418 11.007 14.152 -8.94978
547 1 22.0136 12.5794 12.5795 -8.95004
548 1 1.57168 14.152 14.1521 -8.94982
549 1 3.1427 12.5792 12.5799 -8.95063
550 1 4.71454 14.1529 14.1531 -8.94979
551 1 6.28237 12.5816 12.5806 -8.98567
552 1 7.85569 14.1578 14.1618 -9.00506
553 1 9.44478 12.6493 12.5843 -9.17016
554 1 11.0111 14.1594 14.1628 -8.9817
555 1 12.6138 12.6095 12.6137 -8.90752
556 1 14.1619 14.1612 14.1612 -8.93319
557 1 15.7319 12.5813 12.5818 -8.95638
558 1 17.2991 14.1529 14.1528 -8.9507
559 1 18.8705 12.5795 12.5795 -8.95122
560 1 20.4418 14.1519 14.152 -8.95006
561 1 22.0134 15.7244 12.5795 -8.94993
562 1 1.57174 17.2971 14.1522 -8.94962
563 1 3.14205 15.7257 12.5805 -8.95009
564 1 4.71465 17.2993 14.1542 -8.94551
565 1 6.27965 15.735 12.589 -8.93207
566 1 7.86113 17.2996 14.1537 -8.94786
567 1 9.43521 15.7405 12.5823 -8.96458
568 1 11.0081 17.3001 14.1539 -8.94751
569 1 12.5838 15.7326 12.5836 -8.9534
570 1 14.1534 17.2993 14.1531 -8.95004
571 1 15.7254 15.7251 12.5791 -8.95092
572 1 17.297 17.2969 14.1518 -8.95009
573 1 18.8693 15.7244 12.5793 -8.94964
574 1 20.4414 17.2967 14.1518 -8.9497
575 1 22.0138 18.8692 12.5794 -8.94958
576 1 1.57231 20.4416 14.1518 -8.94964
577 1 3.14433 18.8696 12.5796 -8.94946
578 1 4.71688 20.442 14.1521 -8.94986
579 1 6.28872 18.8715 12.5803 -8.95111
580 1 7.86199 20.4421 14.1522 -8.94961
581 1 9.43484 18.8724 12.58 -8.95281
582 1 11.0072 20.4422 14.1522 -8.94978
583 1 12.5798 18.8707 12.5796 -8.9514
584 1 14.152 20.4419 14.152 -8.95011
585 1 15.7244 18.8693 12.5792 -8.94964
586 1 17.2967 20.4415 14.1518 -8.94967
587 1 18.8691 18.8692 12.5794 -8.94955
588 1 20.4415 20.4415 14.1518 -8.94962
589 1 1.5722 11.007 17.2968 -8.94943
590 1 4.71685 11.007 17.2973 -8.94941
591 1 7.8615 11.007 17.3067 -8.96346
592 1 11.0069 11.007 17.2995 -8.94959
593 1 14.1533 11.007 17.2992 -8.9487
594 1 17.2972 11.007 17.2971 -8.94955
595 1 20.4416 11.007 17.2968 -8.94961
596 1 -0.000119332 12.5794 15.7244 -8.94969
597 1 1.57214 14.1518 17.2968 -8.94985
598 1 3.1439 12.5793 15.7246 -8.9508
599 1 4.71588 14.1529 17.2981 -8.94775
600 1 6.28516 12.5836 15.729 -8.98024
601 1 7.86195 14.1522 17.2988 -8.9521
602 1 9.43674 12.5816 15.7278 -9.00178
603 1 11.0073 14.1531 17.2996 -8.95059
604 1 12.5829 12.5812 15.7325 -8.95676
605 1 14.1532 14.153 17.2991 -8.95052
606 1 15.7264 12.5801 15.7262 -8.94852
607 1 17.2972 14.152 17.2971 -8.94953
608 1 18.8696 12.5795 15.7246 -8.9495
609 1 20.4416 14.1518 17.2967 -8.94963
610 1 22.0138 15.7243 15.7243 -8.94969
611 1 1.57227 17.2967 17.2968 -8.94967
612 1 3.1441 15.7246 15.7248 -8.94969
613 1 4.71666 17.2974 17.2975 -8.94949
614 1 6.28757 15.7268 15.7275 -8.95062
615 1 7.86201 17.2972 17.2973 -8.94922
616 1 9.43408 15.7263 15.7261 -8.94858
617 1 11.007 17.2972 17.2973 -8.94978
618 1 12.5809 15.7267 15.7271 -8.94748
619 1 14.1522 17.2973 17.2973 -8.94929
620 1 15.7267 15.7266 15.7265 -8.94564
621 1 17.2971 17.2971 17.2971 -8.94873
622 1 18.8696 15.7246 15.7245 -8.94968
623 1 20.4416 17.2967 17.2967 -8.94959
624 1 -0.000127596 18.8692 15.7243 -8.9496
625 1 1.57232 20.4416 17.2967 -8.94944
626 1 3.14429 18.8696 15.7247 -8.94868
627 1 4.71717 20.4416 17.2968 -8.94968
628 1 6.28937 18.8698 15.7248 -8.94971
629 1 7.86209 20.4416 17.2968 -8.94959
630 1 9.4345 18.8698 15.7247 -8.9494
631 1 11.007 20.4416 17.2968 -8.94961
632 1 12.5797 18.8699 15.7248 -8.94919
633 1 14.1519 20.4416 17.2968 -8.94954
634 1 15.7246 18.8697 15.7246 -8.94954
635 1 17.2967 20.4416 17.2967 -8.94958
636 1 18.8691 18.8691 15.7242 -8.94975
637 1 20.4415 20.4415 17.2967 -8.94964
638 1 1.57235 11.007 20.4415 -8.94964
639 1 4.71701 11.007 20.4417 -8.94933
640 1 7.86196 11.007 20.4431 -8.95216
641 1 11.0069 11.007 20.4419 -8.94949
642 1 14.1522 11.007 20.4416 -8.94994
643 1 17.2968 11.007 20.4415 -8.94959
644 1 20.4415 11.007 20.4415 -8.94964
645 1 22.0139 12.5794 18.8691 -8.94961
646 1 1.57236 14.1518 20.4415 -8.94968
647 1 3.1446 12.5794 18.8692 -8.94974
648 1 4.7169 14.1521 20.4419 -8.94948
649 1 6.28865 12.5802 18.8709 -8.94899
650 1 7.862 14.152 20.4418 -8.94995
651 1 9.43502 12.5802 18.8709 -8.94807
652 1 11.0071 14.1522 20.4419 -8.9499
653 1 12.5798 12.5796 18.8707 -8.95147
654 1 14.1521 14.152 20.4416 -8.95031
655 1 15.7247 12.5795 18.8696 -8.94942
656 1 17.2968 14.1519 20.4415 -8.94954
657 1 18.8692 12.5794 18.8692 -8.94962
658 1 20.4415 14.1518 20.4415 -8.94963
659 1 -4.70813e-05 15.7242 18.8691 -8.94966
660 1 1.57236 17.2967 20.4415 -8.94955
661 1 3.14451 15.7245 18.8694 -8.94918
662 1 4.71715 17.2968 20.4415 -8.94984
663 1 6.28949 15.7246 18.8696 -8.95043
664 1 7.86205 17.2968 20.4416 -8.94955
665 1 9.43441 15.7248 18.8697 -8.94951
666 1 11.007 17.2968 20.4415 -8.94963
667 1 12.5796 15.7247 18.8698 -8.94955
668 1 14.1519 17.2968 20.4416 -8.94958
669 1 15.7246 15.7246 18.8696 -8.94969
670 1 17.2968 17.2968 20.4415 -8.94955
671 1 18.8692 15.7243 18.8691 -8.94966
672 1 20.4415 17.2967 20.4415 -8.94966
673 1 22.0139 18.8691 18.8691 -8.94963
674 1 1.57239 20.4415 20.4415 -8.94958
675 1 3.1447 18.8692 18.8692 -8.94953
676 1 4.71726 20.4415 20.4415 -8.94964
677 1 6.28966 18.8692 18.8692 -8.9496
351 1 -1.07625e-05 12.5794 22.0139 -8.94964
385 1 9.43452 18.8692 22.0138 -8.94962
355 1 6.28939 12.5795 22.014 -8.94972
357 1 9.43449 12.5795 22.0137 -8.94969
359 1 12.5795 12.5795 22.0129 -8.95122
367 1 3.14472 15.7243 22.0139 -8.94962
375 1 15.7246 15.7246 22.0135 -8.9498
383 1 6.28966 18.8692 22.0138 -8.94959
379 1 -3.80796e-06 18.8691 22.0139 -8.94962
363 1 18.8692 12.5794 22.0138 -8.94963
387 1 12.5794 18.8692 22.0138 -8.94961
526 1 1.57178 17.2971 11.007 -8.9494
