ITEM: TIMESTEP
101
ITEM: NUMBER OF ATOMS
688
ITEM: BOX BOUNDS pp pp pp
0.0000000000000000e+00 2.2013900999999997e+01
0.0000000000000000e+00 2.2013900999999997e+01
0.0000000000000000e+00 2.2013900999999997e+01
ITEM: ATOMS id type x y z c_pot
191 1 4.70518 7.85624 11.0088 -8.95696
2 1 1.57169 1.572 1.57179 -8.94915
3 1 3.14439 1.20492e-15 -0.000276555 -8.94958
4 1 4.71665 1.57187 1.57164 -8.94961
175 1 18.8692 9.43432 9.43456 -8.94767
6 1 7.8619 1.57186 1.5717 -8.94945
7 1 9.4345 1.5532e-15 -0.0002517 -8.94953
8 1 11.0071 1.57184 1.57175 -8.94949
174 1 15.7215 9.43531 9.4346 -8.94002
10 1 14.1523 1.57181 1.57185 -8.94949
173 1 12.5565 9.4444 9.4341 -8.90383
12 1 17.2973 1.57178 1.57187 -8.94943
190 1 1.56928 7.86144 11.0072 -8.95208
14 1 20.4415 1.57211 1.57214 -8.94952
172 1 9.35959 9.19792 9.43158 -8.17362
16 1 1.57176 4.71675 1.57174 -8.94979
17 1 3.14409 3.14416 -0.000513091 -8.94949
18 1 4.71573 4.71583 1.57046 -8.94945
171 1 6.27868 9.42151 9.43049 -9.00443
20 1 7.86152 4.71584 1.57082 -8.94914
170 1 3.14211 9.43485 9.43454 -8.95261
22 1 11.0072 4.71569 1.5709 -8.94936
189 1 20.4411 4.71652 11.0071 -8.94957
24 1 14.1529 4.71549 1.57084 -8.94961
169 1 -0.000779857 9.43463 9.43452 -8.94942
26 1 17.2984 4.71555 1.57105 -8.94821
168 1 18.8696 6.28885 9.43453 -8.94967
28 1 20.442 4.71665 1.5719 -8.94955
29 1 22.0139 6.28943 -0.000214333 -8.94952
30 1 1.57203 7.86196 1.57189 -8.94938
167 1 15.726 6.28805 9.43448 -8.94706
32 1 4.71643 7.86202 1.57162 -8.94971
33 1 6.28894 6.28898 -0.000846826 -8.95069
34 1 7.86161 7.86144 1.57015 -8.95253
35 1 9.43423 6.28855 -0.000811494 -8.94963
36 1 11.0071 7.86059 1.56954 -8.9507
37 1 12.5799 6.28842 -0.000919695 -8.94972
38 1 14.1542 7.86014 1.56851 -8.95154
166 1 12.5793 6.28998 9.43259 -8.94221
40 1 17.2986 7.86105 1.57086 -8.94916
165 1 9.42919 6.29126 9.43352 -9.0039
42 1 20.4422 7.86173 1.57181 -8.94943
164 1 6.2774 6.27702 9.43317 -8.94208
163 1 3.13918 6.28642 9.43413 -8.94867
162 1 22.0123 6.28881 9.43445 -8.95002
161 1 18.8693 3.14423 9.4345 -8.94956
160 1 15.725 3.14398 9.43444 -8.94965
48 1 15.7259 9.43397 -0.00124204 -8.94936
188 1 17.2975 4.7163 11.0069 -8.94899
50 1 -0.000472588 1.56976e-15 3.14447 -8.94949
51 1 1.57141 1.57187 4.71656 -8.94942
52 1 3.14387 9.43834e-16 3.14388 -8.94952
53 1 4.71591 1.57105 4.71584 -8.95001
54 1 6.28926 4.38456e-16 3.14391 -8.94959
55 1 7.86183 1.57115 4.71611 -8.94972
56 1 9.4346 1.39062e-15 3.14398 -8.94954
57 1 11.0074 1.57127 4.71624 -8.94965
58 1 12.5798 1.00264e-15 3.14412 -8.94953
59 1 14.1526 1.57126 4.71667 -8.95073
60 1 15.7249 1.23285e-15 3.14432 -8.95006
61 1 17.2971 1.57198 4.71713 -8.94965
62 1 18.8692 1.37571e-15 3.14467 -8.94965
63 1 20.4413 1.57212 4.71702 -8.94949
64 1 22.0132 3.14423 3.14422 -8.94949
65 1 1.57034 4.71596 4.71587 -8.94954
66 1 3.14303 3.14331 3.14308 -8.9482
67 1 4.71234 4.71258 4.71247 -8.94454
68 1 6.28868 3.14311 3.14313 -8.94962
69 1 7.86045 4.713 4.7139 -8.94912
70 1 9.43444 3.14317 3.14336 -8.94934
71 1 11.0077 4.71339 4.71413 -8.94773
72 1 12.58 3.1431 3.14351 -8.94914
73 1 14.1554 4.71208 4.71393 -8.94972
74 1 15.7258 3.14278 3.1435 -8.94938
75 1 17.2981 4.71593 4.71674 -8.95045
76 1 18.8696 3.14412 3.14445 -8.94985
77 1 20.4414 4.71663 4.71687 -8.94989
78 1 22.0138 6.2893 3.14422 -8.94989
79 1 1.5714 7.86205 4.71652 -8.94993
80 1 3.14323 6.28898 3.14336 -8.95036
81 1 4.7142 7.86137 4.71477 -8.95153
82 1 6.28634 6.28642 3.13971 -8.94985
83 1 7.85564 7.85468 4.70587 -8.95307
84 1 9.43399 6.28661 3.14106 -8.9477
85 1 11.0086 7.85612 4.70726 -8.95087
86 1 12.5813 6.28639 3.14061 -8.94915
87 1 14.1654 7.84987 4.70417 -8.93009
88 1 15.7291 6.28514 3.14045 -8.94456
89 1 17.3014 7.85986 4.71493 -8.95088
90 1 18.8709 6.28845 3.14372 -8.94968
91 1 20.4425 7.86165 4.71665 -8.95024
92 1 0.00014228 9.43439 3.14413 -8.94955
93 1 3.14385 9.43449 3.1438 -8.94888
94 1 6.28901 9.43497 3.14358 -8.94919
95 1 9.43553 9.43404 3.14279 -8.9519
96 1 12.5831 9.433 3.13636 -8.95921
97 1 15.7288 9.43295 3.14067 -8.94757
98 1 18.8711 9.43404 3.14354 -8.94927
99 1 22.0133 1.35402e-15 6.28939 -8.94951
100 1 1.57125 1.57181 7.86176 -8.94946
101 1 3.14357 8.72618e-16 6.28892 -8.94933
102 1 4.71544 1.57081 7.86128 -8.94933
103 1 6.28892 1.66415e-15 6.28879 -8.95067
104 1 7.86164 1.57047 7.8616 -8.9514
105 1 9.43477 1.69869e-15 6.28899 -8.95027
106 1 11.0072 1.57165 7.8619 -8.94941
107 1 12.5798 1.96943e-15 6.28943 -8.95042
108 1 14.1525 1.57184 7.86193 -8.94924
109 1 15.7248 1.4239e-15 6.28958 -8.94943
110 1 17.2971 1.57204 7.86205 -8.94956
111 1 18.8692 1.6537e-15 6.28958 -8.94953
112 1 20.4412 1.5721 7.86199 -8.94954
113 1 22.013 3.14413 6.28924 -8.94942
114 1 1.57003 4.71575 7.86144 -8.94921
115 1 3.14265 3.14298 6.2884 -8.9491
116 1 4.71223 4.71235 7.85996 -8.94739
117 1 6.28736 3.14056 6.28747 -8.95157
118 1 7.85846 4.70813 7.85991 -8.95919
119 1 9.43464 3.1416 6.28811 -8.9506
120 1 11.0066 4.71491 7.86119 -8.95217
121 1 12.5801 3.14224 6.28892 -8.95263
122 1 14.153 4.71591 7.86213 -8.94809
123 1 15.725 3.14383 6.28963 -8.94941
124 1 17.2976 4.71628 7.86205 -8.94909
125 1 18.8693 3.14425 6.28955 -8.94943
126 1 20.4411 4.71652 7.86193 -8.94959
127 1 -0.0012623 6.28904 6.28914 -8.95032
128 1 1.56941 7.86156 7.86166 -8.95217
129 1 3.13955 6.28687 6.28688 -8.9504
130 1 4.70536 7.8565 7.85803 -8.9567
131 1 6.2759 6.2761 6.27674 -8.93006
132 1 7.82089 7.82384 7.82712 -8.85378
133 1 9.43358 6.27982 6.28346 -8.95089
134 1 11.0231 7.85247 7.83592 -8.90429
135 1 12.5866 6.2784 6.28168 -8.95294
136 1 14.1554 7.8615 7.86413 -8.9531
137 1 15.727 6.28785 6.28932 -8.95174
138 1 17.2981 7.86159 7.86275 -8.94988
139 1 18.8699 6.28903 6.28964 -8.94991
140 1 20.4413 7.86179 7.86212 -8.94998
141 1 22.0138 9.43456 6.28928 -8.94987
142 1 3.14312 9.43517 6.2889 -8.94993
143 1 6.28553 9.43573 6.28685 -8.95229
144 1 9.42109 9.40931 6.27988 -8.90375
145 1 12.6204 9.40138 6.25209 -8.85519
146 1 15.7348 9.43203 6.28543 -8.95814
147 1 18.8717 9.43423 6.2892 -8.95178
148 1 -0.000628404 1.03137e-15 9.43449 -8.94952
149 1 3.14345 1.46963e-15 9.43441 -8.94947
150 1 6.28839 1.53379e-15 9.43421 -8.95041
151 1 9.43472 2.22313e-15 9.43421 -8.94846
152 1 12.5801 1.95022e-15 9.43419 -8.94924
153 1 15.7248 1.06204e-15 9.43445 -8.9496
154 1 18.8692 1.61876e-15 9.4345 -8.94956
155 1 -0.000939755 3.14408 9.43448 -8.9495
156 1 3.14246 3.14288 9.43435 -8.94944
157 1 6.28632 3.1398 9.43395 -8.94943
158 1 9.43424 3.14311 9.43403 -8.94615
159 1 12.5802 3.14383 9.43385 -8.94807
177 1 4.71544 1.57079 11.0074 -8.94942
181 1 17.2971 1.57205 11.0069 -8.94953
184 1 4.71221 4.71225 11.0083 -8.94785
11 1 15.7246 1.75107e-15 -0.000198527 -8.94954
25 1 15.7249 3.14395 -0.000402388 -8.94958
41 1 18.87 6.28905 -0.000427519 -8.94945
44 1 3.14423 9.43446 -0.000187072 -8.94944
176 1 1.57124 1.5718 11.0071 -8.94945
343 1 18.8701 9.43428 18.8697 -8.94947
178 1 7.86146 1.57001 11.0068 -8.95162
179 1 11.0074 1.57115 11.0065 -8.94984
180 1 14.1525 1.57191 11.0067 -8.94923
342 1 15.726 9.43395 18.8707 -8.94936
182 1 20.4412 1.57209 11.007 -8.94954
341 1 12.5803 9.43417 18.8716 -8.95173
340 1 9.4352 9.43363 18.8718 -8.94792
185 1 7.85767 4.70617 11.0072 -8.95771
186 1 11.0077 4.71256 11.0058 -8.95138
187 1 14.1527 4.71619 11.0062 -8.9489
339 1 6.28823 9.43362 18.8717 -8.94869
338 1 3.14413 9.43448 18.8697 -8.94968
337 1 22.0139 9.43444 18.8694 -8.94954
336 1 20.4419 7.86185 20.4415 -8.94952
192 1 7.81875 7.82068 11.0372 -8.90387
193 1 11.0271 7.84712 11.0251 -8.93419
194 1 14.1552 7.86177 11.005 -8.95564
195 1 17.298 7.86166 11.0064 -8.95002
196 1 20.4413 7.86178 11.0069 -8.94999
197 1 22.0133 1.02454e-15 12.5796 -8.9495
198 1 1.57134 1.57185 14.1524 -8.94943
199 1 3.14353 5.76252e-16 12.58 -8.94938
200 1 4.71571 1.57089 14.1532 -8.95002
201 1 6.28876 1.00679e-15 12.58 -8.95066
202 1 7.86158 1.57056 14.1531 -8.94987
203 1 9.43477 1.48065e-15 12.5798 -8.95131
204 1 11.0077 1.57065 14.1529 -8.94998
205 1 12.58 3.18442e-16 12.5794 -8.95034
206 1 14.1528 1.57119 14.1523 -8.95059
207 1 15.7248 1.2367e-15 12.5793 -8.94949
208 1 17.2971 1.57199 14.1519 -8.94971
209 1 18.8692 1.15562e-15 12.5794 -8.94952
210 1 20.4413 1.57212 14.152 -8.9495
211 1 22.013 3.14412 12.5797 -8.94943
212 1 1.57027 4.71592 14.1531 -8.94967
213 1 3.14259 3.14291 12.5804 -8.9491
214 1 4.71198 4.71205 14.1565 -8.9448
215 1 6.28717 3.13995 12.5813 -8.95152
216 1 7.85958 4.71071 14.1559 -8.94763
217 1 9.43466 3.13909 12.5806 -8.95383
218 1 11.0089 4.7108 14.1558 -8.94709
219 1 12.5804 3.14176 12.5798 -8.95212
220 1 14.1555 4.71203 14.1549 -8.94978
221 1 15.725 3.1439 12.5792 -8.94959
222 1 17.2981 4.71594 14.1523 -8.95043
223 1 18.8693 3.14425 12.5795 -8.94941
224 1 20.4413 4.71661 14.1521 -8.94987
225 1 22.0126 6.28899 12.5798 -8.9502
226 1 1.57108 7.86187 14.1525 -8.95018
227 1 3.13958 6.2868 12.5816 -8.95036
228 1 4.71305 7.86003 14.1544 -8.9504
229 1 6.2759 6.2745 12.5916 -8.93121
230 1 7.85305 7.85108 14.1652 -9.00211
231 1 9.43403 6.26761 12.5844 -8.96504
232 1 11.0128 7.85049 14.1664 -8.98133
233 1 12.5863 6.27786 12.5866 -8.95219
234 1 14.1652 7.85021 14.1644 -8.93292
235 1 15.7269 6.28786 12.5796 -8.95155
236 1 17.3012 7.85998 14.154 -8.95102
237 1 18.8698 6.28904 12.5794 -8.9499
238 1 20.4423 7.86166 14.1523 -8.95032
239 1 22.0137 9.4346 12.5797 -8.95005
240 1 3.14273 9.43499 12.58 -8.95139
241 1 6.28203 9.43043 12.5805 -8.98797
242 1 9.44122 9.35422 12.5865 -9.16164
243 1 12.6155 9.40259 12.6168 -8.91024
244 1 15.7336 9.43219 12.5835 -8.95714
245 1 18.8714 9.43427 12.5798 -8.95156
246 1 -0.000519167 1.5755e-15 15.7246 -8.94951
247 1 1.57158 1.57197 17.2974 -8.94914
248 1 3.14372 2.26617e-16 15.7252 -8.94953
249 1 4.71642 1.5717 17.2977 -8.94956
250 1 6.289 2.57642e-16 15.7254 -8.94963
251 1 7.86182 1.57169 17.2977 -8.94942
252 1 9.43461 2.43514e-16 15.7253 -8.94954
253 1 11.0072 1.57168 17.2976 -8.94947
254 1 12.5801 2.95678e-16 15.7252 -8.94962
255 1 14.1525 1.57164 17.2975 -8.94939
256 1 15.725 2.81078e-16 15.7248 -8.95002
257 1 17.2974 1.57178 17.2972 -8.94947
258 1 18.8692 1.16952e-15 15.7244 -8.9497
259 1 20.4415 1.5721 17.297 -8.94957
260 1 -0.00070186 3.14421 15.7248 -8.94956
261 1 1.57161 4.71667 17.2975 -8.94976
262 1 3.14281 3.14314 15.7261 -8.94823
263 1 4.71528 4.71527 17.2992 -8.94931
264 1 6.28823 3.1424 15.7264 -8.94951
265 1 7.86138 4.71535 17.2989 -8.94899
266 1 9.43444 3.14243 15.726 -8.94923
267 1 11.0073 4.7152 17.2988 -8.94961
268 1 12.5806 3.14236 15.7261 -8.94894
269 1 14.1535 4.71503 17.2988 -8.94901
270 1 15.7259 3.14276 15.7256 -8.94944
271 1 17.2985 4.71553 17.2981 -8.94835
272 1 18.8696 3.14411 15.7246 -8.94986
273 1 20.4419 4.71662 17.2972 -8.94958
274 1 22.0136 6.28923 15.7249 -8.94991
275 1 1.57183 7.86194 17.2973 -8.94982
276 1 3.14279 6.28865 15.7259 -8.94998
277 1 4.71533 7.86086 17.299 -8.9481
278 1 6.2854 6.28471 15.7304 -8.94995
279 1 7.86168 7.86103 17.3004 -8.95298
280 1 9.43384 6.28496 15.7285 -8.94798
281 1 11.0078 7.85962 17.3015 -8.95123
282 1 12.5828 6.28475 15.73 -8.9469
283 1 14.1546 7.85984 17.3012 -8.95107
284 1 15.7292 6.28519 15.7286 -8.94517
285 1 17.2987 7.86104 17.2983 -8.94924
286 1 18.8708 6.28847 15.7253 -8.94979
287 1 20.4421 7.86174 17.2973 -8.94952
288 1 0.000106466 9.43443 15.7249 -8.9496
289 1 3.14381 9.43466 15.7251 -8.95064
290 1 6.28608 9.43051 15.7291 -8.97976
291 1 9.43737 9.43133 15.7283 -9.00342
292 1 12.5841 9.43236 15.7343 -8.95821
293 1 15.7288 9.43299 15.7285 -8.948
294 1 18.8711 9.43407 15.7255 -8.94935
295 1 22.0136 1.74767e-15 18.8693 -8.94923
296 1 1.57197 1.57209 20.4416 -8.94934
297 1 3.14428 1.25174e-15 18.8696 -8.94954
298 1 4.71687 1.57206 20.4416 -8.94955
299 1 6.28936 1.52284e-15 18.8696 -8.9495
300 1 7.86193 1.57202 20.4416 -8.94951
301 1 9.43451 1.50492e-15 18.8696 -8.94952
302 1 11.007 1.57199 20.4416 -8.94952
303 1 12.5797 9.18947e-16 18.8696 -8.94952
304 1 14.1521 1.57199 20.4416 -8.94952
305 1 15.7247 9.64262e-16 18.8695 -8.94946
306 1 17.2971 1.57203 20.4416 -8.9495
307 1 18.8694 1.04333e-15 18.8694 -8.94937
308 1 20.4417 1.57218 20.4415 -8.94923
309 1 22.0137 3.14447 18.8694 -8.94955
310 1 1.57202 4.71691 20.4417 -8.94956
311 1 3.14394 3.14403 18.8699 -8.94941
312 1 4.7165 4.71652 20.4417 -8.95015
313 1 6.28915 3.14398 18.8699 -8.94949
314 1 7.86169 4.71632 20.4418 -8.94952
315 1 9.43444 3.14386 18.8699 -8.94948
316 1 11.007 4.71617 20.4418 -8.94957
317 1 12.5798 3.14384 18.8699 -8.94953
318 1 14.1525 4.71616 20.4418 -8.94956
319 1 15.725 3.14386 18.8698 -8.94942
320 1 17.2977 4.71629 20.4416 -8.94949
321 1 18.8697 3.14415 18.8695 -8.94917
322 1 20.4418 4.71687 20.4415 -8.94953
323 1 -3.99297e-05 6.2894 18.8694 -8.9496
324 1 1.57207 7.86197 20.4416 -8.94959
325 1 3.14391 6.28912 18.87 -8.94926
326 1 4.71632 7.86164 20.4423 -8.94939
327 1 6.28883 6.28872 18.8708 -8.95101
328 1 7.86181 7.86169 20.4423 -8.95025
329 1 9.43425 6.28822 18.8708 -8.94959
330 1 11.0072 7.86113 20.4423 -8.95022
331 1 12.5802 6.28815 18.871 -8.94973
332 1 14.1528 7.86129 20.4418 -8.95066
333 1 15.7258 6.28826 18.8706 -8.9499
334 1 17.2979 7.86148 20.4416 -8.94937
335 1 18.87 6.28904 18.8696 -8.94949
5 1 6.28943 1.62443e-15 22.0136 -8.94951
9 1 12.5796 8.36278e-16 22.0137 -8.94952
47 1 12.58 9.43425 22.0125 -8.95146
15 1 -0.000124844 3.14448 22.0137 -8.94951
19 1 6.28924 3.14411 22.0135 -8.94948
21 1 9.43443 3.14401 22.0135 -8.94949
46 1 9.43466 9.43437 22.014 -8.94954
27 1 18.8697 3.14417 22.0136 -8.94914
31 1 3.14419 6.28936 22.0137 -8.94966
39 1 15.7257 6.28833 22.0127 -8.94998
45 1 6.28902 9.43442 22.0142 -8.94963
43 1 7.24992e-05 9.43443 22.0137 -8.94953
1 1 -0.000270166 1.52786e-15 22.0137 -8.94922
13 1 18.8694 1.09244e-15 22.0137 -8.94932
23 1 12.5797 3.14397 22.0135 -8.94947
49 1 18.8701 9.43428 22.0134 -8.94947
183 1 1.57004 4.71575 11.0074 -8.94928
344 1 1.57207 11.007 1.57186 -8.94953
345 1 4.71644 11.007 1.5717 -8.94952
346 1 7.862 11.007 1.57244 -8.94908
347 1 11.0075 11.007 1.57171 -8.94625
348 1 14.1548 11.007 1.56836 -8.94956
349 1 17.2988 11.007 1.5708 -8.94942
350 1 20.4422 11.007 1.57177 -8.94949
688 3 10.2139 11.007 9.43272 2.30691
352 1 1.57203 14.1519 1.57189 -8.94938
511 1 18.8693 18.8697 9.4345 -8.94956
354 1 4.71643 14.1519 1.57162 -8.94971
510 1 15.725 18.8699 9.43444 -8.94965
356 1 7.86161 14.1525 1.57015 -8.95253
509 1 12.5802 18.8701 9.43385 -8.94807
358 1 11.0071 14.1533 1.56954 -8.9507
508 1 9.43424 18.8708 9.43403 -8.94615
360 1 14.1542 14.1538 1.56851 -8.95154
361 1 15.7259 12.5799 -0.00124204 -8.94936
362 1 17.2986 14.1529 1.57086 -8.94916
538 1 17.2971 20.4419 11.0069 -8.94953
364 1 20.4422 14.1522 1.57181 -8.94943
365 1 22.0139 15.7245 -0.000214333 -8.94952
366 1 1.57176 17.2972 1.57174 -8.94979
507 1 6.28632 18.8741 9.43395 -8.94943
368 1 4.71573 17.2981 1.57046 -8.94945
369 1 6.28894 15.7249 -0.000846826 -8.95069
370 1 7.86152 17.2981 1.57082 -8.94914
371 1 9.43423 15.7254 -0.000811494 -8.94963
372 1 11.0072 17.2982 1.5709 -8.94936
373 1 12.5799 15.7255 -0.000919695 -8.94972
374 1 14.1529 17.2984 1.57084 -8.94961
506 1 3.14246 18.871 9.43435 -8.94944
376 1 17.2984 17.2984 1.57105 -8.94821
505 1 -0.000939755 18.8698 9.43448 -8.9495
378 1 20.442 17.2973 1.5719 -8.94955
504 1 18.8696 15.7251 9.43453 -8.94967
380 1 1.57169 20.4419 1.57179 -8.94915
381 1 3.14409 18.8697 -0.000513091 -8.94949
382 1 4.71665 20.442 1.57164 -8.94961
503 1 15.726 15.7258 9.43448 -8.94706
384 1 7.8619 20.442 1.5717 -8.94945
502 1 12.5793 15.7239 9.43259 -8.94221
386 1 11.0071 20.4421 1.57175 -8.94949
534 1 4.71544 20.4431 11.0074 -8.94942
388 1 14.1523 20.4421 1.57185 -8.94949
501 1 9.42919 15.7226 9.43352 -9.0039
390 1 17.2973 20.4421 1.57187 -8.94943
500 1 6.2774 15.7369 9.43317 -8.94208
392 1 20.4415 20.4418 1.57214 -8.94952
393 1 1.57169 11.007 4.7163 -8.94953
394 1 4.71552 11.007 4.71515 -8.94593
395 1 7.86449 11.007 4.71759 -8.9484
396 1 11.0126 11.007 4.72041 -9.0027
397 1 14.1632 11.007 4.70657 -8.94198
398 1 17.3016 11.007 4.7145 -8.94904
399 1 20.4427 11.007 4.71646 -8.94997
400 1 0.00014228 12.5795 3.14413 -8.94955
401 1 1.5714 14.1519 4.71652 -8.94993
402 1 3.14385 12.5794 3.1438 -8.94888
403 1 4.7142 14.1525 4.71477 -8.95153
404 1 6.28901 12.5789 3.14358 -8.94919
405 1 7.85564 14.1592 4.70587 -8.95307
406 1 9.43553 12.5799 3.14279 -8.9519
407 1 11.0086 14.1578 4.70726 -8.95087
408 1 12.5831 12.5809 3.13636 -8.95921
409 1 14.1654 14.164 4.70417 -8.93009
410 1 15.7288 12.5809 3.14067 -8.94757
411 1 17.3014 14.154 4.71493 -8.95088
412 1 18.8711 12.5799 3.14354 -8.94927
413 1 20.4425 14.1522 4.71665 -8.95024
414 1 22.0138 15.7246 3.14422 -8.94989
415 1 1.57034 17.2979 4.71587 -8.94954
416 1 3.14323 15.7249 3.14336 -8.95036
417 1 4.71234 17.3013 4.71247 -8.94454
418 1 6.28634 15.7275 3.13971 -8.94985
419 1 7.86045 17.3009 4.7139 -8.94912
420 1 9.43399 15.7273 3.14106 -8.9477
421 1 11.0077 17.3005 4.71413 -8.94773
422 1 12.5813 15.7275 3.14061 -8.94915
423 1 14.1554 17.3018 4.71393 -8.94972
424 1 15.7291 15.7288 3.14045 -8.94456
425 1 17.2981 17.298 4.71674 -8.95045
426 1 18.8709 15.7254 3.14372 -8.94968
427 1 20.4414 17.2973 4.71687 -8.94989
428 1 22.0132 18.8697 3.14422 -8.94949
429 1 1.57141 20.442 4.71656 -8.94942
430 1 3.14303 18.8706 3.14308 -8.9482
431 1 4.71591 20.4429 4.71584 -8.95001
432 1 6.28868 18.8708 3.14313 -8.94962
433 1 7.86183 20.4428 4.71611 -8.94972
434 1 9.43444 18.8707 3.14336 -8.94934
435 1 11.0074 20.4426 4.71624 -8.94965
436 1 12.58 18.8708 3.14351 -8.94914
437 1 14.1526 20.4426 4.71667 -8.95073
438 1 15.7258 18.8711 3.1435 -8.94938
439 1 17.2971 20.4419 4.71713 -8.94965
440 1 18.8696 18.8698 3.14445 -8.94985
441 1 20.4413 20.4418 4.71702 -8.94949
442 1 1.57195 11.007 7.86169 -8.94736
443 1 4.7201 11.007 7.86234 -8.93997
444 1 7.88471 11.007 7.86096 -8.91237
445 1 11.0843 11.007 7.63118 -8.12431
446 1 14.1595 11.007 7.85409 -8.97254
447 1 17.299 11.007 7.86233 -8.95105
448 1 20.442 11.007 7.86214 -8.94936
449 1 22.0138 12.5793 6.28928 -8.94987
450 1 1.56941 14.1523 7.86166 -8.95217
451 1 3.14312 12.5787 6.2889 -8.94993
452 1 4.70536 14.1574 7.85803 -8.9567
453 1 6.28553 12.5782 6.28685 -8.95229
454 1 7.82089 14.1901 7.82712 -8.85378
455 1 9.42109 12.6046 6.27988 -8.90375
456 1 11.0231 14.1614 7.83592 -8.90429
457 1 12.6204 12.6125 6.25209 -8.85519
458 1 14.1554 14.1524 7.86413 -8.9531
459 1 15.7348 12.5819 6.28543 -8.95814
460 1 17.2981 14.1523 7.86275 -8.94988
461 1 18.8717 12.5797 6.2892 -8.95178
462 1 20.4413 14.1521 7.86212 -8.94998
463 1 -0.0012623 15.7249 6.28914 -8.95032
464 1 1.57003 17.2981 7.86144 -8.94921
465 1 3.13955 15.727 6.28688 -8.9504
466 1 4.71223 17.3016 7.85996 -8.94739
467 1 6.2759 15.7378 6.27674 -8.93006
468 1 7.85846 17.3058 7.85991 -8.95919
469 1 9.43358 15.7341 6.28346 -8.95089
470 1 11.0066 17.299 7.86119 -8.95217
471 1 12.5866 15.7355 6.28168 -8.95294
472 1 14.153 17.298 7.86213 -8.94809
473 1 15.727 15.726 6.28932 -8.95174
474 1 17.2976 17.2976 7.86205 -8.94909
475 1 18.8699 15.7249 6.28964 -8.94991
476 1 20.4411 17.2974 7.86193 -8.94959
477 1 22.013 18.8698 6.28924 -8.94942
478 1 1.57125 20.4421 7.86176 -8.94946
479 1 3.14265 18.8709 6.2884 -8.9491
480 1 4.71544 20.4431 7.86128 -8.94933
481 1 6.28736 18.8733 6.28747 -8.95157
482 1 7.86164 20.4434 7.8616 -8.9514
483 1 9.43464 18.8723 6.28811 -8.9506
484 1 11.0072 20.4422 7.8619 -8.94941
485 1 12.5801 18.8717 6.28892 -8.95263
486 1 14.1525 20.4421 7.86193 -8.94924
487 1 15.725 18.8701 6.28963 -8.94941
488 1 17.2971 20.4419 7.86205 -8.94956
489 1 18.8693 18.8697 6.28955 -8.94943
490 1 20.4412 20.4418 7.86199 -8.94954
491 1 -0.000779857 12.5793 9.43452 -8.94942
492 1 3.14211 12.5791 9.43454 -8.95261
493 1 6.27868 12.5924 9.43049 -9.00443
494 1 9.35959 12.816 9.43158 -8.17362
495 1 12.5565 12.5695 9.4341 -8.90383
496 1 15.7215 12.5786 9.4346 -8.94002
497 1 18.8692 12.5796 9.43456 -8.94767
498 1 22.0123 15.7251 9.43445 -8.95002
499 1 3.13918 15.7275 9.43413 -8.94867
512 1 1.57215 11.007 11.0072 -8.94666
514 1 7.8611 11.007 10.9485 -9.17399
519 1 1.56928 14.1525 11.0072 -8.95208
520 1 4.70518 14.1577 11.0088 -8.95696
532 1 20.4411 17.2974 11.0071 -8.94957
527 1 4.71221 17.3017 11.0083 -8.94785
531 1 17.2975 17.2976 11.0069 -8.94899
518 1 20.4419 11.007 11.0069 -8.94916
353 1 3.14423 12.5794 -0.000187072 -8.94944
389 1 15.7249 18.87 -0.000402388 -8.94958
377 1 18.87 15.7248 -0.000427519 -8.94945
687 2 8.68209 11.007 12.5714 0.753992
513 1 4.72191 11.007 11.0076 -8.99208
686 1 20.4417 20.4417 20.4415 -8.94923
515 1 11.0805 11.007 11.2356 -8.15316
516 1 14.1577 11.007 11.0152 -8.97292
517 1 17.2984 11.007 11.0068 -8.95087
391 1 18.8697 18.8697 22.0136 -8.94914
685 1 18.8697 18.8697 18.8695 -8.94917
684 1 17.2971 20.4419 20.4416 -8.9495
521 1 7.81875 14.1932 11.0372 -8.90387
522 1 11.0271 14.1668 11.0251 -8.93419
523 1 14.1552 14.1521 11.005 -8.95564
524 1 17.298 14.1522 11.0064 -8.95002
525 1 20.4413 14.1521 11.0069 -8.94999
683 1 15.725 18.87 18.8698 -8.94942
682 1 14.1521 20.4419 20.4416 -8.94952
528 1 7.85767 17.3077 11.0072 -8.95771
529 1 11.0077 17.3013 11.0058 -8.95138
530 1 14.1527 17.2977 11.0062 -8.9489
681 1 12.5798 18.8701 18.8699 -8.94953
680 1 11.007 20.4419 20.4416 -8.94952
533 1 1.57124 20.4421 11.0071 -8.94945
679 1 9.43444 18.87 18.8699 -8.94948
535 1 7.86146 20.4439 11.0068 -8.95162
536 1 11.0074 20.4428 11.0065 -8.94984
537 1 14.1525 20.442 11.0067 -8.94923
678 1 7.86193 20.4419 20.4416 -8.94951
539 1 20.4412 20.4418 11.007 -8.94954
540 1 1.57201 11.007 14.1527 -8.94842
541 1 4.71842 11.007 14.1521 -8.99595
542 1 7.84449 11.007 14.1972 -9.20639
543 1 11.0147 11.007 14.1545 -9.03512
544 1 14.1625 11.007 14.1624 -8.94391
545 1 17.3013 11.007 14.1544 -8.94917
546 1 20.4426 11.007 14.1525 -8.94981
547 1 22.0137 12.5793 12.5797 -8.95005
548 1 1.57108 14.152 14.1525 -8.95018
549 1 3.14273 12.5789 12.58 -8.95139
550 1 4.71305 14.1539 14.1544 -8.9504
551 1 6.28203 12.5835 12.5805 -8.98797
552 1 7.85305 14.1628 14.1652 -9.00211
553 1 9.44122 12.6597 12.5865 -9.16164
554 1 11.0128 14.1634 14.1664 -8.98133
555 1 12.6155 12.6113 12.6168 -8.91024
556 1 14.1652 14.1637 14.1644 -8.93292
557 1 15.7336 12.5817 12.5835 -8.95714
558 1 17.3012 14.1539 14.154 -8.95102
559 1 18.8714 12.5796 12.5798 -8.95156
560 1 20.4423 14.1522 14.1523 -8.95032
561 1 22.0126 15.7249 12.5798 -8.9502
562 1 1.57027 17.298 14.1531 -8.94967
563 1 3.13958 15.7271 12.5816 -8.95036
564 1 4.71198 17.3019 14.1565 -8.9448
565 1 6.2759 15.7394 12.5916 -8.93121
566 1 7.85958 17.3032 14.1559 -8.94763
567 1 9.43403 15.7463 12.5844 -8.96504
568 1 11.0089 17.3031 14.1558 -8.94709
569 1 12.5863 15.736 12.5866 -8.95219
570 1 14.1555 17.3019 14.1549 -8.94978
571 1 15.7269 15.726 12.5796 -8.95155
572 1 17.2981 17.298 14.1523 -8.95043
573 1 18.8698 15.7249 12.5794 -8.9499
574 1 20.4413 17.2973 14.1521 -8.94987
575 1 22.013 18.8698 12.5797 -8.94943
576 1 1.57134 20.442 14.1524 -8.94943
577 1 3.14259 18.871 12.5804 -8.9491
578 1 4.71571 20.443 14.1532 -8.95002
579 1 6.28717 18.874 12.5813 -8.95152
580 1 7.86158 20.4433 14.1531 -8.94987
581 1 9.43466 18.8748 12.5806 -8.95383
582 1 11.0077 20.4432 14.1529 -8.94998
583 1 12.5804 18.8721 12.5798 -8.95212
584 1 14.1528 20.4427 14.1523 -8.95059
585 1 15.725 18.87 12.5792 -8.94959
586 1 17.2971 20.4419 14.1519 -8.94971
587 1 18.8693 18.8696 12.5795 -8.94941
588 1 20.4413 20.4418 14.152 -8.9495
589 1 1.57205 11.007 17.2974 -8.94937
590 1 4.71673 11.007 17.2979 -8.94955
591 1 7.8617 11.007 17.3072 -8.96276
592 1 11.0073 11.007 17.2994 -8.94796
593 1 14.1551 11.007 17.3014 -8.94895
594 1 17.2988 11.007 17.2984 -8.94941
595 1 20.4422 11.007 17.2973 -8.94951
596 1 0.000106466 12.5795 15.7249 -8.9496
597 1 1.57183 14.152 17.2973 -8.94982
598 1 3.14381 12.5792 15.7251 -8.95064
599 1 4.71533 14.153 17.299 -8.9481
600 1 6.28608 12.5834 15.7291 -8.97976
601 1 7.86168 14.1529 17.3004 -8.95298
602 1 9.43737 12.5826 15.7283 -9.00342
603 1 11.0078 14.1543 17.3015 -8.95123
604 1 12.5841 12.5815 15.7343 -8.95821
605 1 14.1546 14.1541 17.3012 -8.95107
606 1 15.7288 12.5809 15.7285 -8.948
607 1 17.2987 14.1529 17.2983 -8.94924
608 1 18.8711 12.5798 15.7255 -8.94935
609 1 20.4421 14.1522 17.2973 -8.94952
610 1 22.0136 15.7247 15.7249 -8.94991
611 1 1.57161 17.2972 17.2975 -8.94976
612 1 3.14279 15.7253 15.7259 -8.94998
613 1 4.71528 17.2986 17.2992 -8.94931
614 1 6.2854 15.7292 15.7304 -8.94995
615 1 7.86138 17.2985 17.2989 -8.94899
616 1 9.43384 15.7289 15.7285 -8.94798
617 1 11.0073 17.2987 17.2988 -8.94961
618 1 12.5828 15.7292 15.73 -8.9469
619 1 14.1535 17.2989 17.2988 -8.94901
620 1 15.7292 15.7287 15.7286 -8.94517
621 1 17.2985 17.2984 17.2981 -8.94835
622 1 18.8708 15.7254 15.7253 -8.94979
623 1 20.4419 17.2973 17.2972 -8.94958
624 1 -0.00070186 18.8697 15.7248 -8.94956
625 1 1.57158 20.4419 17.2974 -8.94914
626 1 3.14281 18.8708 15.7261 -8.94823
627 1 4.71642 20.4422 17.2977 -8.94956
628 1 6.28823 18.8715 15.7264 -8.94951
629 1 7.86182 20.4422 17.2977 -8.94942
630 1 9.43444 18.8715 15.726 -8.94923
631 1 11.0072 20.4422 17.2976 -8.94947
632 1 12.5806 18.8715 15.7261 -8.94894
633 1 14.1525 20.4423 17.2975 -8.94939
634 1 15.7259 18.8711 15.7256 -8.94944
635 1 17.2974 20.4421 17.2972 -8.94947
636 1 18.8696 18.8698 15.7246 -8.94986
637 1 20.4415 20.4418 17.297 -8.94957
638 1 1.57209 11.007 20.4416 -8.94955
639 1 4.71647 11.007 20.4421 -8.94923
640 1 7.86174 11.007 20.4438 -8.95198
641 1 11.0071 11.007 20.4423 -8.94852
642 1 14.1531 11.007 20.4418 -8.95028
643 1 17.2979 11.007 20.4416 -8.94945
644 1 20.4419 11.007 20.4415 -8.94952
645 1 22.0139 12.5795 18.8694 -8.94954
646 1 1.57207 14.1519 20.4416 -8.94959
647 1 3.14413 12.5794 18.8697 -8.94968
648 1 4.71632 14.1523 20.4423 -8.94939
649 1 6.28823 12.5803 18.8717 -8.94869
650 1 7.86181 14.1522 20.4423 -8.95025
651 1 9.4352 12.5803 18.8718 -8.94792
652 1 11.0072 14.1528 20.4423 -8.95022
653 1 12.5803 12.5797 18.8716 -8.95173
654 1 14.1528 14.1526 20.4418 -8.95066
655 1 15.726 12.5799 18.8707 -8.94936
656 1 17.2979 14.1524 20.4416 -8.94937
657 1 18.8701 12.5796 18.8697 -8.94947
658 1 20.4419 14.1521 20.4415 -8.94952
659 1 -3.99297e-05 15.7245 18.8694 -8.9496
660 1 1.57202 17.297 20.4417 -8.94956
661 1 3.14391 15.7248 18.87 -8.94926
662 1 4.7165 17.2974 20.4417 -8.95015
663 1 6.28883 15.7252 18.8708 -8.95101
664 1 7.86169 17.2976 20.4418 -8.94952
665 1 9.43425 15.7257 18.8708 -8.94959
666 1 11.007 17.2977 20.4418 -8.94957
667 1 12.5802 15.7257 18.871 -8.94973
668 1 14.1525 17.2977 20.4418 -8.94956
669 1 15.7258 15.7256 18.8706 -8.9499
670 1 17.2977 17.2976 20.4416 -8.94949
671 1 18.87 15.7249 18.8696 -8.94949
672 1 20.4418 17.297 20.4415 -8.94953
673 1 22.0137 18.8694 18.8694 -8.94955
674 1 1.57197 20.4418 20.4416 -8.94934
675 1 3.14394 18.8699 18.8699 -8.94941
676 1 4.71687 20.4418 20.4416 -8.94955
677 1 6.28915 18.8699 18.8699 -8.94949
351 1 7.24992e-05 12.5795 22.0137 -8.94953
385 1 9.43443 18.8699 22.0135 -8.94949
355 1 6.28902 12.5795 22.0142 -8.94963
357 1 9.43466 12.5795 22.014 -8.94954
359 1 12.58 12.5796 22.0125 -8.95146
367 1 3.14419 15.7245 22.0137 -8.94966
375 1 15.7257 15.7256 22.0127 -8.94998
383 1 6.28924 18.8698 22.0135 -8.94948
379 1 -0.000124844 18.8694 22.0137 -8.94951
363 1 18.8701 12.5796 22.0134 -8.94947
387 1 12.5797 18.8699 22.0135 -8.94947
526 1 1.57004 17.2982 11.0074 -8.94928
