ITEM: TIMESTEP
93
ITEM: NUMBER OF ATOMS
688
ITEM: BOX BOUNDS pp pp pp
0.0000000000000000e+00 2.2013900999999997e+01
0.0000000000000000e+00 2.2013900999999997e+01
0.0000000000000000e+00 2.2013900999999997e+01
ITEM: ATOMS id type x y z c_pot
191 1 4.70541 7.85669 11.0088 -8.95698
2 1 1.57188 1.5721 1.57194 -8.94919
3 1 3.14456 1.52397e-15 -0.000192868 -8.94962
4 1 4.71686 1.57199 1.57184 -8.94964
175 1 18.8694 9.43427 9.43454 -8.94775
6 1 7.86198 1.57198 1.57186 -8.94948
7 1 9.43451 1.71975e-15 -0.000194813 -8.94956
8 1 11.0071 1.57196 1.57188 -8.94952
174 1 15.7219 9.43521 9.43454 -8.94011
10 1 14.1521 1.57194 1.57197 -8.9495
173 1 12.5574 9.44431 9.4339 -8.9036
12 1 17.2972 1.57191 1.57198 -8.94946
190 1 1.56942 7.86153 11.0072 -8.95202
14 1 20.4415 1.57219 1.57223 -8.94956
172 1 9.3593 9.19827 9.43153 -8.17226
16 1 1.57192 4.71688 1.5719 -8.94978
17 1 3.14429 3.1443 -0.000415611 -8.94951
18 1 4.71599 4.71605 1.57071 -8.94945
171 1 6.27817 9.42181 9.43039 -9.00452
20 1 7.86166 4.71609 1.57105 -8.94914
170 1 3.14189 9.43492 9.43451 -8.95265
22 1 11.0071 4.71596 1.57112 -8.94937
189 1 20.4412 4.71663 11.007 -8.94956
24 1 14.1526 4.71581 1.57109 -8.94962
169 1 -0.000781743 9.43462 9.43451 -8.94951
26 1 17.2981 4.71582 1.57123 -8.94822
168 1 18.8696 6.28888 9.43452 -8.94964
28 1 20.4419 4.71681 1.57201 -8.94956
29 1 22.0139 6.28952 -0.000154244 -8.94955
30 1 1.57208 7.86201 1.57199 -8.9494
167 1 15.726 6.28805 9.43449 -8.94707
32 1 4.71655 7.8621 1.57172 -8.94971
33 1 6.28907 6.2891 -0.000772634 -8.95063
34 1 7.86165 7.86159 1.57025 -8.95246
35 1 9.43424 6.28872 -0.000742106 -8.94959
36 1 11.007 7.86078 1.56971 -8.95064
37 1 12.5797 6.28864 -0.000803347 -8.94967
38 1 14.1538 7.86036 1.56879 -8.95154
166 1 12.5792 6.2901 9.4327 -8.94244
40 1 17.2982 7.86126 1.57109 -8.9492
165 1 9.42936 6.29162 9.43367 -9.00401
42 1 20.442 7.86184 1.57194 -8.94945
164 1 6.27796 6.27767 9.43332 -8.94224
163 1 3.13964 6.28677 9.43417 -8.94869
162 1 22.0125 6.28892 9.43445 -8.94998
161 1 18.8693 3.14432 9.43451 -8.94958
160 1 15.725 3.14402 9.43447 -8.94968
48 1 15.7256 9.43408 -0.00109363 -8.94936
188 1 17.2975 4.71637 11.0069 -8.949
50 1 -0.000314573 7.18324e-16 3.1446 -8.94954
51 1 1.57169 1.57199 4.71676 -8.94947
52 1 3.14413 1.30115e-15 3.14411 -8.94954
53 1 4.7162 1.57123 4.71612 -8.95
54 1 6.28942 9.63834e-16 3.14414 -8.94959
55 1 7.86196 1.57132 4.71633 -8.94968
56 1 9.4346 1.70386e-15 3.14416 -8.94955
57 1 11.0073 1.5714 4.71641 -8.94962
58 1 12.5797 1.4395e-15 3.14427 -8.94952
59 1 14.1524 1.57139 4.71678 -8.95068
60 1 15.7247 1.44831e-15 3.14443 -8.95003
61 1 17.297 1.57208 4.71718 -8.94965
62 1 18.8692 9.67905e-16 3.14474 -8.94966
63 1 20.4414 1.5722 4.71711 -8.94952
64 1 22.0134 3.14437 3.14437 -8.9495
65 1 1.57065 4.71615 4.71608 -8.94952
66 1 3.14336 3.14353 3.14336 -8.94823
67 1 4.71281 4.71297 4.71285 -8.94456
68 1 6.28894 3.1434 3.14344 -8.94964
69 1 7.86076 4.71346 4.71429 -8.94913
70 1 9.43448 3.14343 3.1436 -8.94936
71 1 11.0076 4.71377 4.71452 -8.94778
72 1 12.5799 3.14336 3.14374 -8.94915
73 1 14.155 4.71244 4.71428 -8.94977
74 1 15.7255 3.14305 3.14369 -8.94939
75 1 17.2978 4.71613 4.71688 -8.9504
76 1 18.8694 3.14429 3.14456 -8.94984
77 1 20.4414 4.71677 4.71697 -8.94986
78 1 22.0138 6.28941 3.14435 -8.94987
79 1 1.57152 7.86211 4.71661 -8.94988
80 1 3.14349 6.28914 3.14358 -8.95033
81 1 4.71447 7.8616 4.71497 -8.95152
82 1 6.28666 6.28677 3.14005 -8.94989
83 1 7.85587 7.85519 4.70623 -8.95318
84 1 9.43401 6.28699 3.14141 -8.94774
85 1 11.0083 7.85654 4.70775 -8.95087
86 1 12.5809 6.28676 3.14104 -8.94916
87 1 14.165 7.85012 4.7046 -8.93008
88 1 15.7286 6.28546 3.14077 -8.94456
89 1 17.301 7.86001 4.71516 -8.95087
90 1 18.8706 6.28864 3.14388 -8.94967
91 1 20.4423 7.86172 4.71675 -8.9502
92 1 6.40734e-05 9.43442 3.14424 -8.94955
93 1 3.14392 9.43452 3.14388 -8.9489
94 1 6.28905 9.43506 3.14361 -8.94922
95 1 9.43539 9.4342 3.14284 -8.95188
96 1 12.5827 9.43312 3.13663 -8.9592
97 1 15.7283 9.4331 3.14105 -8.9476
98 1 18.8708 9.43413 3.14375 -8.94928
99 1 22.0135 1.21115e-15 6.28949 -8.94954
100 1 1.57158 1.57193 7.86187 -8.9495
101 1 3.14391 1.03854e-15 6.28912 -8.94936
102 1 4.71583 1.57101 7.86144 -8.94933
103 1 6.28914 8.06744e-16 6.28898 -8.95064
104 1 7.86183 1.57061 7.86172 -8.95137
105 1 9.4348 1.38653e-15 6.28912 -8.95023
106 1 11.0072 1.57169 7.86199 -8.94942
107 1 12.5797 1.84434e-15 6.2895 -8.95039
108 1 14.1524 1.57188 7.86198 -8.94927
109 1 15.7247 1.41118e-15 6.28961 -8.94945
110 1 17.297 1.57209 7.86207 -8.94958
111 1 18.8692 1.19423e-15 6.28961 -8.94956
112 1 20.4414 1.57217 7.86203 -8.94957
113 1 22.0133 3.14428 6.28936 -8.94945
114 1 1.57043 4.71599 7.86155 -8.94921
115 1 3.14309 3.14326 6.28865 -8.94915
116 1 4.71282 4.71282 7.8602 -8.94747
117 1 6.28774 3.14091 6.28775 -8.95156
118 1 7.85885 4.70856 7.86014 -8.95918
119 1 9.43475 3.14186 6.28834 -8.95054
120 1 11.0066 4.71508 7.86143 -8.95215
121 1 12.58 3.14241 6.2891 -8.95258
122 1 14.1529 4.71598 7.86228 -8.94818
123 1 15.7249 3.14396 6.28971 -8.94942
124 1 17.2975 4.71635 7.86208 -8.9491
125 1 18.8693 3.14436 6.28959 -8.94944
126 1 20.4413 4.71664 7.86196 -8.94958
127 1 -0.00109241 6.28914 6.28921 -8.95029
128 1 1.56957 7.86165 7.86168 -8.95213
129 1 3.13996 6.28714 6.28708 -8.95037
130 1 4.70557 7.85683 7.8581 -8.95662
131 1 6.27639 6.27663 6.27708 -8.93003
132 1 7.82103 7.82441 7.82732 -8.85354
133 1 9.43374 6.28037 6.28394 -8.95092
134 1 11.023 7.85289 7.83645 -8.90435
135 1 12.5863 6.27875 6.28221 -8.95304
136 1 14.1555 7.86148 7.86429 -8.95294
137 1 15.7267 6.28799 6.28951 -8.95167
138 1 17.2982 7.86156 7.86277 -8.94983
139 1 18.8698 6.28911 6.28969 -8.94986
140 1 20.4414 7.86179 7.86211 -8.94997
141 1 22.0137 9.43457 6.2893 -8.94987
142 1 3.14311 9.43522 6.28891 -8.94988
143 1 6.28556 9.43601 6.28695 -8.95229
144 1 9.42118 9.40986 6.28021 -8.90398
145 1 12.6202 9.40145 6.25247 -8.85517
146 1 15.7346 9.43206 6.28573 -8.95812
147 1 18.8715 9.43424 6.28928 -8.95175
148 1 -0.000411742 1.80547e-15 9.4345 -8.94955
149 1 3.14381 1.92667e-15 9.43445 -8.94949
150 1 6.28867 1.52074e-15 9.43427 -8.95037
151 1 9.43479 1.72377e-15 9.43428 -8.9485
152 1 12.58 1.76427e-15 9.43426 -8.94928
153 1 15.7247 1.59259e-15 9.43448 -8.94962
154 1 18.8692 1.48939e-15 9.43451 -8.94958
155 1 -0.000686918 3.14423 9.43449 -8.94952
156 1 3.14292 3.14318 9.43439 -8.94947
157 1 6.28677 3.14019 9.43403 -8.94942
158 1 9.4344 3.14325 9.43412 -8.94619
159 1 12.5802 3.14387 9.43394 -8.9481
177 1 4.71583 1.571 11.0073 -8.94941
181 1 17.297 1.57209 11.0069 -8.94955
184 1 4.71277 4.71275 11.0082 -8.9479
11 1 15.7244 1.7696e-15 -0.000148481 -8.94957
25 1 15.7247 3.14418 -0.000319678 -8.94961
41 1 18.8697 6.28924 -0.000340719 -8.9495
44 1 3.14429 9.43447 -0.000170645 -8.94946
176 1 1.57156 1.57192 11.0071 -8.94948
343 1 18.8698 9.43435 18.8695 -8.9495
178 1 7.86165 1.57019 11.0068 -8.95156
179 1 11.0074 1.57123 11.0065 -8.94981
180 1 14.1524 1.57195 11.0067 -8.94925
342 1 15.7257 9.43405 18.8705 -8.94935
182 1 20.4414 1.57216 11.007 -8.94956
341 1 12.5801 9.43422 18.8715 -8.95172
340 1 9.43515 9.43367 18.8717 -8.94791
185 1 7.85807 4.70676 11.0072 -8.95768
186 1 11.0077 4.7129 11.0058 -8.95131
187 1 14.1526 4.71629 11.0062 -8.94895
339 1 6.28822 9.43362 18.8717 -8.94874
338 1 3.14415 9.43448 18.8696 -8.94969
337 1 22.0139 9.43446 18.8694 -8.94955
336 1 20.4418 7.86194 20.4415 -8.94955
192 1 7.81899 7.82162 11.0373 -8.9041
193 1 11.0269 7.84796 11.0248 -8.93442
194 1 14.1553 7.86185 11.0048 -8.95556
195 1 17.298 7.86163 11.0063 -8.94995
196 1 20.4413 7.86178 11.0069 -8.94998
197 1 22.0135 7.81609e-16 12.5795 -8.94954
198 1 1.57163 1.57196 14.1522 -8.94947
199 1 3.14387 1.45908e-15 12.5798 -8.94941
200 1 4.71603 1.57109 14.1529 -8.95002
201 1 6.28899 1.75154e-16 12.5799 -8.95062
202 1 7.86173 1.5708 14.1529 -8.94981
203 1 9.4348 7.02061e-16 12.5798 -8.95121
204 1 11.0076 1.57085 14.1528 -8.94993
205 1 12.5799 1.2895e-15 12.5794 -8.9503
206 1 14.1526 1.57133 14.1522 -8.95054
207 1 15.7247 1.35623e-15 12.5793 -8.9495
208 1 17.297 1.57208 14.1518 -8.94971
209 1 18.8692 1.0409e-15 12.5794 -8.94955
210 1 20.4414 1.57219 14.1519 -8.94953
211 1 22.0132 3.14426 12.5796 -8.94946
212 1 1.57057 4.71611 14.1529 -8.94966
213 1 3.14302 3.14319 12.5802 -8.94914
214 1 4.71245 4.71248 14.1561 -8.94483
215 1 6.28756 3.14039 12.5811 -8.95149
216 1 7.85992 4.71141 14.1555 -8.94763
217 1 9.43477 3.13953 12.5804 -8.95369
218 1 11.0088 4.71137 14.1554 -8.94713
219 1 12.5802 3.142 12.5797 -8.95208
220 1 14.1551 4.71241 14.1546 -8.94985
221 1 15.7249 3.14402 12.5792 -8.9496
222 1 17.2979 4.71613 14.1521 -8.95038
223 1 18.8693 3.14436 12.5794 -8.94942
224 1 20.4414 4.71674 14.152 -8.94984
225 1 22.0127 6.28908 12.5797 -8.95016
226 1 1.57114 7.86191 14.1524 -8.9501
227 1 3.13995 6.28708 12.5815 -8.95034
228 1 4.71327 7.86035 14.1542 -8.95037
229 1 6.27638 6.27523 12.5914 -8.93119
230 1 7.8534 7.85205 14.1647 -9.00277
231 1 9.43423 6.26865 12.584 -8.9649
232 1 11.0125 7.85126 14.1658 -8.98145
233 1 12.586 6.27837 12.5861 -8.95238
234 1 14.1648 7.85048 14.164 -8.93285
235 1 15.7267 6.288 12.5794 -8.95149
236 1 17.3009 7.86012 14.1538 -8.951
237 1 18.8697 6.28911 12.5793 -8.94985
238 1 20.4422 7.86171 14.1523 -8.95028
239 1 22.0136 9.43459 12.5797 -8.95004
240 1 3.14261 9.43504 12.58 -8.95122
241 1 6.28212 9.43106 12.5805 -8.98757
242 1 9.44164 9.35613 12.5862 -9.16286
243 1 12.6156 9.40284 12.6165 -8.90938
244 1 15.7336 9.4322 12.5832 -8.95706
245 1 18.8713 9.43427 12.5797 -8.95154
246 1 -0.000353533 1.61332e-15 15.7245 -8.94955
247 1 1.57179 1.57206 17.2972 -8.94919
248 1 3.144 4.24416e-16 15.725 -8.94955
249 1 4.71666 1.57183 17.2975 -8.9496
250 1 6.2892 5.66524e-17 15.7251 -8.94963
251 1 7.86192 1.57183 17.2974 -8.94945
252 1 9.4346 5.37905e-16 15.7251 -8.94953
253 1 11.0071 1.57182 17.2974 -8.9495
254 1 12.58 6.90201e-16 15.725 -8.94961
255 1 14.1523 1.57179 17.2973 -8.94942
256 1 15.7248 5.14163e-16 15.7246 -8.94999
257 1 17.2972 1.57191 17.2971 -8.94949
258 1 18.8692 1.68965e-15 15.7243 -8.9497
259 1 20.4415 1.57218 17.2969 -8.9496
260 1 -0.000558337 3.14434 15.7247 -8.94956
261 1 1.57177 4.7168 17.2973 -8.94976
262 1 3.14315 3.14336 15.7258 -8.94825
263 1 4.71558 4.71551 17.2988 -8.94936
264 1 6.28853 3.14276 15.726 -8.94954
265 1 7.86155 4.71567 17.2985 -8.94901
266 1 9.43448 3.1428 15.7257 -8.94925
267 1 11.0072 4.71553 17.2984 -8.94963
268 1 12.5804 3.14269 15.7258 -8.94897
269 1 14.1531 4.71537 17.2985 -8.94905
270 1 15.7256 3.14303 15.7254 -8.94946
271 1 17.2982 4.71579 17.2979 -8.94836
272 1 18.8694 3.14428 15.7245 -8.94985
273 1 20.4418 4.71677 17.2971 -8.94958
274 1 22.0137 6.28931 15.7247 -8.94987
275 1 1.57182 7.86196 17.2972 -8.94981
276 1 3.14304 6.28882 15.7257 -8.94996
277 1 4.71535 7.86088 17.2989 -8.94797
278 1 6.28576 6.28518 15.7299 -8.95015
279 1 7.86172 7.86124 17.3002 -8.95288
280 1 9.43387 6.28551 15.7281 -8.94807
281 1 11.0077 7.85987 17.3012 -8.95111
282 1 12.5824 6.28521 15.7295 -8.947
283 1 14.1543 7.86002 17.3009 -8.95101
284 1 15.7288 6.28549 15.7283 -8.94515
285 1 17.2984 7.86123 17.2981 -8.94927
286 1 18.8706 6.28865 15.7252 -8.94977
287 1 20.442 7.86183 17.2972 -8.94954
288 1 -2.81907e-05 9.43445 15.7248 -8.94963
289 1 3.14368 9.43464 15.7251 -8.95066
290 1 6.28574 9.43051 15.7293 -8.9798
291 1 9.43732 9.43159 15.7283 -9.00308
292 1 12.584 9.43245 15.7341 -8.9581
293 1 15.7285 9.43311 15.7281 -8.94802
294 1 18.8708 9.43414 15.7253 -8.94937
295 1 22.0137 1.47475e-15 18.8693 -8.94931
296 1 1.57211 1.57217 20.4416 -8.9494
297 1 3.14447 1.3038e-15 18.8694 -8.94958
298 1 4.71702 1.57215 20.4416 -8.94958
299 1 6.28949 1.65045e-15 18.8695 -8.94953
300 1 7.862 1.57211 20.4416 -8.94955
301 1 9.43452 1.76994e-15 18.8695 -8.94956
302 1 11.007 1.57209 20.4416 -8.94956
303 1 12.5795 1.18783e-15 18.8694 -8.94956
304 1 14.152 1.57211 20.4416 -8.94956
305 1 15.7245 9.83878e-16 18.8694 -8.9495
306 1 17.297 1.57214 20.4415 -8.94955
307 1 18.8693 1.29442e-15 18.8693 -8.94943
308 1 20.4416 1.57225 20.4415 -8.94931
309 1 22.0138 3.14458 18.8693 -8.94958
310 1 1.5721 4.717 20.4416 -8.94955
311 1 3.14415 3.14418 18.8697 -8.94944
312 1 4.71668 4.71666 20.4417 -8.95011
313 1 6.28932 3.14415 18.8697 -8.9495
314 1 7.86179 4.71649 20.4417 -8.94951
315 1 9.43446 3.14405 18.8697 -8.9495
316 1 11.007 4.71638 20.4417 -8.94958
317 1 12.5796 3.14406 18.8697 -8.94956
318 1 14.1523 4.71641 20.4417 -8.94955
319 1 15.7248 3.14409 18.8696 -8.94946
320 1 17.2974 4.71651 20.4416 -8.94951
321 1 18.8696 3.14432 18.8694 -8.94921
322 1 20.4417 4.717 20.4415 -8.94957
323 1 -8.17905e-05 6.28948 18.8694 -8.94961
324 1 1.5721 7.862 20.4416 -8.94961
325 1 3.14402 6.28918 18.8699 -8.94922
326 1 4.71641 7.86166 20.4422 -8.94939
327 1 6.28897 6.28885 18.8706 -8.95094
328 1 7.86183 7.86173 20.4422 -8.9502
329 1 9.43426 6.28842 18.8706 -8.94956
330 1 11.0071 7.86124 20.4423 -8.95017
331 1 12.58 6.28839 18.8708 -8.94968
332 1 14.1526 7.86143 20.4418 -8.95063
333 1 15.7255 6.28849 18.8704 -8.94987
334 1 17.2976 7.86164 20.4416 -8.9494
335 1 18.8697 6.28922 18.8695 -8.94952
5 1 6.28954 1.14744e-15 22.0137 -8.94954
9 1 12.5795 1.48921e-15 22.0137 -8.94955
47 1 12.5798 9.43432 22.0126 -8.95144
15 1 -8.25696e-05 3.14459 22.0137 -8.94954
19 1 6.28939 3.14428 22.0135 -8.94949
21 1 9.43445 3.14418 22.0136 -8.94951
46 1 9.43459 9.4344 22.014 -8.94955
27 1 18.8696 3.14433 22.0136 -8.94918
31 1 3.14431 6.28944 22.0138 -8.94965
39 1 15.7254 6.28858 22.0129 -8.94998
45 1 6.28906 9.43443 22.0141 -8.94964
43 1 2.89061e-06 9.43447 22.0137 -8.94956
1 1 -0.000187535 1.57908e-15 22.0138 -8.9493
13 1 18.8693 5.9755e-16 22.0137 -8.94938
23 1 12.5796 3.14417 22.0136 -8.9495
49 1 18.8698 9.43436 22.0135 -8.9495
183 1 1.57042 4.71597 11.0073 -8.94928
344 1 1.57208 11.007 1.57194 -8.94956
345 1 4.71648 11.007 1.5717 -8.94955
346 1 7.86193 11.007 1.57235 -8.9491
347 1 11.0073 11.007 1.57167 -8.94631
348 1 14.1544 11.007 1.56862 -8.94955
349 1 17.2983 11.007 1.57105 -8.94944
350 1 20.442 11.007 1.5719 -8.94951
688 3 10.2139 11.007 9.43214 2.30741
352 1 1.57208 14.1519 1.57199 -8.9494
511 1 18.8693 18.8696 9.43451 -8.94958
354 1 4.71655 14.1518 1.57172 -8.94971
510 1 15.725 18.8699 9.43447 -8.94968
356 1 7.86165 14.1523 1.57025 -8.95246
509 1 12.5802 18.87 9.43394 -8.9481
358 1 11.007 14.1531 1.56971 -8.95064
508 1 9.4344 18.8707 9.43412 -8.94619
360 1 14.1538 14.1535 1.56879 -8.95154
361 1 15.7256 12.5798 -0.00109363 -8.94936
362 1 17.2982 14.1526 1.57109 -8.9492
538 1 17.297 20.4418 11.0069 -8.94955
364 1 20.442 14.1521 1.57194 -8.94945
365 1 22.0139 15.7244 -0.000154244 -8.94955
366 1 1.57192 17.297 1.5719 -8.94978
507 1 6.28677 18.8737 9.43403 -8.94942
368 1 4.71599 17.2979 1.57071 -8.94945
369 1 6.28907 15.7248 -0.000772634 -8.95063
370 1 7.86166 17.2978 1.57105 -8.94914
371 1 9.43424 15.7252 -0.000742106 -8.94959
372 1 11.0071 17.2979 1.57112 -8.94937
373 1 12.5797 15.7253 -0.000803347 -8.94967
374 1 14.1526 17.2981 1.57109 -8.94962
506 1 3.14292 18.8707 9.43439 -8.94947
376 1 17.2981 17.2981 1.57123 -8.94822
505 1 -0.000686918 18.8697 9.43449 -8.94952
378 1 20.4419 17.2971 1.57201 -8.94956
504 1 18.8696 15.725 9.43452 -8.94964
380 1 1.57188 20.4418 1.57194 -8.94919
381 1 3.14429 18.8696 -0.000415611 -8.94951
382 1 4.71686 20.4419 1.57184 -8.94964
503 1 15.726 15.7258 9.43449 -8.94707
384 1 7.86198 20.4419 1.57186 -8.94948
502 1 12.5792 15.7238 9.4327 -8.94244
386 1 11.0071 20.4419 1.57188 -8.94952
534 1 4.71583 20.4429 11.0073 -8.94941
388 1 14.1521 20.442 1.57197 -8.9495
501 1 9.42936 15.7223 9.43367 -9.00401
390 1 17.2972 20.442 1.57198 -8.94946
500 1 6.27796 15.7362 9.43332 -8.94224
392 1 20.4415 20.4417 1.57223 -8.94956
393 1 1.57166 11.007 4.71635 -8.94952
394 1 4.71552 11.007 4.71517 -8.94598
395 1 7.8644 11.007 4.71761 -8.94843
396 1 11.0124 11.007 4.72047 -9.00268
397 1 14.1627 11.007 4.707 -8.94203
398 1 17.3012 11.007 4.71481 -8.94905
399 1 20.4425 11.007 4.71657 -8.94995
400 1 6.40734e-05 12.5795 3.14424 -8.94955
401 1 1.57152 14.1518 4.71661 -8.94988
402 1 3.14392 12.5794 3.14388 -8.9489
403 1 4.71447 14.1523 4.71497 -8.95152
404 1 6.28905 12.5788 3.14361 -8.94922
405 1 7.85587 14.1587 4.70623 -8.95318
406 1 9.43539 12.5797 3.14284 -8.95188
407 1 11.0083 14.1574 4.70775 -8.95087
408 1 12.5827 12.5808 3.13663 -8.9592
409 1 14.165 14.1638 4.7046 -8.93008
410 1 15.7283 12.5808 3.14105 -8.9476
411 1 17.301 14.1539 4.71516 -8.95087
412 1 18.8708 12.5798 3.14375 -8.94928
413 1 20.4423 14.1522 4.71675 -8.9502
414 1 22.0138 15.7245 3.14435 -8.94987
415 1 1.57065 17.2978 4.71608 -8.94952
416 1 3.14349 15.7248 3.14358 -8.95033
417 1 4.71281 17.3009 4.71285 -8.94456
418 1 6.28666 15.7271 3.14005 -8.94989
419 1 7.86076 17.3004 4.71429 -8.94913
420 1 9.43401 15.7269 3.14141 -8.94774
421 1 11.0076 17.3001 4.71452 -8.94778
422 1 12.5809 15.7271 3.14104 -8.94916
423 1 14.155 17.3015 4.71428 -8.94977
424 1 15.7286 15.7284 3.14077 -8.94456
425 1 17.2978 17.2978 4.71688 -8.9504
426 1 18.8706 15.7253 3.14388 -8.94967
427 1 20.4414 17.2971 4.71697 -8.94986
428 1 22.0134 18.8695 3.14437 -8.9495
429 1 1.57169 20.4419 4.71676 -8.94947
430 1 3.14336 18.8704 3.14336 -8.94823
431 1 4.7162 20.4427 4.71612 -8.95
432 1 6.28894 18.8705 3.14344 -8.94964
433 1 7.86196 20.4426 4.71633 -8.94968
434 1 9.43448 18.8705 3.1436 -8.94936
435 1 11.0073 20.4425 4.71641 -8.94962
436 1 12.5799 18.8705 3.14374 -8.94915
437 1 14.1524 20.4425 4.71678 -8.95068
438 1 15.7255 18.8709 3.14369 -8.94939
439 1 17.297 20.4418 4.71718 -8.94965
440 1 18.8694 18.8696 3.14456 -8.94984
441 1 20.4414 20.4417 4.71711 -8.94952
442 1 1.57182 11.007 7.86166 -8.94742
443 1 4.71972 11.007 7.86224 -8.93984
444 1 7.88459 11.007 7.86113 -8.91222
445 1 11.0847 11.007 7.63173 -8.12309
446 1 14.1599 11.007 7.85428 -8.97246
447 1 17.2991 11.007 7.8624 -8.9511
448 1 20.442 11.007 7.86213 -8.94944
449 1 22.0137 12.5793 6.2893 -8.94987
450 1 1.56957 14.1522 7.86168 -8.95213
451 1 3.14311 12.5787 6.28891 -8.94988
452 1 4.70557 14.1571 7.8581 -8.95662
453 1 6.28556 12.5779 6.28695 -8.95229
454 1 7.82103 14.1895 7.82732 -8.85354
455 1 9.42118 12.604 6.28021 -8.90398
456 1 11.023 14.161 7.83645 -8.90435
457 1 12.6202 12.6124 6.25247 -8.85517
458 1 14.1555 14.1524 7.86429 -8.95294
459 1 15.7346 12.5818 6.28573 -8.95812
460 1 17.2982 14.1523 7.86277 -8.94983
461 1 18.8715 12.5797 6.28928 -8.95175
462 1 20.4414 14.1521 7.86211 -8.94997
463 1 -0.00109241 15.7248 6.28921 -8.95029
464 1 1.57043 17.2979 7.86155 -8.94921
465 1 3.13996 15.7268 6.28708 -8.95037
466 1 4.71282 17.3011 7.8602 -8.94747
467 1 6.27639 15.7373 6.27708 -8.93003
468 1 7.85885 17.3053 7.86014 -8.95918
469 1 9.43374 15.7335 6.28394 -8.95092
470 1 11.0066 17.2988 7.86143 -8.95215
471 1 12.5863 15.7352 6.28221 -8.95304
472 1 14.1529 17.2979 7.86228 -8.94818
473 1 15.7267 15.7259 6.28951 -8.95167
474 1 17.2975 17.2976 7.86208 -8.9491
475 1 18.8698 15.7248 6.28969 -8.94986
476 1 20.4413 17.2973 7.86196 -8.94958
477 1 22.0133 18.8696 6.28936 -8.94945
478 1 1.57158 20.442 7.86187 -8.9495
479 1 3.14309 18.8706 6.28865 -8.94915
480 1 4.71583 20.4429 7.86144 -8.94933
481 1 6.28774 18.873 6.28775 -8.95156
482 1 7.86183 20.4433 7.86172 -8.95137
483 1 9.43475 18.872 6.28834 -8.95054
484 1 11.0072 20.4422 7.86199 -8.94942
485 1 12.58 18.8715 6.2891 -8.95258
486 1 14.1524 20.442 7.86198 -8.94927
487 1 15.7249 18.8699 6.28971 -8.94942
488 1 17.297 20.4418 7.86207 -8.94958
489 1 18.8693 18.8695 6.28959 -8.94944
490 1 20.4414 20.4417 7.86203 -8.94957
491 1 -0.000781743 12.5793 9.43451 -8.94951
492 1 3.14189 12.579 9.43451 -8.95265
493 1 6.27817 12.5921 9.43039 -9.00452
494 1 9.3593 12.8156 9.43153 -8.17226
495 1 12.5574 12.5696 9.4339 -8.9036
496 1 15.7219 12.5787 9.43454 -8.94011
497 1 18.8694 12.5796 9.43454 -8.94775
498 1 22.0125 15.725 9.43445 -8.94998
499 1 3.13964 15.7271 9.43417 -8.94869
512 1 1.57194 11.007 11.0072 -8.94681
514 1 7.86067 11.007 10.9478 -9.1733
519 1 1.56942 14.1524 11.0072 -8.95202
520 1 4.70541 14.1572 11.0088 -8.95698
532 1 20.4412 17.2973 11.007 -8.94956
527 1 4.71277 17.3011 11.0082 -8.9479
531 1 17.2975 17.2975 11.0069 -8.949
518 1 20.4419 11.007 11.0069 -8.94927
353 1 3.14429 12.5794 -0.000170645 -8.94946
389 1 15.7247 18.8697 -0.000319678 -8.94961
377 1 18.8697 15.7247 -0.000340719 -8.9495
687 2 8.67613 11.007 12.5723 0.756124
513 1 4.72125 11.007 11.0076 -8.99239
686 1 20.4416 20.4416 20.4415 -8.94931
515 1 11.0822 11.007 11.2349 -8.1527
516 1 14.1585 11.007 11.0149 -8.97316
517 1 17.2987 11.007 11.0067 -8.951
391 1 18.8696 18.8696 22.0136 -8.94918
685 1 18.8696 18.8696 18.8694 -8.94921
684 1 17.297 20.4418 20.4415 -8.94955
521 1 7.81899 14.1923 11.0373 -8.9041
522 1 11.0269 14.1659 11.0248 -8.93442
523 1 14.1553 14.1521 11.0048 -8.95556
524 1 17.298 14.1523 11.0063 -8.94995
525 1 20.4413 14.1521 11.0069 -8.94998
683 1 15.7248 18.8698 18.8696 -8.94946
682 1 14.152 20.4418 20.4416 -8.94956
528 1 7.85807 17.3071 11.0072 -8.95768
529 1 11.0077 17.301 11.0058 -8.95131
530 1 14.1526 17.2976 11.0062 -8.94895
681 1 12.5796 18.8698 18.8697 -8.94956
680 1 11.007 20.4418 20.4416 -8.94956
533 1 1.57156 20.442 11.0071 -8.94948
679 1 9.43446 18.8698 18.8697 -8.9495
535 1 7.86165 20.4437 11.0068 -8.95156
536 1 11.0074 20.4427 11.0065 -8.94981
537 1 14.1524 20.442 11.0067 -8.94925
678 1 7.862 20.4418 20.4416 -8.94955
539 1 20.4414 20.4417 11.007 -8.94956
540 1 1.57183 11.007 14.1526 -8.9485
541 1 4.71793 11.007 14.1523 -8.99643
542 1 7.84411 11.007 14.1983 -9.20646
543 1 11.0151 11.007 14.1549 -9.03508
544 1 14.1624 11.007 14.1619 -8.94403
545 1 17.301 11.007 14.1541 -8.94922
546 1 20.4425 11.007 14.1524 -8.94982
547 1 22.0136 12.5793 12.5797 -8.95004
548 1 1.57114 14.152 14.1524 -8.9501
549 1 3.14261 12.5789 12.58 -8.95122
550 1 4.71327 14.1536 14.1542 -8.95037
551 1 6.28212 12.5828 12.5805 -8.98757
552 1 7.8534 14.1619 14.1647 -9.00277
553 1 9.44164 12.6578 12.5862 -9.16286
554 1 11.0125 14.1626 14.1658 -8.98145
555 1 12.6156 12.6111 12.6165 -8.90938
556 1 14.1648 14.1634 14.164 -8.93285
557 1 15.7336 12.5817 12.5832 -8.95706
558 1 17.3009 14.1538 14.1538 -8.951
559 1 18.8713 12.5796 12.5797 -8.95154
560 1 20.4422 14.1522 14.1523 -8.95028
561 1 22.0127 15.7248 12.5797 -8.95016
562 1 1.57057 17.2978 14.1529 -8.94966
563 1 3.13995 15.7268 12.5815 -8.95034
564 1 4.71245 17.3014 14.1561 -8.94483
565 1 6.27638 15.7387 12.5914 -8.93119
566 1 7.85992 17.3025 14.1555 -8.94763
567 1 9.43423 15.7453 12.584 -8.9649
568 1 11.0088 17.3025 14.1554 -8.94713
569 1 12.586 15.7355 12.5861 -8.95238
570 1 14.1551 17.3015 14.1546 -8.94985
571 1 15.7267 15.7259 12.5794 -8.95149
572 1 17.2979 17.2978 14.1521 -8.95038
573 1 18.8697 15.7248 12.5793 -8.94985
574 1 20.4414 17.2972 14.152 -8.94984
575 1 22.0132 18.8696 12.5796 -8.94946
576 1 1.57163 20.4419 14.1522 -8.94947
577 1 3.14302 18.8707 12.5802 -8.94914
578 1 4.71603 20.4428 14.1529 -8.95002
579 1 6.28756 18.8735 12.5811 -8.95149
580 1 7.86173 20.4431 14.1529 -8.94981
581 1 9.43477 18.8744 12.5804 -8.95369
582 1 11.0076 20.4431 14.1528 -8.94993
583 1 12.5802 18.8719 12.5797 -8.95208
584 1 14.1526 20.4426 14.1522 -8.95054
585 1 15.7249 18.8699 12.5792 -8.9496
586 1 17.297 20.4418 14.1518 -8.94971
587 1 18.8693 18.8695 12.5794 -8.94942
588 1 20.4414 20.4417 14.1519 -8.94953
589 1 1.57197 11.007 17.2973 -8.94939
590 1 4.7166 11.007 17.298 -8.9495
591 1 7.86158 11.007 17.3074 -8.963
592 1 11.0072 11.007 17.2995 -8.94811
593 1 14.1548 11.007 17.3011 -8.94888
594 1 17.2985 11.007 17.2981 -8.94943
595 1 20.442 11.007 17.2972 -8.94954
596 1 -2.81907e-05 12.5795 15.7248 -8.94963
597 1 1.57182 14.1519 17.2972 -8.94981
598 1 3.14368 12.5793 15.7251 -8.95066
599 1 4.71535 14.153 17.2989 -8.94797
600 1 6.28574 12.5834 15.7293 -8.9798
601 1 7.86172 14.1527 17.3002 -8.95288
602 1 9.43732 12.5823 15.7283 -9.00308
603 1 11.0077 14.154 17.3012 -8.95111
604 1 12.584 12.5814 15.7341 -8.9581
605 1 14.1543 14.1539 17.3009 -8.95101
606 1 15.7285 12.5808 15.7281 -8.94802
607 1 17.2984 14.1527 17.2981 -8.94927
608 1 18.8708 12.5798 15.7253 -8.94937
609 1 20.442 14.1521 17.2972 -8.94954
610 1 22.0137 15.7246 15.7247 -8.94987
611 1 1.57177 17.2971 17.2973 -8.94976
612 1 3.14304 15.7251 15.7257 -8.94996
613 1 4.71558 17.2984 17.2988 -8.94936
614 1 6.28576 15.7287 15.7299 -8.95015
615 1 7.86155 17.2982 17.2985 -8.94901
616 1 9.43387 15.7284 15.7281 -8.94807
617 1 11.0072 17.2984 17.2984 -8.94963
618 1 12.5824 15.7287 15.7295 -8.947
619 1 14.1531 17.2985 17.2985 -8.94905
620 1 15.7288 15.7284 15.7283 -8.94515
621 1 17.2982 17.2981 17.2979 -8.94836
622 1 18.8706 15.7253 15.7252 -8.94977
623 1 20.4418 17.2971 17.2971 -8.94958
624 1 -0.000558337 18.8696 15.7247 -8.94956
625 1 1.57179 20.4418 17.2972 -8.94919
626 1 3.14315 18.8705 15.7258 -8.94825
627 1 4.71666 20.4421 17.2975 -8.9496
628 1 6.28853 18.8711 15.726 -8.94954
629 1 7.86192 20.4421 17.2974 -8.94945
630 1 9.43448 18.8711 15.7257 -8.94925
631 1 11.0071 20.4421 17.2974 -8.9495
632 1 12.5804 18.8712 15.7258 -8.94897
633 1 14.1523 20.4421 17.2973 -8.94942
634 1 15.7256 18.8709 15.7254 -8.94946
635 1 17.2972 20.442 17.2971 -8.94949
636 1 18.8694 18.8696 15.7245 -8.94985
637 1 20.4415 20.4417 17.2969 -8.9496
638 1 1.5721 11.007 20.4416 -8.94957
639 1 4.71652 11.007 20.442 -8.94925
640 1 7.86173 11.007 20.4437 -8.95204
641 1 11.007 11.007 20.4423 -8.94859
642 1 14.1529 11.007 20.4418 -8.95024
643 1 17.2976 11.007 20.4416 -8.94947
644 1 20.4418 11.007 20.4415 -8.94956
645 1 22.0139 12.5794 18.8694 -8.94955
646 1 1.5721 14.1519 20.4416 -8.94961
647 1 3.14415 12.5794 18.8696 -8.94969
648 1 4.71641 14.1522 20.4422 -8.94939
649 1 6.28822 12.5803 18.8717 -8.94874
650 1 7.86183 14.1522 20.4422 -8.9502
651 1 9.43515 12.5802 18.8717 -8.94791
652 1 11.0071 14.1527 20.4423 -8.95017
653 1 12.5801 12.5797 18.8715 -8.95172
654 1 14.1526 14.1525 20.4418 -8.95063
655 1 15.7257 12.5798 18.8705 -8.94935
656 1 17.2976 14.1523 20.4416 -8.9494
657 1 18.8698 12.5795 18.8695 -8.9495
658 1 20.4418 14.152 20.4415 -8.94955
659 1 -8.17905e-05 15.7244 18.8694 -8.94961
660 1 1.5721 17.2969 20.4416 -8.94955
661 1 3.14402 15.7247 18.8699 -8.94922
662 1 4.71668 17.2972 20.4417 -8.95011
663 1 6.28897 15.725 18.8706 -8.95094
664 1 7.86179 17.2974 20.4417 -8.94951
665 1 9.43426 15.7255 18.8706 -8.94956
666 1 11.007 17.2975 20.4417 -8.94958
667 1 12.58 15.7255 18.8708 -8.94968
668 1 14.1523 17.2975 20.4417 -8.94955
669 1 15.7255 15.7254 18.8704 -8.94987
670 1 17.2974 17.2974 20.4416 -8.94951
671 1 18.8697 15.7247 18.8695 -8.94952
672 1 20.4417 17.2969 20.4415 -8.94957
673 1 22.0138 18.8693 18.8693 -8.94958
674 1 1.57211 20.4417 20.4416 -8.9494
675 1 3.14415 18.8697 18.8697 -8.94944
676 1 4.71702 20.4417 20.4416 -8.94958
677 1 6.28932 18.8697 18.8697 -8.9495
351 1 2.89061e-06 12.5794 22.0137 -8.94956
385 1 9.43445 18.8697 22.0136 -8.94951
355 1 6.28906 12.5795 22.0141 -8.94964
357 1 9.43459 12.5795 22.014 -8.94955
359 1 12.5798 12.5796 22.0126 -8.95144
367 1 3.14431 15.7245 22.0138 -8.94965
375 1 15.7254 15.7253 22.0129 -8.94998
383 1 6.28939 18.8696 22.0135 -8.94949
379 1 -8.25696e-05 18.8693 22.0137 -8.94954
363 1 18.8698 12.5795 22.0135 -8.9495
387 1 12.5796 18.8697 22.0136 -8.9495
526 1 1.57042 17.2979 11.0073 -8.94928
