ITEM: TIMESTEP
63
ITEM: NUMBER OF ATOMS
688
ITEM: BOX BOUNDS pp pp pp
0.0000000000000000e+00 2.2013900999999997e+01
0.0000000000000000e+00 2.2013900999999997e+01
0.0000000000000000e+00 2.2013900999999997e+01
ITEM: ATOMS id type x y z c_pot
191 1 4.70847 7.85872 11.0084 -8.9558
2 1 1.57237 1.57238 1.57237 -8.94949
3 1 3.14484 1.52182e-15 -8.31108e-06 -8.94967
4 1 4.71725 1.57238 1.57238 -8.94971
175 1 18.8696 9.43424 9.43452 -8.94864
6 1 7.8621 1.57237 1.57236 -8.94962
7 1 9.43453 1.57289e-15 -1.27868e-05 -8.94964
8 1 11.007 1.57236 1.57236 -8.94963
174 1 15.7242 9.43411 9.43442 -8.94146
10 1 14.1518 1.57237 1.57237 -8.94961
173 1 12.5639 9.4421 9.43342 -8.90053
12 1 17.2967 1.57235 1.57236 -8.94957
190 1 1.57081 7.86181 11.007 -8.95132
14 1 20.4415 1.57241 1.57241 -8.94964
172 1 9.35473 9.20668 9.43213 -8.16055
16 1 1.57237 4.71723 1.57238 -8.9497
17 1 3.14478 3.14478 -6.66322e-05 -8.94959
18 1 4.71697 4.71697 1.57194 -8.94952
171 1 6.2757 9.42443 9.43086 -9.00487
20 1 7.86206 4.71701 1.57209 -8.94937
170 1 3.14195 9.43497 9.43456 -8.95301
22 1 11.007 4.71697 1.57209 -8.94955
189 1 20.4415 4.71717 11.007 -8.9496
24 1 14.1519 4.71701 1.57216 -8.94979
169 1 -0.000439084 9.43457 9.43451 -8.94999
26 1 17.297 4.71692 1.5721 -8.94881
168 1 18.8694 6.2894 9.43453 -8.94958
28 1 20.4416 4.71722 1.57237 -8.94961
29 1 22.0139 6.28969 -1.06336e-05 -8.94964
30 1 1.57237 7.8621 1.57237 -8.94957
167 1 15.7254 6.28849 9.43454 -8.9476
32 1 4.71709 7.86214 1.57224 -8.9497
33 1 6.28954 6.28953 -0.000296731 -8.95004
34 1 7.86184 7.86187 1.57118 -8.95147
35 1 9.43444 6.28942 -0.00026949 -8.94956
36 1 11.0067 7.86153 1.57108 -8.94995
37 1 12.5794 6.28946 -0.000200028 -8.94954
38 1 14.1525 7.86133 1.57064 -8.95095
166 1 12.5793 6.28962 9.43338 -8.9447
40 1 17.2969 7.86199 1.57214 -8.94958
165 1 9.4308 6.28935 9.43434 -9.00187
42 1 20.4415 7.86209 1.57237 -8.9496
164 1 6.28261 6.28207 9.43394 -8.94416
163 1 3.14259 6.28847 9.43431 -8.9487
162 1 22.0135 6.28948 9.43449 -8.94976
161 1 18.8691 3.14477 9.43453 -8.94965
160 1 15.7245 3.14451 9.43454 -8.9497
48 1 15.7245 9.43445 -0.000316186 -8.94944
188 1 17.2969 4.71697 11.007 -8.94928
50 1 -1.17837e-05 4.30453e-16 3.14484 -8.94965
51 1 1.57236 1.57237 4.71724 -8.94966
52 1 3.14475 5.94303e-16 3.14475 -8.94958
53 1 4.71702 1.57206 4.717 -8.94977
54 1 6.28968 3.4965e-16 3.14478 -8.94962
55 1 7.86212 1.57215 4.71707 -8.94956
56 1 9.43453 1.12458e-15 3.14476 -8.94962
57 1 11.007 1.57211 4.71703 -8.94956
58 1 12.5794 1.20548e-15 3.14476 -8.94957
59 1 14.1519 1.57209 4.71713 -8.95008
60 1 15.7243 2.20278e-15 3.14478 -8.94973
61 1 17.2967 1.57239 4.71727 -8.94965
62 1 18.8691 9.23055e-16 3.14484 -8.94965
63 1 20.4415 1.57241 4.71726 -8.94962
64 1 22.0138 3.14479 3.14479 -8.94958
65 1 1.57195 4.71698 4.71697 -8.94953
66 1 3.1445 3.14452 3.1445 -8.94883
67 1 4.71534 4.71535 4.71529 -8.94561
68 1 6.28962 3.14458 3.1446 -8.9498
69 1 7.86195 4.71594 4.71624 -8.9495
70 1 9.43452 3.1445 3.14456 -8.94954
71 1 11.0072 4.7158 4.71618 -8.94826
72 1 12.5794 3.14451 3.14459 -8.94937
73 1 14.153 4.715 4.71607 -8.94989
74 1 15.7245 3.14436 3.14455 -8.94949
75 1 17.2969 4.71705 4.71724 -8.95004
76 1 18.8691 3.1448 3.14483 -8.94973
77 1 20.4415 4.71721 4.71723 -8.94969
78 1 22.0139 6.28966 3.14479 -8.94971
79 1 1.57218 7.86215 4.71711 -8.94968
80 1 3.14457 6.28962 3.14458 -8.95
81 1 4.71614 7.86214 4.71626 -8.9509
82 1 6.28848 6.28853 3.1426 -8.94996
83 1 7.85834 7.85839 4.7096 -8.95386
84 1 9.43432 6.2886 3.14338 -8.94824
85 1 11.0067 7.85913 4.71147 -8.95091
86 1 12.5796 6.28866 3.1435 -8.94951
87 1 14.1608 7.85327 4.70846 -8.93138
88 1 15.7261 6.28774 3.14296 -8.94557
89 1 17.2986 7.86118 4.71637 -8.95051
90 1 18.8695 6.28943 3.14459 -8.94963
91 1 20.4418 7.86201 4.71715 -8.94993
92 1 -8.23584e-06 9.43451 3.14476 -8.94961
93 1 3.14455 9.43452 3.14454 -8.94926
94 1 6.28926 9.43497 3.14407 -8.94953
95 1 9.43449 9.43438 3.14291 -8.95071
96 1 12.5809 9.43347 3.13871 -8.95783
97 1 15.7256 9.43404 3.14338 -8.94842
98 1 18.8694 9.43446 3.1446 -8.94944
99 1 22.0139 1.8651e-16 6.28968 -8.94964
100 1 1.57235 1.57236 7.86209 -8.94964
101 1 3.14474 -4.34431e-16 6.28964 -8.94955
102 1 4.71696 1.57203 7.86198 -8.94943
103 1 6.28954 1.38761e-15 6.28952 -8.95022
104 1 7.86205 1.57147 7.86198 -8.95104
105 1 9.43461 1.84832e-15 6.28953 -8.94991
106 1 11.0071 1.57197 7.86204 -8.94966
107 1 12.5795 1.07408e-15 6.28961 -8.95008
108 1 14.152 1.57221 7.86209 -8.94948
109 1 15.7243 1.18982e-15 6.28968 -8.94957
110 1 17.2967 1.57236 7.8621 -8.94963
111 1 18.8691 4.61611e-16 6.28968 -8.94963
112 1 20.4415 1.57241 7.8621 -8.94964
113 1 22.0138 3.14478 6.28966 -8.94959
114 1 1.57196 4.71697 7.86199 -8.94937
115 1 3.14452 3.1445 6.28953 -8.94956
116 1 4.7157 4.71552 7.86144 -8.94839
117 1 6.28895 3.14301 6.28887 -8.95097
118 1 7.8606 4.71104 7.86088 -8.95783
119 1 9.43483 3.14345 6.28913 -8.94989
120 1 11.0071 4.71542 7.86193 -8.95105
121 1 12.5796 3.14357 6.28946 -8.95159
122 1 14.1523 4.7165 7.86243 -8.94883
123 1 15.7244 3.14462 6.28974 -8.94955
124 1 17.2969 4.71697 7.86208 -8.94935
125 1 18.8691 3.14478 6.28967 -8.94958
126 1 20.4415 4.71717 7.86208 -8.94961
127 1 -0.000312883 6.28956 6.28957 -8.94997
128 1 1.57102 7.86195 7.86191 -8.95142
129 1 3.14262 6.28858 6.28851 -8.95005
130 1 4.70887 7.85885 7.85919 -8.95538
131 1 6.28072 6.28075 6.28069 -8.93145
132 1 7.8256 7.82925 7.83033 -8.85516
133 1 9.4349 6.28406 6.28672 -8.95091
134 1 11.02 7.85541 7.84281 -8.90927
135 1 12.5834 6.282 6.28567 -8.95376
136 1 14.1547 7.86117 7.86448 -8.95174
137 1 15.7252 6.28897 6.28989 -8.95095
138 1 17.2977 7.86162 7.86245 -8.94947
139 1 18.8693 6.28953 6.2897 -8.94962
140 1 20.4415 7.86199 7.8621 -8.94987
141 1 22.0138 9.43454 6.28955 -8.94981
142 1 3.14379 9.43496 6.28922 -8.94962
143 1 6.28634 9.43639 6.28749 -8.95139
144 1 9.42322 9.416 6.28269 -8.9088
145 1 12.6158 9.40358 6.25681 -8.85641
146 1 15.7316 9.43268 6.28747 -8.95706
147 1 18.8703 9.43439 6.28955 -8.95116
148 1 -1.77536e-05 8.09286e-16 9.43453 -8.94964
149 1 3.14473 -2.7169e-16 9.43452 -8.94962
150 1 6.28942 4.21123e-17 9.43447 -8.94999
151 1 9.43465 1.28497e-15 9.43449 -8.94952
152 1 12.5795 2.76088e-16 9.43447 -8.94955
153 1 15.7243 1.66169e-15 9.43453 -8.94968
154 1 18.8691 1.54502e-15 9.43453 -8.94963
155 1 -7.17584e-05 3.14478 9.43452 -8.94962
156 1 3.14446 3.14446 9.43449 -8.94964
157 1 6.2886 3.14268 9.43433 -8.94922
158 1 9.43475 3.14335 9.43444 -8.94778
159 1 12.5799 3.1442 9.4343 -8.94855
177 1 4.71696 1.57202 11.007 -8.94951
181 1 17.2967 1.57236 11.007 -8.94961
184 1 4.7156 4.71544 11.0074 -8.94869
11 1 15.7242 1.80136e-15 -7.38789e-06 -8.94964
25 1 15.7242 3.14479 -3.29311e-05 -8.9497
41 1 18.8691 6.28966 -3.96261e-05 -8.94967
44 1 3.14476 9.43452 -5.21753e-05 -8.94957
176 1 1.57234 1.57236 11.007 -8.94963
343 1 18.8691 9.43452 18.8691 -8.94964
178 1 7.86195 1.57125 11.0069 -8.9511
179 1 11.0072 1.57174 11.0069 -8.94986
180 1 14.1519 1.57226 11.0069 -8.94949
342 1 15.7246 9.43443 18.8695 -8.94945
182 1 20.4415 1.57241 11.007 -8.94964
341 1 12.5797 9.43436 18.8704 -8.95135
340 1 9.43499 9.43379 18.8707 -8.94814
185 1 7.85993 4.70995 11.0073 -8.95632
186 1 11.0079 4.71404 11.0062 -8.95013
187 1 14.1522 4.71675 11.0065 -8.94943
339 1 6.28877 9.4338 18.8707 -8.94903
338 1 3.14468 9.43456 18.8691 -8.94975
337 1 22.0139 9.43453 18.8691 -8.94962
336 1 20.4415 7.86211 20.4415 -8.94964
192 1 7.82372 7.82771 11.036 -8.90709
193 1 11.0239 7.8519 11.0198 -8.93966
194 1 14.1548 7.86161 11.0046 -8.95418
195 1 17.2976 7.86165 11.0066 -8.94957
196 1 20.4415 7.86198 11.0069 -8.9499
197 1 22.0139 -4.05401e-16 12.5794 -8.94964
198 1 1.57235 1.57236 14.1518 -8.94966
199 1 3.14474 4.41194e-16 12.5794 -8.94958
200 1 4.71698 1.572 14.1521 -8.94981
201 1 6.28951 1.45915e-16 12.5795 -8.95022
202 1 7.86202 1.57191 14.1521 -8.9496
203 1 9.43461 -1.87624e-16 12.5795 -8.95062
204 1 11.0072 1.57186 14.1521 -8.94976
205 1 12.5795 3.05934e-16 12.5794 -8.94999
206 1 14.152 1.57209 14.1519 -8.95001
207 1 15.7243 1.29315e-15 12.5794 -8.9496
208 1 17.2967 1.57239 14.1518 -8.94967
209 1 18.8691 1.35158e-15 12.5794 -8.94962
210 1 20.4415 1.57241 14.1518 -8.94963
211 1 22.0138 3.14478 12.5794 -8.9496
212 1 1.57191 4.71695 14.1521 -8.94962
213 1 3.14448 3.14445 12.5795 -8.94953
214 1 4.71509 4.71502 14.1538 -8.94584
215 1 6.28888 3.14277 12.5801 -8.95096
216 1 7.86129 4.71478 14.1534 -8.94799
217 1 9.43481 3.14197 12.5799 -8.9526
218 1 11.008 4.71435 14.1536 -8.94766
219 1 12.5797 3.14346 12.5796 -8.95118
220 1 14.1531 4.71506 14.1529 -8.95005
221 1 15.7244 3.14465 12.5793 -8.94965
222 1 17.2969 4.71705 14.1518 -8.95002
223 1 18.8691 3.14478 12.5794 -8.94957
224 1 20.4414 4.7172 14.1518 -8.94968
225 1 22.0135 6.28952 12.5795 -8.94988
226 1 1.5718 7.86196 14.152 -8.94979
227 1 3.1425 6.28847 12.5803 -8.95001
228 1 4.71481 7.86104 14.1529 -8.94963
229 1 6.28057 6.27983 12.5882 -8.93261
230 1 7.85623 7.8568 14.1609 -9.0053
231 1 9.43532 6.27448 12.5819 -8.96448
232 1 11.0108 7.85511 14.162 -8.98172
233 1 12.5832 6.2821 12.5831 -8.95352
234 1 14.1611 7.85348 14.1604 -8.93353
235 1 15.7252 6.28897 12.5791 -8.95077
236 1 17.2987 7.86119 14.1526 -8.95059
237 1 18.8693 6.28952 12.5793 -8.94962
238 1 20.4417 7.862 14.1519 -8.95
239 1 22.0136 9.43453 12.5795 -8.95003
240 1 3.14283 9.43466 12.5799 -8.95058
241 1 6.28243 9.43223 12.5806 -8.98527
242 1 9.44558 9.36654 12.584 -9.17229
243 1 12.6129 9.40501 12.6126 -8.90833
244 1 15.7313 9.43272 12.5815 -8.95611
245 1 18.8703 9.43438 12.5795 -8.95109
246 1 -1.45037e-05 -5.34538e-17 15.7242 -8.94965
247 1 1.57235 1.57237 17.2967 -8.94948
248 1 3.14474 2.6511e-16 15.7243 -8.94959
249 1 4.71721 1.57232 17.2967 -8.94968
250 1 6.28963 1.88458e-15 15.7243 -8.94965
251 1 7.8621 1.57233 17.2967 -8.94961
252 1 9.43453 1.11771e-15 15.7243 -8.94959
253 1 11.007 1.57234 17.2967 -8.94962
254 1 12.5795 1.00248e-15 15.7244 -8.94963
255 1 14.1519 1.57231 17.2967 -8.94956
256 1 15.7243 7.65333e-16 15.7243 -8.94972
257 1 17.2967 1.57235 17.2967 -8.94959
258 1 18.8691 3.17392e-16 15.7242 -8.94966
259 1 20.4415 1.57241 17.2966 -8.94964
260 1 -8.57858e-05 3.14478 15.7243 -8.94961
261 1 1.57232 4.71719 17.2967 -8.94966
262 1 3.14443 3.14443 15.7246 -8.94883
263 1 4.7168 4.71668 17.2973 -8.94951
264 1 6.28945 3.14425 15.7246 -8.94974
265 1 7.86205 4.71685 17.2972 -8.94928
266 1 9.4345 3.14429 15.7246 -8.94944
267 1 11.007 4.71685 17.2971 -8.94981
268 1 12.5797 3.14417 15.7247 -8.94925
269 1 14.1521 4.71677 17.2971 -8.94935
270 1 15.7245 3.14437 15.7245 -8.94956
271 1 17.297 4.71691 17.297 -8.94887
272 1 18.8691 3.1448 15.7242 -8.94973
273 1 20.4415 4.71721 17.2967 -8.94959
274 1 22.0138 6.28961 15.7243 -8.94967
275 1 1.57221 7.86207 17.2967 -8.94985
276 1 3.14426 6.28938 15.7246 -8.94963
277 1 4.71603 7.86108 17.2979 -8.94779
278 1 6.28792 6.28742 15.727 -8.95061
279 1 7.86199 7.86178 17.2985 -8.95187
280 1 9.43413 6.28793 15.7258 -8.94874
281 1 11.0072 7.861 17.2992 -8.95048
282 1 12.5807 6.28758 15.7266 -8.94764
283 1 14.1529 7.86105 17.2987 -8.95037
284 1 15.7263 6.28773 15.7261 -8.94593
285 1 17.297 7.86195 17.297 -8.94958
286 1 18.8695 6.28943 15.7245 -8.94966
287 1 20.4415 7.86209 17.2967 -8.94964
288 1 -9.45383e-05 9.43452 15.7243 -8.94969
289 1 3.14403 9.43456 15.7245 -8.95082
290 1 6.28522 9.43032 15.7288 -8.98036
291 1 9.43656 9.43238 15.7276 -9.00157
292 1 12.5826 9.4328 15.732 -8.95628
293 1 15.726 9.43397 15.7258 -8.9487
294 1 18.8695 9.43446 15.7245 -8.94952
295 1 22.0139 1.85181e-15 18.8691 -8.94959
296 1 1.5724 1.5724 20.4415 -8.9496
297 1 3.14482 3.70938e-16 18.8691 -8.94965
298 1 4.71726 1.57241 20.4415 -8.94964
299 1 6.28968 1.12509e-15 18.8691 -8.94963
300 1 7.8621 1.5724 20.4415 -8.94964
301 1 9.43453 1.46424e-15 18.8691 -8.94964
302 1 11.007 1.5724 20.4415 -8.94964
303 1 12.5794 1.3452e-15 18.8691 -8.94965
304 1 14.1518 1.5724 20.4415 -8.94965
305 1 15.7242 -1.85925e-17 18.8691 -8.94961
306 1 17.2966 1.57241 20.4415 -8.94965
307 1 18.8691 1.52109e-15 18.8691 -8.94961
308 1 20.4415 1.57241 20.4415 -8.94959
309 1 22.0139 3.14483 18.8691 -8.94963
310 1 1.57238 4.71723 20.4415 -8.94956
311 1 3.14475 3.14473 18.8692 -8.94955
312 1 4.71719 4.71717 20.4415 -8.9498
313 1 6.28967 3.14475 18.8692 -8.94961
314 1 7.86207 4.71714 20.4415 -8.94957
315 1 9.43453 3.14473 18.8692 -8.94962
316 1 11.007 4.71714 20.4415 -8.94964
317 1 12.5794 3.14475 18.8691 -8.94969
318 1 14.1518 4.71716 20.4415 -8.94959
319 1 15.7243 3.14476 18.8691 -8.94961
320 1 17.2967 4.71716 20.4415 -8.94956
321 1 18.8691 3.14479 18.8691 -8.94949
322 1 20.4415 4.71726 20.4415 -8.94966
323 1 -3.24862e-05 6.28967 18.8691 -8.94966
324 1 1.57239 7.86212 20.4415 -8.94968
325 1 3.14458 6.28947 18.8693 -8.94921
326 1 4.71698 7.86189 20.4418 -8.9495
327 1 6.28955 6.28942 18.8695 -8.95031
328 1 7.86202 7.86194 20.4417 -8.9499
329 1 9.43444 6.28926 18.8695 -8.94952
330 1 11.007 7.86176 20.4418 -8.94984
331 1 12.5795 6.28932 18.8696 -8.94955
332 1 14.152 7.8619 20.4416 -8.95022
333 1 15.7245 6.28937 18.8695 -8.94965
334 1 17.2967 7.86207 20.4415 -8.94957
335 1 18.8691 6.28965 18.8691 -8.94967
5 1 6.28968 7.48479e-16 22.0139 -8.94963
9 1 12.5794 1.62349e-15 22.0139 -8.94964
47 1 12.5795 9.43443 22.0131 -8.95112
15 1 -1.29201e-06 3.14483 22.0139 -8.94962
19 1 6.28967 3.14479 22.0139 -8.9496
21 1 9.43453 3.14477 22.0139 -8.94963
46 1 9.43448 9.43437 22.0137 -8.94972
27 1 18.8691 3.14479 22.0139 -8.94948
31 1 3.14476 6.28964 22.0139 -8.94962
39 1 15.7245 6.28942 22.0136 -8.94975
45 1 6.28945 9.43446 22.014 -8.94973
43 1 -6.43715e-06 9.43453 22.0139 -8.94964
1 1 -1.08866e-05 1.44421e-15 22.0139 -8.94959
13 1 18.8691 1.6224e-15 22.0139 -8.9496
23 1 12.5794 3.14478 22.0139 -8.94962
49 1 18.8691 9.43452 22.0139 -8.94964
183 1 1.57195 4.71695 11.007 -8.94944
344 1 1.57236 11.007 1.57235 -8.94965
345 1 4.71698 11.007 1.57208 -8.94956
346 1 7.86187 11.007 1.57213 -8.94933
347 1 11.0067 11.007 1.57112 -8.948
348 1 14.1527 11.007 1.5706 -8.94931
349 1 17.2969 11.007 1.57213 -8.94963
350 1 20.4415 11.007 1.57237 -8.94962
688 3 10.2178 11.007 9.43363 2.3312
352 1 1.57237 14.1518 1.57237 -8.94957
511 1 18.8691 18.8691 9.43453 -8.94965
354 1 4.71709 14.1518 1.57224 -8.9497
510 1 15.7245 18.8694 9.43454 -8.9497
356 1 7.86184 14.152 1.57118 -8.95147
509 1 12.5799 18.8697 9.4343 -8.94855
358 1 11.0067 14.1524 1.57108 -8.94995
508 1 9.43475 18.8705 9.43444 -8.94778
360 1 14.1525 14.1526 1.57064 -8.95095
361 1 15.7245 12.5795 -0.000316186 -8.94944
362 1 17.2969 14.1519 1.57214 -8.94958
538 1 17.2967 20.4415 11.007 -8.94961
364 1 20.4415 14.1518 1.57237 -8.9496
365 1 22.0139 15.7242 -1.06336e-05 -8.94964
366 1 1.57237 17.2967 1.57238 -8.9497
507 1 6.2886 18.8712 9.43433 -8.94922
368 1 4.71697 17.2969 1.57194 -8.94952
369 1 6.28954 15.7244 -0.000296731 -8.95004
370 1 7.86206 17.2969 1.57209 -8.94937
371 1 9.43444 15.7245 -0.00026949 -8.94956
372 1 11.007 17.2969 1.57209 -8.94955
373 1 12.5794 15.7244 -0.000200028 -8.94954
374 1 14.1519 17.2969 1.57216 -8.94979
506 1 3.14446 18.8694 9.43449 -8.94964
376 1 17.297 17.297 1.5721 -8.94881
505 1 -7.17584e-05 18.8691 9.43452 -8.94962
378 1 20.4416 17.2967 1.57237 -8.94961
504 1 18.8694 15.7245 9.43453 -8.94958
380 1 1.57237 20.4415 1.57237 -8.94949
381 1 3.14478 18.8691 -6.66322e-05 -8.94959
382 1 4.71725 20.4415 1.57238 -8.94971
503 1 15.7254 15.7254 9.43454 -8.9476
384 1 7.8621 20.4415 1.57236 -8.94962
502 1 12.5793 15.7243 9.43338 -8.9447
386 1 11.007 20.4415 1.57236 -8.94963
534 1 4.71696 20.4419 11.007 -8.94951
388 1 14.1518 20.4415 1.57237 -8.94961
501 1 9.4308 15.7246 9.43434 -9.00187
390 1 17.2967 20.4416 1.57236 -8.94957
500 1 6.28261 15.7318 9.43394 -8.94416
392 1 20.4415 20.4415 1.57241 -8.94964
393 1 1.57209 11.007 4.71696 -8.94954
394 1 4.71614 11.007 4.71595 -8.94685
395 1 7.86347 11.007 4.71696 -8.9497
396 1 11.0106 11.007 4.71712 -9.00064
397 1 14.1583 11.007 4.71072 -8.94362
398 1 17.2985 11.007 4.71633 -8.94907
399 1 20.4418 11.007 4.71711 -8.94977
400 1 -8.23584e-06 12.5794 3.14476 -8.94961
401 1 1.57218 14.1518 4.71711 -8.94968
402 1 3.14455 12.5794 3.14454 -8.94926
403 1 4.71614 14.1518 4.71626 -8.9509
404 1 6.28926 12.5789 3.14407 -8.94953
405 1 7.85834 14.1555 4.7096 -8.95386
406 1 9.43449 12.5795 3.14291 -8.95071
407 1 11.0067 14.1548 4.71147 -8.95091
408 1 12.5809 12.5804 3.13871 -8.95783
409 1 14.1608 14.1606 4.70846 -8.93138
410 1 15.7256 12.5799 3.14338 -8.94842
411 1 17.2986 14.1527 4.71637 -8.95051
412 1 18.8694 12.5794 3.1446 -8.94944
413 1 20.4418 14.1519 4.71715 -8.94993
414 1 22.0139 15.7242 3.14479 -8.94971
415 1 1.57195 17.2969 4.71697 -8.94953
416 1 3.14457 15.7243 3.14458 -8.95
417 1 4.71534 17.2986 4.71529 -8.94561
418 1 6.28848 15.7254 3.1426 -8.94996
419 1 7.86195 17.298 4.71624 -8.9495
420 1 9.43432 15.7253 3.14338 -8.94824
421 1 11.0072 17.2981 4.71618 -8.94826
422 1 12.5796 15.7252 3.1435 -8.94951
423 1 14.153 17.2989 4.71607 -8.94989
424 1 15.7261 15.7262 3.14296 -8.94557
425 1 17.2969 17.2968 4.71724 -8.95004
426 1 18.8695 15.7245 3.14459 -8.94963
427 1 20.4415 17.2967 4.71723 -8.94969
428 1 22.0138 18.8691 3.14479 -8.94958
429 1 1.57236 20.4415 4.71724 -8.94966
430 1 3.1445 18.8694 3.1445 -8.94883
431 1 4.71702 20.4418 4.717 -8.94977
432 1 6.28962 18.8693 3.1446 -8.9498
433 1 7.86212 20.4418 4.71707 -8.94956
434 1 9.43452 18.8694 3.14456 -8.94954
435 1 11.007 20.4418 4.71703 -8.94956
436 1 12.5794 18.8694 3.14459 -8.94937
437 1 14.1519 20.4418 4.71713 -8.95008
438 1 15.7245 18.8695 3.14455 -8.94949
439 1 17.2967 20.4415 4.71727 -8.94965
440 1 18.8691 18.8691 3.14483 -8.94973
441 1 20.4415 20.4415 4.71726 -8.94962
442 1 1.57185 11.007 7.86175 -8.94832
443 1 4.71759 11.007 7.86166 -8.94111
444 1 7.87868 11.007 7.86042 -8.91179
445 1 11.0893 11.007 7.63844 -8.1107
446 1 14.162 11.007 7.85652 -8.97238
447 1 17.299 11.007 7.86248 -8.9516
448 1 20.4418 11.007 7.86212 -8.94989
449 1 22.0138 12.5794 6.28955 -8.94981
450 1 1.57102 14.152 7.86191 -8.95142
451 1 3.14379 12.5789 6.28922 -8.94962
452 1 4.70887 14.1551 7.85919 -8.95538
453 1 6.28634 12.5775 6.28749 -8.95139
454 1 7.8256 14.1846 7.83033 -8.85516
455 1 9.42322 12.5979 6.28269 -8.9088
456 1 11.02 14.1585 7.84281 -8.90927
457 1 12.6158 12.6103 6.25681 -8.85641
458 1 14.1547 14.1527 7.86448 -8.95174
459 1 15.7316 12.5812 6.28747 -8.95706
460 1 17.2977 14.1523 7.86245 -8.94947
461 1 18.8703 12.5795 6.28955 -8.95116
462 1 20.4415 14.1519 7.8621 -8.94987
463 1 -0.000312883 15.7243 6.28957 -8.94997
464 1 1.57196 17.2969 7.86199 -8.94937
465 1 3.14262 15.7253 6.28851 -8.95005
466 1 4.7157 17.2984 7.86144 -8.94839
467 1 6.28072 15.7331 6.28069 -8.93145
468 1 7.8606 17.3029 7.86088 -8.95783
469 1 9.4349 15.7298 6.28672 -8.95091
470 1 11.0071 17.2985 7.86193 -8.95105
471 1 12.5834 15.7319 6.28567 -8.95376
472 1 14.1523 17.2974 7.86243 -8.94883
473 1 15.7252 15.7249 6.28989 -8.95095
474 1 17.2969 17.2969 7.86208 -8.94935
475 1 18.8693 15.7244 6.2897 -8.94962
476 1 20.4415 17.2967 7.86208 -8.94961
477 1 22.0138 18.8691 6.28966 -8.94959
478 1 1.57235 20.4415 7.86209 -8.94964
479 1 3.14452 18.8694 6.28953 -8.94956
480 1 4.71696 20.4419 7.86198 -8.94943
481 1 6.28895 18.8709 6.28887 -8.95097
482 1 7.86205 20.4424 7.86198 -8.95104
483 1 9.43483 18.8704 6.28913 -8.94989
484 1 11.0071 20.4419 7.86204 -8.94966
485 1 12.5796 18.8703 6.28946 -8.95159
486 1 14.152 20.4417 7.86209 -8.94948
487 1 15.7244 18.8693 6.28974 -8.94955
488 1 17.2967 20.4415 7.8621 -8.94963
489 1 18.8691 18.8691 6.28967 -8.94958
490 1 20.4415 20.4415 7.8621 -8.94964
491 1 -0.000439084 12.5793 9.43451 -8.94999
492 1 3.14195 12.5789 9.43456 -8.95301
493 1 6.2757 12.5895 9.43086 -9.00487
494 1 9.35473 12.8072 9.43213 -8.16055
495 1 12.5639 12.5718 9.43342 -8.90053
496 1 15.7242 12.5798 9.43442 -8.94146
497 1 18.8696 12.5797 9.43452 -8.94864
498 1 22.0135 15.7244 9.43449 -8.94976
499 1 3.14259 15.7254 9.43431 -8.9487
512 1 1.57171 11.007 11.0072 -8.94801
514 1 7.85429 11.007 10.9495 -9.1711
519 1 1.57081 14.1521 11.007 -8.95132
520 1 4.70847 14.1552 11.0084 -8.9558
532 1 20.4415 17.2967 11.007 -8.9496
527 1 4.7156 17.2985 11.0074 -8.94869
531 1 17.2969 17.2969 11.007 -8.94928
518 1 20.4418 11.007 11.0069 -8.94987
353 1 3.14476 12.5794 -5.21753e-05 -8.94957
389 1 15.7242 18.8691 -3.29311e-05 -8.9497
377 1 18.8691 15.7242 -3.96261e-05 -8.94967
687 2 8.65748 11.007 12.576 0.772937
513 1 4.71785 11.007 11.0084 -8.99421
686 1 20.4415 20.4415 20.4415 -8.94959
515 1 11.0922 11.007 11.2261 -8.13486
516 1 14.1618 11.007 11.0123 -8.9739
517 1 17.299 11.007 11.0066 -8.95172
391 1 18.8691 18.8691 22.0139 -8.94948
685 1 18.8691 18.8691 18.8691 -8.94949
684 1 17.2966 20.4415 20.4415 -8.94965
521 1 7.82372 14.1862 11.036 -8.90709
522 1 11.0239 14.162 11.0198 -8.93966
523 1 14.1548 14.1523 11.0046 -8.95418
524 1 17.2976 14.1522 11.0066 -8.94957
525 1 20.4415 14.1519 11.0069 -8.9499
683 1 15.7243 18.8691 18.8691 -8.94961
682 1 14.1518 20.4415 20.4415 -8.94965
528 1 7.85993 17.304 11.0073 -8.95632
529 1 11.0079 17.2999 11.0062 -8.95013
530 1 14.1522 17.2971 11.0065 -8.94943
681 1 12.5794 18.8691 18.8691 -8.94969
680 1 11.007 20.4415 20.4415 -8.94964
533 1 1.57234 20.4415 11.007 -8.94963
679 1 9.43453 18.8692 18.8692 -8.94962
535 1 7.86195 20.4426 11.0069 -8.9511
536 1 11.0072 20.4422 11.0069 -8.94986
537 1 14.1519 20.4416 11.0069 -8.94949
678 1 7.8621 20.4415 20.4415 -8.94964
539 1 20.4415 20.4415 11.007 -8.94964
540 1 1.57194 11.007 14.1521 -8.94889
541 1 4.71685 11.007 14.1519 -8.99852
542 1 7.842 11.007 14.2006 -9.20922
543 1 11.0155 11.007 14.1591 -9.03292
544 1 14.1591 11.007 14.1584 -8.94548
545 1 17.2987 11.007 14.1527 -8.94932
546 1 20.4417 11.007 14.152 -8.94976
547 1 22.0136 12.5794 12.5795 -8.95003
548 1 1.5718 14.1519 14.152 -8.94979
549 1 3.14283 12.5792 12.5799 -8.95058
550 1 4.71481 14.1529 14.1529 -8.94963
551 1 6.28243 12.5817 12.5806 -8.98527
552 1 7.85623 14.1571 14.1609 -9.0053
553 1 9.44558 12.6474 12.584 -9.17229
554 1 11.0108 14.1588 14.162 -8.98172
555 1 12.6129 12.6089 12.6126 -8.90833
556 1 14.1611 14.1604 14.1604 -8.93353
557 1 15.7313 12.5812 12.5815 -8.95611
558 1 17.2987 14.1527 14.1526 -8.95059
559 1 18.8703 12.5795 12.5795 -8.95109
560 1 20.4417 14.1519 14.1519 -8.95
561 1 22.0135 15.7244 12.5795 -8.94988
562 1 1.57191 17.297 14.1521 -8.94962
563 1 3.1425 15.7254 12.5803 -8.95001
564 1 4.71509 17.2989 14.1538 -8.94584
565 1 6.28057 15.7341 12.5882 -8.93261
566 1 7.86129 17.2991 14.1534 -8.94799
567 1 9.43532 15.7394 12.5819 -8.96448
568 1 11.008 17.2996 14.1536 -8.94766
569 1 12.5832 15.7318 12.5831 -8.95352
570 1 14.1531 17.2988 14.1529 -8.95005
571 1 15.7252 15.7249 12.5791 -8.95077
572 1 17.2969 17.2969 14.1518 -8.95002
573 1 18.8693 15.7244 12.5793 -8.94962
574 1 20.4414 17.2967 14.1518 -8.94968
575 1 22.0138 18.8691 12.5794 -8.9496
576 1 1.57235 20.4415 14.1518 -8.94966
577 1 3.14448 18.8695 12.5795 -8.94953
578 1 4.71698 20.4419 14.1521 -8.94981
579 1 6.28888 18.8711 12.5801 -8.95096
580 1 7.86202 20.442 14.1521 -8.9496
581 1 9.43481 18.8719 12.5799 -8.9526
582 1 11.0072 20.442 14.1521 -8.94976
583 1 12.5797 18.8704 12.5796 -8.95118
584 1 14.152 20.4418 14.1519 -8.95001
585 1 15.7244 18.8693 12.5793 -8.94965
586 1 17.2967 20.4415 14.1518 -8.94967
587 1 18.8691 18.8691 12.5794 -8.94957
588 1 20.4415 20.4415 14.1518 -8.94963
589 1 1.57227 11.007 17.2968 -8.94944
590 1 4.71697 11.007 17.2971 -8.94944
591 1 7.86155 11.007 17.3063 -8.96343
592 1 11.0069 11.007 17.2995 -8.95008
593 1 14.1531 11.007 17.2988 -8.9487
594 1 17.297 11.007 17.297 -8.94958
595 1 20.4415 11.007 17.2967 -8.94962
596 1 -9.45383e-05 12.5794 15.7243 -8.94969
597 1 1.57221 14.1518 17.2967 -8.94985
598 1 3.14403 12.5793 15.7245 -8.95082
599 1 4.71603 14.1528 17.2979 -8.94779
600 1 6.28522 12.5836 15.7288 -8.98036
601 1 7.86199 14.1521 17.2985 -8.95187
602 1 9.43656 12.5815 15.7276 -9.00157
603 1 11.0072 14.1529 17.2992 -8.95048
604 1 12.5826 12.5811 15.732 -8.95628
605 1 14.1529 14.1528 17.2987 -8.95037
606 1 15.726 12.5799 15.7258 -8.9487
607 1 17.297 14.152 17.297 -8.94958
608 1 18.8695 12.5794 15.7245 -8.94952
609 1 20.4415 14.1518 17.2967 -8.94964
610 1 22.0138 15.7243 15.7243 -8.94967
611 1 1.57232 17.2967 17.2967 -8.94966
612 1 3.14426 15.7245 15.7246 -8.94963
613 1 4.7168 17.2972 17.2973 -8.94951
614 1 6.28792 15.7265 15.727 -8.95061
615 1 7.86205 17.297 17.2972 -8.94928
616 1 9.43413 15.726 15.7258 -8.94874
617 1 11.007 17.2971 17.2971 -8.94981
618 1 12.5807 15.7263 15.7266 -8.94764
619 1 14.1521 17.2971 17.2971 -8.94935
620 1 15.7263 15.7262 15.7261 -8.94593
621 1 17.297 17.297 17.297 -8.94887
622 1 18.8695 15.7245 15.7245 -8.94966
623 1 20.4415 17.2967 17.2967 -8.94959
624 1 -8.57858e-05 18.8691 15.7243 -8.94961
625 1 1.57235 20.4415 17.2967 -8.94948
626 1 3.14443 18.8695 15.7246 -8.94883
627 1 4.71721 20.4416 17.2967 -8.94968
628 1 6.28945 18.8697 15.7246 -8.94974
629 1 7.8621 20.4416 17.2967 -8.94961
630 1 9.4345 18.8696 15.7246 -8.94944
631 1 11.007 20.4416 17.2967 -8.94962
632 1 12.5797 18.8697 15.7247 -8.94925
633 1 14.1519 20.4416 17.2967 -8.94956
634 1 15.7245 18.8695 15.7245 -8.94956
635 1 17.2967 20.4415 17.2967 -8.94959
636 1 18.8691 18.8691 15.7242 -8.94973
637 1 20.4415 20.4415 17.2966 -8.94964
638 1 1.57238 11.007 20.4415 -8.94964
639 1 4.71709 11.007 20.4416 -8.94935
640 1 7.862 11.007 20.4429 -8.95212
641 1 11.0069 11.007 20.4418 -8.94971
642 1 14.1521 11.007 20.4416 -8.94988
643 1 17.2967 11.007 20.4415 -8.94961
644 1 20.4415 11.007 20.4415 -8.94964
645 1 22.0139 12.5794 18.8691 -8.94962
646 1 1.57239 14.1518 20.4415 -8.94968
647 1 3.14468 12.5793 18.8691 -8.94975
648 1 4.71698 14.152 20.4418 -8.9495
649 1 6.28877 12.5801 18.8707 -8.94903
650 1 7.86202 14.152 20.4417 -8.9499
651 1 9.43499 12.5801 18.8707 -8.94814
652 1 11.007 14.1521 20.4418 -8.94984
653 1 12.5797 12.5795 18.8704 -8.95135
654 1 14.152 14.152 20.4416 -8.95022
655 1 15.7246 12.5795 18.8695 -8.94945
656 1 17.2967 14.1518 20.4415 -8.94957
657 1 18.8691 12.5794 18.8691 -8.94964
658 1 20.4415 14.1518 20.4415 -8.94964
659 1 -3.24862e-05 15.7242 18.8691 -8.94966
660 1 1.57238 17.2967 20.4415 -8.94956
661 1 3.14458 15.7244 18.8693 -8.94921
662 1 4.71719 17.2967 20.4415 -8.9498
663 1 6.28955 15.7245 18.8695 -8.95031
664 1 7.86207 17.2968 20.4415 -8.94957
665 1 9.43444 15.7246 18.8695 -8.94952
666 1 11.007 17.2968 20.4415 -8.94964
667 1 12.5795 15.7246 18.8696 -8.94955
668 1 14.1518 17.2967 20.4415 -8.94959
669 1 15.7245 15.7245 18.8695 -8.94965
670 1 17.2967 17.2967 20.4415 -8.94956
671 1 18.8691 15.7242 18.8691 -8.94967
672 1 20.4415 17.2966 20.4415 -8.94966
673 1 22.0139 18.8691 18.8691 -8.94963
674 1 1.5724 20.4415 20.4415 -8.9496
675 1 3.14475 18.8692 18.8692 -8.94955
676 1 4.71726 20.4415 20.4415 -8.94964
677 1 6.28967 18.8691 18.8692 -8.94961
351 1 -6.43715e-06 12.5794 22.0139 -8.94964
385 1 9.43453 18.8691 22.0139 -8.94963
355 1 6.28945 12.5794 22.014 -8.94973
357 1 9.43448 12.5795 22.0137 -8.94972
359 1 12.5795 12.5795 22.0131 -8.95112
367 1 3.14476 15.7243 22.0139 -8.94962
375 1 15.7245 15.7245 22.0136 -8.94975
383 1 6.28967 18.8691 22.0139 -8.9496
379 1 -1.29201e-06 18.8691 22.0139 -8.94962
363 1 18.8691 12.5794 22.0139 -8.94964
387 1 12.5794 18.8691 22.0139 -8.94962
526 1 1.57195 17.2969 11.007 -8.94944
