ITEM: TIMESTEP
37
ITEM: NUMBER OF ATOMS
688
ITEM: BOX BOUNDS pp pp pp
0.0000000000000000e+00 2.2013900999999997e+01
0.0000000000000000e+00 2.2013900999999997e+01
0.0000000000000000e+00 2.2013900999999997e+01
ITEM: ATOMS id type x y z c_pot
191 1 4.71716 7.86204 11.0069 -8.94937
2 1 1.57242 1.57242 1.57242 -8.94963
3 1 3.14484 1.28797e-16 7.08444e-11 -8.94963
4 1 4.71726 1.57242 1.57242 -8.94963
175 1 18.8691 9.43453 9.43453 -8.94965
6 1 7.86211 1.57242 1.57242 -8.94963
7 1 9.43453 3.51817e-16 1.65632e-10 -8.94963
8 1 11.007 1.57242 1.57242 -8.94963
174 1 15.7243 9.43451 9.43453 -8.95017
10 1 14.1518 1.57242 1.57242 -8.94963
173 1 12.5825 9.43205 9.43447 -8.91157
12 1 17.2966 1.57242 1.57242 -8.94963
190 1 1.57242 7.86211 11.0069 -8.94964
14 1 20.4415 1.57242 1.57242 -8.94963
172 1 9.39397 9.35113 9.43461 -8.01137
16 1 1.57242 4.71726 1.57242 -8.94963
17 1 3.14484 3.14484 7.78791e-11 -8.94963
18 1 4.71726 4.71726 1.57242 -8.94963
171 1 6.28881 9.43431 9.43497 -8.9995
20 1 7.86211 4.71726 1.57242 -8.94963
170 1 3.14484 9.43454 9.43455 -8.95004
22 1 11.007 4.71726 1.57242 -8.94963
189 1 20.4415 4.71726 11.007 -8.94963
24 1 14.1518 4.71726 1.57242 -8.94963
169 1 2.63214e-07 9.43453 9.43453 -8.94963
26 1 17.2966 4.71726 1.57242 -8.94963
168 1 18.8691 6.28969 9.43453 -8.94963
28 1 20.4415 4.71726 1.57242 -8.94963
29 1 22.0139 6.28969 3.87075e-10 -8.94963
30 1 1.57242 7.86211 1.57242 -8.94963
167 1 15.7242 6.28969 9.43453 -8.9497
32 1 4.71726 7.86211 1.57242 -8.94963
33 1 6.28969 6.28969 -2.98057e-08 -8.94963
34 1 7.86211 7.86211 1.57242 -8.94963
35 1 9.43453 6.28969 4.27675e-08 -8.94963
36 1 11.007 7.86211 1.57242 -8.94964
37 1 12.5794 6.28969 6.5167e-08 -8.94963
38 1 14.1518 7.86211 1.57242 -8.94963
166 1 12.5793 6.28967 9.43454 -8.95091
40 1 17.2966 7.86211 1.57242 -8.94963
165 1 9.4345 6.28752 9.43454 -8.96591
42 1 20.4415 7.86211 1.57242 -8.94963
164 1 6.28973 6.28973 9.43453 -8.95137
163 1 3.14484 6.28968 9.43453 -8.94959
162 1 22.0139 6.28969 9.43453 -8.94963
161 1 18.8691 3.14484 9.43453 -8.94963
160 1 15.7242 3.14484 9.43453 -8.94963
48 1 15.7242 9.43453 6.84741e-08 -8.94963
188 1 17.2966 4.71726 11.007 -8.94964
50 1 3.89172e-11 2.62479e-16 3.14484 -8.94963
51 1 1.57242 1.57242 4.71726 -8.94963
52 1 3.14484 2.18953e-16 3.14484 -8.94963
53 1 4.71726 1.57242 4.71726 -8.94963
54 1 6.28969 3.90909e-16 3.14484 -8.94963
55 1 7.86211 1.57242 4.71726 -8.94963
56 1 9.43453 1.41833e-16 3.14484 -8.94963
57 1 11.007 1.57242 4.71726 -8.94963
58 1 12.5794 1.86055e-16 3.14484 -8.94963
59 1 14.1518 1.57242 4.71726 -8.94963
60 1 15.7242 4.23668e-16 3.14484 -8.94963
61 1 17.2966 1.57242 4.71726 -8.94963
62 1 18.8691 6.7644e-17 3.14484 -8.94963
63 1 20.4415 1.57242 4.71726 -8.94963
64 1 22.0139 3.14484 3.14484 -8.94963
65 1 1.57242 4.71726 4.71726 -8.94963
66 1 3.14484 3.14484 3.14484 -8.94963
67 1 4.71726 4.71726 4.71726 -8.94961
68 1 6.28969 3.14484 3.14484 -8.94963
69 1 7.86211 4.71727 4.71727 -8.9497
70 1 9.43453 3.14484 3.14484 -8.94963
71 1 11.0069 4.71727 4.71727 -8.94965
72 1 12.5794 3.14484 3.14484 -8.94963
73 1 14.1518 4.71726 4.71726 -8.94963
74 1 15.7242 3.14484 3.14484 -8.94963
75 1 17.2966 4.71726 4.71726 -8.94963
76 1 18.8691 3.14484 3.14484 -8.94963
77 1 20.4415 4.71726 4.71726 -8.94963
78 1 22.0139 6.28969 3.14484 -8.94963
79 1 1.57242 7.86211 4.71726 -8.94963
80 1 3.14484 6.28969 3.14484 -8.94963
81 1 4.71726 7.86211 4.71726 -8.94966
82 1 6.28969 6.28969 3.14484 -8.94963
83 1 7.86209 7.86209 4.71722 -8.94986
84 1 9.43453 6.28969 3.14484 -8.94965
85 1 11.0069 7.86215 4.7173 -8.95087
86 1 12.5794 6.28969 3.14485 -8.9497
87 1 14.1518 7.86206 4.71722 -8.94882
88 1 15.7242 6.28969 3.14484 -8.94961
89 1 17.2966 7.86211 4.71726 -8.94964
90 1 18.8691 6.28969 3.14484 -8.94963
91 1 20.4415 7.86211 4.71726 -8.94963
92 1 4.50308e-09 9.43453 3.14484 -8.94963
93 1 3.14484 9.43453 3.14484 -8.94964
94 1 6.28969 9.43453 3.14484 -8.94966
95 1 9.43451 9.4345 3.14481 -8.94938
96 1 12.5794 9.4345 3.14479 -8.94972
97 1 15.7242 9.43453 3.14485 -8.9497
98 1 18.8691 9.43453 3.14484 -8.94963
99 1 22.0139 2.26961e-16 6.28969 -8.94963
100 1 1.57242 1.57242 7.86211 -8.94963
101 1 3.14484 3.46512e-18 6.28969 -8.94963
102 1 4.71726 1.57242 7.86211 -8.94963
103 1 6.28969 3.5612e-16 6.28969 -8.94963
104 1 7.86211 1.57242 7.86211 -8.94964
105 1 9.43453 5.03577e-16 6.28969 -8.94963
106 1 11.007 1.57242 7.86211 -8.94963
107 1 12.5794 2.3778e-16 6.28969 -8.94963
108 1 14.1518 1.57242 7.86211 -8.94963
109 1 15.7242 2.43473e-16 6.28969 -8.94963
110 1 17.2966 1.57242 7.86211 -8.94963
111 1 18.8691 9.84293e-17 6.28969 -8.94963
112 1 20.4415 1.57242 7.86211 -8.94963
113 1 22.0139 3.14484 6.28969 -8.94963
114 1 1.57242 4.71726 7.86211 -8.94963
115 1 3.14484 3.14484 6.28969 -8.94963
116 1 4.71727 4.71727 7.86211 -8.9497
117 1 6.28969 3.14484 6.28969 -8.94963
118 1 7.86208 4.71721 7.86208 -8.94972
119 1 9.43453 3.14484 6.28969 -8.94964
120 1 11.007 4.71723 7.86208 -8.94938
121 1 12.5794 3.14484 6.28969 -8.94963
122 1 14.1518 4.71726 7.86211 -8.94966
123 1 15.7242 3.14484 6.28969 -8.94963
124 1 17.2966 4.71726 7.86211 -8.94964
125 1 18.8691 3.14484 6.28969 -8.94963
126 1 20.4415 4.71726 7.86211 -8.94963
127 1 -4.43941e-10 6.28969 6.28969 -8.94963
128 1 1.57242 7.86211 7.86211 -8.94965
129 1 3.14484 6.28969 6.28969 -8.94964
130 1 4.71723 7.86211 7.8621 -8.95004
131 1 6.28964 6.28964 6.28964 -8.94882
132 1 7.86032 7.86041 7.86032 -8.92214
133 1 9.43454 6.28972 6.28973 -8.95087
134 1 11.0076 7.86168 7.86142 -8.94129
135 1 12.5794 6.28964 6.28967 -8.94986
136 1 14.1519 7.86206 7.86205 -8.9492
137 1 15.7242 6.28969 6.28968 -8.94966
138 1 17.2966 7.86211 7.86211 -8.94964
139 1 18.8691 6.28969 6.28969 -8.94963
140 1 20.4415 7.86211 7.86211 -8.94963
141 1 22.0139 9.43453 6.28969 -8.94963
142 1 3.14484 9.43453 6.28968 -8.94964
143 1 6.28962 9.43447 6.28964 -8.94902
144 1 9.4339 9.43384 6.28925 -8.94117
145 1 12.5812 9.43273 6.28798 -8.92182
146 1 15.7243 9.43452 6.28968 -8.94995
147 1 18.8691 9.43453 6.28969 -8.94964
148 1 4.63811e-10 2.29144e-16 9.43453 -8.94963
149 1 3.14484 -9.86226e-17 9.43453 -8.94963
150 1 6.28969 5.19029e-17 9.43453 -8.94963
151 1 9.43453 1.69286e-16 9.43453 -8.94965
152 1 12.5794 8.09725e-17 9.43453 -8.94963
153 1 15.7242 4.83843e-16 9.43453 -8.94963
154 1 18.8691 1.87485e-16 9.43453 -8.94963
155 1 2.7874e-09 3.14484 9.43453 -8.94963
156 1 3.14484 3.14484 9.43453 -8.94963
157 1 6.28969 3.14484 9.43453 -8.94963
158 1 9.43453 3.1448 9.43453 -8.95021
159 1 12.5794 3.14484 9.43453 -8.94965
177 1 4.71726 1.57242 11.007 -8.94963
181 1 17.2966 1.57242 11.007 -8.94963
184 1 4.71727 4.71726 11.0069 -8.94971
11 1 15.7242 2.73463e-16 7.69021e-11 -8.94963
25 1 15.7242 3.14484 9.0411e-10 -8.94963
41 1 18.8691 6.28969 1.24162e-09 -8.94963
44 1 3.14484 9.43453 -5.71706e-09 -8.94963
176 1 1.57242 1.57242 11.007 -8.94963
343 1 18.8691 9.43453 18.8691 -8.94963
178 1 7.86211 1.57242 11.007 -8.94964
179 1 11.007 1.57242 11.007 -8.94963
180 1 14.1518 1.57242 11.007 -8.94963
342 1 15.7242 9.43453 18.8691 -8.94964
182 1 20.4415 1.57242 11.007 -8.94963
341 1 12.5794 9.43453 18.8691 -8.94965
340 1 9.43453 9.43452 18.8691 -8.9495
185 1 7.86208 4.7172 11.007 -8.94959
186 1 11.007 4.71724 11.007 -8.94917
187 1 14.1518 4.71726 11.007 -8.94966
339 1 6.28968 9.43452 18.8691 -8.94943
338 1 3.14484 9.43453 18.8691 -8.94963
337 1 22.0139 9.43453 18.8691 -8.94963
336 1 20.4415 7.86211 20.4415 -8.94963
192 1 7.86015 7.86051 11.0088 -8.97738
193 1 11.0074 7.86212 11.0076 -8.98251
194 1 14.1518 7.86208 11.007 -8.9494
195 1 17.2966 7.86211 11.007 -8.94964
196 1 20.4415 7.86211 11.007 -8.94963
197 1 22.0139 2.40783e-17 12.5794 -8.94963
198 1 1.57242 1.57242 14.1518 -8.94963
199 1 3.14484 6.38598e-17 12.5794 -8.94963
200 1 4.71726 1.57242 14.1518 -8.94963
201 1 6.28969 -1.41584e-16 12.5794 -8.94963
202 1 7.86211 1.57242 14.1518 -8.94963
203 1 9.43453 -1.27222e-16 12.5794 -8.94964
204 1 11.007 1.57242 14.1518 -8.94963
205 1 12.5794 -7.67174e-18 12.5794 -8.94963
206 1 14.1518 1.57242 14.1518 -8.94963
207 1 15.7242 3.6093e-16 12.5794 -8.94963
208 1 17.2966 1.57242 14.1518 -8.94963
209 1 18.8691 2.79125e-16 12.5794 -8.94963
210 1 20.4415 1.57242 14.1518 -8.94963
211 1 22.0139 3.14484 12.5794 -8.94963
212 1 1.57242 4.71726 14.1518 -8.94964
213 1 3.14484 3.14484 12.5794 -8.94963
214 1 4.71726 4.71726 14.1518 -8.94962
215 1 6.28969 3.14484 12.5794 -8.94965
216 1 7.8621 4.71726 14.1518 -8.94957
217 1 9.43453 3.14483 12.5794 -8.94979
218 1 11.007 4.71727 14.1518 -8.94944
219 1 12.5794 3.14484 12.5794 -8.94963
220 1 14.1518 4.71726 14.1518 -8.94963
221 1 15.7242 3.14484 12.5794 -8.94963
222 1 17.2966 4.71726 14.1518 -8.94963
223 1 18.8691 3.14484 12.5794 -8.94963
224 1 20.4415 4.71726 14.1518 -8.94963
225 1 22.0139 6.28969 12.5794 -8.94963
226 1 1.57242 7.86211 14.1518 -8.94963
227 1 3.14484 6.28969 12.5794 -8.94968
228 1 4.7172 7.86204 14.1518 -8.94908
229 1 6.28963 6.28959 12.5794 -8.94942
230 1 7.86192 7.8622 14.1518 -9.00544
231 1 9.43451 6.28919 12.5793 -8.95554
232 1 11.0068 7.86259 14.1518 -8.99211
233 1 12.5794 6.28968 12.5794 -8.95035
234 1 14.1518 7.86208 14.1518 -8.94898
235 1 15.7242 6.28969 12.5794 -8.94964
236 1 17.2966 7.86211 14.1518 -8.94963
237 1 18.8691 6.28969 12.5794 -8.94963
238 1 20.4415 7.86211 14.1518 -8.94963
239 1 22.0139 9.43453 12.5794 -8.94965
240 1 3.14478 9.43453 12.5794 -8.95043
241 1 6.28699 9.4327 12.5794 -8.98495
242 1 9.44258 9.41658 12.5798 -9.23418
243 1 12.5805 9.43318 12.5811 -8.96911
244 1 15.7242 9.43451 12.5794 -8.94975
245 1 18.8691 9.43453 12.5794 -8.94964
246 1 1.85385e-10 -2.50977e-16 15.7242 -8.94963
247 1 1.57242 1.57242 17.2966 -8.94963
248 1 3.14484 9.7536e-17 15.7242 -8.94963
249 1 4.71726 1.57242 17.2966 -8.94963
250 1 6.28969 3.58929e-16 15.7242 -8.94963
251 1 7.86211 1.57242 17.2966 -8.94963
252 1 9.43453 5.79039e-16 15.7242 -8.94963
253 1 11.007 1.57242 17.2966 -8.94963
254 1 12.5794 2.66807e-16 15.7242 -8.94963
255 1 14.1518 1.57242 17.2966 -8.94963
256 1 15.7242 -5.92461e-18 15.7242 -8.94963
257 1 17.2966 1.57242 17.2966 -8.94963
258 1 18.8691 1.01007e-16 15.7242 -8.94963
259 1 20.4415 1.57242 17.2966 -8.94963
260 1 3.29812e-09 3.14484 15.7242 -8.94963
261 1 1.57242 4.71726 17.2966 -8.94963
262 1 3.14484 3.14484 15.7242 -8.94963
263 1 4.71726 4.71726 17.2966 -8.94963
264 1 6.28969 3.14484 15.7242 -8.94963
265 1 7.86211 4.71726 17.2966 -8.94963
266 1 9.43453 3.14484 15.7242 -8.94964
267 1 11.007 4.71726 17.2966 -8.94963
268 1 12.5794 3.14484 15.7242 -8.94963
269 1 14.1518 4.71726 17.2966 -8.94964
270 1 15.7242 3.14484 15.7242 -8.94963
271 1 17.2966 4.71726 17.2966 -8.94963
272 1 18.8691 3.14484 15.7242 -8.94963
273 1 20.4415 4.71726 17.2966 -8.94963
274 1 22.0139 6.28969 15.7242 -8.94963
275 1 1.57242 7.86211 17.2966 -8.94964
276 1 3.14484 6.28968 15.7242 -8.9496
277 1 4.71727 7.86212 17.2966 -8.94973
278 1 6.28969 6.28969 15.7242 -8.94966
279 1 7.86211 7.86212 17.2966 -8.94996
280 1 9.43453 6.2897 15.7242 -8.94998
281 1 11.0069 7.86211 17.2966 -8.94967
282 1 12.5794 6.2897 15.7242 -8.94979
283 1 14.1518 7.8621 17.2966 -8.94959
284 1 15.7242 6.28969 15.7242 -8.94962
285 1 17.2966 7.86211 17.2966 -8.94963
286 1 18.8691 6.28969 15.7242 -8.94963
287 1 20.4415 7.86211 17.2966 -8.94963
288 1 5.86171e-07 9.43453 15.7242 -8.94963
289 1 3.14486 9.43454 15.7242 -8.94979
290 1 6.28987 9.43445 15.7238 -8.99092
291 1 9.43468 9.43455 15.7241 -9.00496
292 1 12.5795 9.43445 15.7243 -8.94914
293 1 15.7242 9.43453 15.7242 -8.9497
294 1 18.8691 9.43453 15.7242 -8.94963
295 1 22.0139 2.55894e-17 18.8691 -8.94963
296 1 1.57242 1.57242 20.4415 -8.94963
297 1 3.14484 -6.73811e-17 18.8691 -8.94963
298 1 4.71726 1.57242 20.4415 -8.94963
299 1 6.28969 3.52867e-16 18.8691 -8.94963
300 1 7.86211 1.57242 20.4415 -8.94963
301 1 9.43453 4.47473e-16 18.8691 -8.94963
302 1 11.007 1.57242 20.4415 -8.94963
303 1 12.5794 4.7945e-16 18.8691 -8.94963
304 1 14.1518 1.57242 20.4415 -8.94963
305 1 15.7242 9.17328e-17 18.8691 -8.94963
306 1 17.2966 1.57242 20.4415 -8.94963
307 1 18.8691 2.80223e-16 18.8691 -8.94963
308 1 20.4415 1.57242 20.4415 -8.94963
309 1 22.0139 3.14484 18.8691 -8.94963
310 1 1.57242 4.71726 20.4415 -8.94963
311 1 3.14484 3.14484 18.8691 -8.94963
312 1 4.71726 4.71726 20.4415 -8.94963
313 1 6.28969 3.14484 18.8691 -8.94963
314 1 7.86211 4.71726 20.4415 -8.94963
315 1 9.43453 3.14484 18.8691 -8.94963
316 1 11.007 4.71726 20.4415 -8.94963
317 1 12.5794 3.14484 18.8691 -8.94963
318 1 14.1518 4.71726 20.4415 -8.94963
319 1 15.7242 3.14484 18.8691 -8.94963
320 1 17.2966 4.71726 20.4415 -8.94963
321 1 18.8691 3.14484 18.8691 -8.94963
322 1 20.4415 4.71726 20.4415 -8.94963
323 1 2.07258e-08 6.28969 18.8691 -8.94963
324 1 1.57242 7.86211 20.4415 -8.94963
325 1 3.14484 6.28969 18.8691 -8.94964
326 1 4.71726 7.86211 20.4415 -8.94963
327 1 6.28969 6.28969 18.8691 -8.94963
328 1 7.86211 7.86211 20.4415 -8.94964
329 1 9.43453 6.28969 18.8691 -8.94963
330 1 11.007 7.86211 20.4415 -8.94963
331 1 12.5794 6.28969 18.8691 -8.94963
332 1 14.1518 7.86211 20.4415 -8.94963
333 1 15.7242 6.28969 18.8691 -8.94963
334 1 17.2966 7.86211 20.4415 -8.94963
335 1 18.8691 6.28969 18.8691 -8.94963
5 1 6.28969 2.61598e-16 22.0139 -8.94963
9 1 12.5794 2.03278e-16 22.0139 -8.94963
47 1 12.5794 9.43453 22.0139 -8.94964
15 1 9.27486e-11 3.14484 22.0139 -8.94963
19 1 6.28969 3.14484 22.0139 -8.94963
21 1 9.43453 3.14484 22.0139 -8.94963
46 1 9.43453 9.43453 22.0139 -8.94963
27 1 18.8691 3.14484 22.0139 -8.94963
31 1 3.14484 6.28969 22.0139 -8.94963
39 1 15.7242 6.28969 22.0139 -8.94963
45 1 6.28969 9.43453 22.0139 -8.94963
43 1 8.39007e-10 9.43453 22.0139 -8.94963
1 1 2.49069e-12 1.16582e-16 22.0139 -8.94963
13 1 18.8691 3.01964e-16 22.0139 -8.94963
23 1 12.5794 3.14484 22.0139 -8.94963
49 1 18.8691 9.43453 22.0139 -8.94963
183 1 1.57242 4.71726 11.007 -8.94964
344 1 1.57242 11.007 1.57242 -8.94963
345 1 4.71726 11.007 1.57242 -8.94963
346 1 7.86211 11.007 1.57242 -8.94966
347 1 11.007 11.007 1.57238 -8.9502
348 1 14.1518 11.007 1.57242 -8.94963
349 1 17.2966 11.007 1.57242 -8.94963
350 1 20.4415 11.007 1.57242 -8.94963
688 3 10.2207 11.007 9.43449 3.79868
352 1 1.57242 14.1518 1.57242 -8.94963
511 1 18.8691 18.8691 9.43453 -8.94963
354 1 4.71726 14.1518 1.57242 -8.94963
510 1 15.7242 18.8691 9.43453 -8.94963
356 1 7.86211 14.1518 1.57242 -8.94963
509 1 12.5794 18.8691 9.43453 -8.94965
358 1 11.007 14.1518 1.57242 -8.94964
508 1 9.43453 18.8691 9.43453 -8.95021
360 1 14.1518 14.1518 1.57242 -8.94963
361 1 15.7242 12.5794 6.84741e-08 -8.94963
362 1 17.2966 14.1518 1.57242 -8.94963
538 1 17.2966 20.4415 11.007 -8.94963
364 1 20.4415 14.1518 1.57242 -8.94963
365 1 22.0139 15.7242 3.87076e-10 -8.94963
366 1 1.57242 17.2966 1.57242 -8.94963
507 1 6.28969 18.8691 9.43453 -8.94963
368 1 4.71726 17.2966 1.57242 -8.94963
369 1 6.28969 15.7242 -2.98057e-08 -8.94963
370 1 7.86211 17.2966 1.57242 -8.94963
371 1 9.43453 15.7242 4.27675e-08 -8.94963
372 1 11.007 17.2966 1.57242 -8.94963
373 1 12.5794 15.7242 6.5167e-08 -8.94963
374 1 14.1518 17.2966 1.57242 -8.94963
506 1 3.14484 18.8691 9.43453 -8.94963
376 1 17.2966 17.2966 1.57242 -8.94963
505 1 2.7874e-09 18.8691 9.43453 -8.94963
378 1 20.4415 17.2966 1.57242 -8.94963
504 1 18.8691 15.7242 9.43453 -8.94963
380 1 1.57242 20.4415 1.57242 -8.94963
381 1 3.14484 18.8691 7.7879e-11 -8.94963
382 1 4.71726 20.4415 1.57242 -8.94963
503 1 15.7242 15.7242 9.43453 -8.9497
384 1 7.86211 20.4415 1.57242 -8.94963
502 1 12.5793 15.7242 9.43454 -8.95091
386 1 11.007 20.4415 1.57242 -8.94963
534 1 4.71726 20.4415 11.007 -8.94963
388 1 14.1518 20.4415 1.57242 -8.94963
501 1 9.4345 15.7264 9.43454 -8.96591
390 1 17.2966 20.4415 1.57242 -8.94963
500 1 6.28973 15.7242 9.43453 -8.95137
392 1 20.4415 20.4415 1.57242 -8.94963
393 1 1.57242 11.007 4.71726 -8.94963
394 1 4.71727 11.007 4.71727 -8.9497
395 1 7.86214 11.007 4.71723 -8.95096
396 1 11.007 11.007 4.71509 -8.96558
397 1 14.1517 11.007 4.71731 -8.95134
398 1 17.2966 11.007 4.71726 -8.94962
399 1 20.4415 11.007 4.71726 -8.94963
400 1 4.50308e-09 12.5794 3.14484 -8.94963
401 1 1.57242 14.1518 4.71726 -8.94963
402 1 3.14484 12.5794 3.14484 -8.94964
403 1 4.71726 14.1518 4.71726 -8.94966
404 1 6.28969 12.5794 3.14484 -8.94966
405 1 7.86209 14.1518 4.71722 -8.94986
406 1 9.43451 12.5794 3.14481 -8.94938
407 1 11.0069 14.1517 4.7173 -8.95087
408 1 12.5794 12.5794 3.14479 -8.94972
409 1 14.1518 14.1518 4.71722 -8.94882
410 1 15.7242 12.5794 3.14485 -8.9497
411 1 17.2966 14.1518 4.71726 -8.94964
412 1 18.8691 12.5794 3.14484 -8.94963
413 1 20.4415 14.1518 4.71726 -8.94963
414 1 22.0139 15.7242 3.14484 -8.94963
415 1 1.57242 17.2966 4.71726 -8.94963
416 1 3.14484 15.7242 3.14484 -8.94963
417 1 4.71726 17.2966 4.71726 -8.94961
418 1 6.28969 15.7242 3.14484 -8.94963
419 1 7.86211 17.2966 4.71727 -8.9497
420 1 9.43453 15.7242 3.14484 -8.94965
421 1 11.0069 17.2966 4.71727 -8.94965
422 1 12.5794 15.7242 3.14485 -8.9497
423 1 14.1518 17.2966 4.71726 -8.94963
424 1 15.7242 15.7242 3.14484 -8.94961
425 1 17.2966 17.2966 4.71726 -8.94963
426 1 18.8691 15.7242 3.14484 -8.94963
427 1 20.4415 17.2966 4.71726 -8.94963
428 1 22.0139 18.8691 3.14484 -8.94963
429 1 1.57242 20.4415 4.71726 -8.94963
430 1 3.14484 18.8691 3.14484 -8.94963
431 1 4.71726 20.4415 4.71726 -8.94963
432 1 6.28969 18.8691 3.14484 -8.94963
433 1 7.86211 20.4415 4.71726 -8.94963
434 1 9.43453 18.8691 3.14484 -8.94963
435 1 11.007 20.4415 4.71726 -8.94963
436 1 12.5794 18.8691 3.14484 -8.94963
437 1 14.1518 20.4415 4.71726 -8.94963
438 1 15.7242 18.8691 3.14484 -8.94963
439 1 17.2966 20.4415 4.71726 -8.94963
440 1 18.8691 18.8691 3.14484 -8.94963
441 1 20.4415 20.4415 4.71726 -8.94963
442 1 1.57242 11.007 7.86211 -8.94963
443 1 4.71721 11.007 7.86212 -8.95066
444 1 7.85902 11.007 7.85914 -8.91676
445 1 11.0477 11.007 7.7787 -7.95775
446 1 14.1529 11.007 7.86197 -8.95829
447 1 17.2967 11.007 7.86211 -8.94989
448 1 20.4415 11.007 7.86211 -8.94964
449 1 22.0139 12.5794 6.28969 -8.94963
450 1 1.57242 14.1518 7.86211 -8.94965
451 1 3.14484 12.5794 6.28968 -8.94964
452 1 4.71723 14.1518 7.8621 -8.95004
453 1 6.28962 12.5794 6.28964 -8.94902
454 1 7.86032 14.1535 7.86032 -8.92214
455 1 9.4339 12.5801 6.28925 -8.94117
456 1 11.0076 14.1522 7.86142 -8.94129
457 1 12.5812 12.5812 6.28798 -8.92182
458 1 14.1519 14.1518 7.86205 -8.9492
459 1 15.7243 12.5794 6.28968 -8.94995
460 1 17.2966 14.1518 7.86211 -8.94964
461 1 18.8691 12.5794 6.28969 -8.94964
462 1 20.4415 14.1518 7.86211 -8.94963
463 1 -4.43941e-10 15.7242 6.28969 -8.94963
464 1 1.57242 17.2966 7.86211 -8.94963
465 1 3.14484 15.7242 6.28969 -8.94964
466 1 4.71727 17.2966 7.86211 -8.9497
467 1 6.28964 15.7243 6.28964 -8.94882
468 1 7.86208 17.2967 7.86208 -8.94972
469 1 9.43454 15.7242 6.28973 -8.95087
470 1 11.007 17.2967 7.86208 -8.94938
471 1 12.5794 15.7243 6.28967 -8.94986
472 1 14.1518 17.2966 7.86211 -8.94966
473 1 15.7242 15.7242 6.28968 -8.94966
474 1 17.2966 17.2966 7.86211 -8.94964
475 1 18.8691 15.7242 6.28969 -8.94963
476 1 20.4415 17.2966 7.86211 -8.94963
477 1 22.0139 18.8691 6.28969 -8.94963
478 1 1.57242 20.4415 7.86211 -8.94963
479 1 3.14484 18.8691 6.28969 -8.94963
480 1 4.71726 20.4415 7.86211 -8.94963
481 1 6.28969 18.8691 6.28969 -8.94963
482 1 7.86211 20.4415 7.86211 -8.94964
483 1 9.43453 18.8691 6.28969 -8.94964
484 1 11.007 20.4415 7.86211 -8.94963
485 1 12.5794 18.8691 6.28969 -8.94963
486 1 14.1518 20.4415 7.86211 -8.94963
487 1 15.7242 18.8691 6.28969 -8.94963
488 1 17.2966 20.4415 7.86211 -8.94963
489 1 18.8691 18.8691 6.28969 -8.94963
490 1 20.4415 20.4415 7.86211 -8.94963
491 1 2.63214e-07 12.5794 9.43453 -8.94963
492 1 3.14484 12.5794 9.43455 -8.95004
493 1 6.28881 12.5796 9.43497 -8.9995
494 1 9.39397 12.6628 9.43461 -8.01137
495 1 12.5825 12.5819 9.43447 -8.91157
496 1 15.7243 12.5794 9.43453 -8.95017
497 1 18.8691 12.5794 9.43453 -8.94965
498 1 22.0139 15.7242 9.43453 -8.94963
499 1 3.14484 15.7242 9.43453 -8.94959
512 1 1.57243 11.007 11.0069 -8.94945
514 1 7.85029 11.007 10.9921 -9.20827
519 1 1.57242 14.1518 11.0069 -8.94964
520 1 4.71716 14.1519 11.0069 -8.94937
532 1 20.4415 17.2966 11.007 -8.94963
527 1 4.71727 17.2966 11.0069 -8.94971
531 1 17.2966 17.2966 11.007 -8.94964
518 1 20.4415 11.007 11.007 -8.94963
353 1 3.14484 12.5794 -5.71706e-09 -8.94963
389 1 15.7242 18.8691 9.04109e-10 -8.94963
377 1 18.8691 15.7242 1.24162e-09 -8.94963
687 2 8.64832 11.007 12.5793 1.06805
513 1 4.71782 11.007 11.0074 -8.99784
686 1 20.4415 20.4415 20.4415 -8.94963
515 1 11.0504 11.007 11.0887 -7.99111
516 1 14.1529 11.007 11.0071 -8.95888
517 1 17.2967 11.007 11.007 -8.94992
391 1 18.8691 18.8691 22.0139 -8.94963
685 1 18.8691 18.8691 18.8691 -8.94963
684 1 17.2966 20.4415 20.4415 -8.94963
521 1 7.86015 14.1534 11.0088 -8.97738
522 1 11.0074 14.1518 11.0076 -8.98251
523 1 14.1518 14.1518 11.007 -8.9494
524 1 17.2966 14.1518 11.007 -8.94964
525 1 20.4415 14.1518 11.007 -8.94963
683 1 15.7242 18.8691 18.8691 -8.94963
682 1 14.1518 20.4415 20.4415 -8.94963
528 1 7.86208 17.2967 11.007 -8.94959
529 1 11.007 17.2967 11.007 -8.94917
530 1 14.1518 17.2966 11.007 -8.94966
681 1 12.5794 18.8691 18.8691 -8.94963
680 1 11.007 20.4415 20.4415 -8.94963
533 1 1.57242 20.4415 11.007 -8.94963
679 1 9.43453 18.8691 18.8691 -8.94963
535 1 7.86211 20.4415 11.007 -8.94964
536 1 11.007 20.4415 11.007 -8.94963
537 1 14.1518 20.4415 11.007 -8.94963
678 1 7.86211 20.4415 20.4415 -8.94963
539 1 20.4415 20.4415 11.007 -8.94963
540 1 1.57244 11.007 14.1518 -8.94943
541 1 4.71792 11.007 14.1513 -8.99741
542 1 7.85347 11.007 14.1691 -9.24376
543 1 11.0096 11.007 14.1557 -9.00179
544 1 14.1518 11.007 14.1517 -8.95214
545 1 17.2966 11.007 14.1518 -8.94964
546 1 20.4415 11.007 14.1518 -8.94963
547 1 22.0139 12.5794 12.5794 -8.94965
548 1 1.57242 14.1518 14.1518 -8.94963
549 1 3.14478 12.5794 12.5794 -8.95043
550 1 4.7172 14.1519 14.1518 -8.94908
551 1 6.28699 12.5812 12.5794 -8.98495
552 1 7.86192 14.1517 14.1518 -9.00544
553 1 9.44258 12.5973 12.5798 -9.23418
554 1 11.0068 14.1513 14.1518 -8.99211
555 1 12.5805 12.5807 12.5811 -8.96911
556 1 14.1518 14.1518 14.1518 -8.94898
557 1 15.7242 12.5794 12.5794 -8.94975
558 1 17.2966 14.1518 14.1518 -8.94963
559 1 18.8691 12.5794 12.5794 -8.94964
560 1 20.4415 14.1518 14.1518 -8.94963
561 1 22.0139 15.7242 12.5794 -8.94963
562 1 1.57242 17.2966 14.1518 -8.94964
563 1 3.14484 15.7242 12.5794 -8.94968
564 1 4.71726 17.2966 14.1518 -8.94962
565 1 6.28963 15.7243 12.5794 -8.94942
566 1 7.8621 17.2966 14.1518 -8.94957
567 1 9.43451 15.7247 12.5793 -8.95554
568 1 11.007 17.2966 14.1518 -8.94944
569 1 12.5794 15.7242 12.5794 -8.95035
570 1 14.1518 17.2966 14.1518 -8.94963
571 1 15.7242 15.7242 12.5794 -8.94964
572 1 17.2966 17.2966 14.1518 -8.94963
573 1 18.8691 15.7242 12.5794 -8.94963
574 1 20.4415 17.2966 14.1518 -8.94963
575 1 22.0139 18.8691 12.5794 -8.94963
576 1 1.57242 20.4415 14.1518 -8.94963
577 1 3.14484 18.8691 12.5794 -8.94963
578 1 4.71726 20.4415 14.1518 -8.94963
579 1 6.28969 18.8691 12.5794 -8.94965
580 1 7.86211 20.4415 14.1518 -8.94963
581 1 9.43453 18.8691 12.5794 -8.94979
582 1 11.007 20.4415 14.1518 -8.94963
583 1 12.5794 18.8691 12.5794 -8.94963
584 1 14.1518 20.4415 14.1518 -8.94963
585 1 15.7242 18.8691 12.5794 -8.94963
586 1 17.2966 20.4415 14.1518 -8.94963
587 1 18.8691 18.8691 12.5794 -8.94963
588 1 20.4415 20.4415 14.1518 -8.94963
589 1 1.57242 11.007 17.2966 -8.94962
590 1 4.71729 11.007 17.2966 -8.95012
591 1 7.86214 11.007 17.2972 -8.95435
592 1 11.007 11.007 17.2967 -8.95079
593 1 14.1518 11.007 17.2966 -8.94968
594 1 17.2966 11.007 17.2966 -8.94963
595 1 20.4415 11.007 17.2966 -8.94963
596 1 5.86171e-07 12.5794 15.7242 -8.94963
597 1 1.57242 14.1518 17.2966 -8.94964
598 1 3.14486 12.5794 15.7242 -8.94979
599 1 4.71727 14.1518 17.2966 -8.94973
600 1 6.28987 12.5794 15.7238 -8.99092
601 1 7.86211 14.1518 17.2966 -8.94996
602 1 9.43468 12.5793 15.7241 -9.00496
603 1 11.0069 14.1518 17.2966 -8.94967
604 1 12.5795 12.5794 15.7243 -8.94914
605 1 14.1518 14.1518 17.2966 -8.94959
606 1 15.7242 12.5794 15.7242 -8.9497
607 1 17.2966 14.1518 17.2966 -8.94963
608 1 18.8691 12.5794 15.7242 -8.94963
609 1 20.4415 14.1518 17.2966 -8.94963
610 1 22.0139 15.7242 15.7242 -8.94963
611 1 1.57242 17.2966 17.2966 -8.94963
612 1 3.14484 15.7242 15.7242 -8.9496
613 1 4.71726 17.2966 17.2966 -8.94963
614 1 6.28969 15.7242 15.7242 -8.94966
615 1 7.86211 17.2966 17.2966 -8.94963
616 1 9.43453 15.7242 15.7242 -8.94998
617 1 11.007 17.2966 17.2966 -8.94963
618 1 12.5794 15.7242 15.7242 -8.94979
619 1 14.1518 17.2966 17.2966 -8.94964
620 1 15.7242 15.7242 15.7242 -8.94962
621 1 17.2966 17.2966 17.2966 -8.94963
622 1 18.8691 15.7242 15.7242 -8.94963
623 1 20.4415 17.2966 17.2966 -8.94963
624 1 3.29812e-09 18.8691 15.7242 -8.94963
625 1 1.57242 20.4415 17.2966 -8.94963
626 1 3.14484 18.8691 15.7242 -8.94963
627 1 4.71726 20.4415 17.2966 -8.94963
628 1 6.28969 18.8691 15.7242 -8.94963
629 1 7.86211 20.4415 17.2966 -8.94963
630 1 9.43453 18.8691 15.7242 -8.94964
631 1 11.007 20.4415 17.2966 -8.94963
632 1 12.5794 18.8691 15.7242 -8.94963
633 1 14.1518 20.4415 17.2966 -8.94963
634 1 15.7242 18.8691 15.7242 -8.94963
635 1 17.2966 20.4415 17.2966 -8.94963
636 1 18.8691 18.8691 15.7242 -8.94963
637 1 20.4415 20.4415 17.2966 -8.94963
638 1 1.57242 11.007 20.4415 -8.94963
639 1 4.71727 11.007 20.4415 -8.94963
640 1 7.86211 11.007 20.4415 -8.94978
641 1 11.007 11.007 20.4415 -8.94967
642 1 14.1518 11.007 20.4415 -8.94963
643 1 17.2966 11.007 20.4415 -8.94963
644 1 20.4415 11.007 20.4415 -8.94963
645 1 22.0139 12.5794 18.8691 -8.94963
646 1 1.57242 14.1518 20.4415 -8.94963
647 1 3.14484 12.5794 18.8691 -8.94963
648 1 4.71726 14.1518 20.4415 -8.94963
649 1 6.28968 12.5794 18.8691 -8.94943
650 1 7.86211 14.1518 20.4415 -8.94964
651 1 9.43453 12.5794 18.8691 -8.9495
652 1 11.007 14.1518 20.4415 -8.94963
653 1 12.5794 12.5794 18.8691 -8.94965
654 1 14.1518 14.1518 20.4415 -8.94963
655 1 15.7242 12.5794 18.8691 -8.94964
656 1 17.2966 14.1518 20.4415 -8.94963
657 1 18.8691 12.5794 18.8691 -8.94963
658 1 20.4415 14.1518 20.4415 -8.94963
659 1 2.07258e-08 15.7242 18.8691 -8.94963
660 1 1.57242 17.2966 20.4415 -8.94963
661 1 3.14484 15.7242 18.8691 -8.94964
662 1 4.71726 17.2966 20.4415 -8.94963
663 1 6.28969 15.7242 18.8691 -8.94963
664 1 7.86211 17.2966 20.4415 -8.94963
665 1 9.43453 15.7242 18.8691 -8.94963
666 1 11.007 17.2966 20.4415 -8.94963
667 1 12.5794 15.7242 18.8691 -8.94963
668 1 14.1518 17.2966 20.4415 -8.94963
669 1 15.7242 15.7242 18.8691 -8.94963
670 1 17.2966 17.2966 20.4415 -8.94963
671 1 18.8691 15.7242 18.8691 -8.94963
672 1 20.4415 17.2966 20.4415 -8.94963
673 1 22.0139 18.8691 18.8691 -8.94963
674 1 1.57242 20.4415 20.4415 -8.94963
675 1 3.14484 18.8691 18.8691 -8.94963
676 1 4.71726 20.4415 20.4415 -8.94963
677 1 6.28969 18.8691 18.8691 -8.94963
351 1 8.39007e-10 12.5794 22.0139 -8.94963
385 1 9.43453 18.8691 22.0139 -8.94963
355 1 6.28969 12.5794 22.0139 -8.94963
357 1 9.43453 12.5794 22.0139 -8.94963
359 1 12.5794 12.5794 22.0139 -8.94964
367 1 3.14484 15.7242 22.0139 -8.94963
375 1 15.7242 15.7242 22.0139 -8.94963
383 1 6.28969 18.8691 22.0139 -8.94963
379 1 9.27487e-11 18.8691 22.0139 -8.94963
363 1 18.8691 12.5794 22.0139 -8.94963
387 1 12.5794 18.8691 22.0139 -8.94963
526 1 1.57242 17.2966 11.007 -8.94964
