ITEM: TIMESTEP
116
ITEM: NUMBER OF ATOMS
688
ITEM: BOX BOUNDS pp pp pp
0.0000000000000000e+00 2.2013900999999997e+01
0.0000000000000000e+00 2.2013900999999997e+01
0.0000000000000000e+00 2.2013900999999997e+01
ITEM: ATOMS id type x y z c_pot
191 1 4.705 7.85566 11.0088 -8.95689
2 1 1.5714 1.57191 1.5716 -8.9491
3 1 3.14409 8.62111e-16 -0.000379148 -8.94954
4 1 4.71632 1.57174 1.57139 -8.94958
175 1 18.869 9.43439 9.43461 -8.94758
6 1 7.86175 1.57172 1.57149 -8.94942
7 1 9.43448 8.34827e-16 -0.000310575 -8.94949
8 1 11.0072 1.57171 1.57159 -8.94947
174 1 15.7208 9.43541 9.4347 -8.93991
10 1 14.1525 1.57165 1.5717 -8.94947
173 1 12.5555 9.44453 9.43444 -8.90387
12 1 17.2976 1.57165 1.57176 -8.9494
190 1 1.56919 7.8613 11.0072 -8.95215
14 1 20.4415 1.57201 1.57202 -8.94948
172 1 9.35969 9.19777 9.43182 -8.1752
16 1 1.57159 4.7166 1.57157 -8.94978
17 1 3.14383 3.14401 -0.000615553 -8.94947
18 1 4.71542 4.71559 1.57022 -8.94945
171 1 6.27926 9.42123 9.43075 -9.00439
20 1 7.86135 4.71555 1.57059 -8.94914
170 1 3.14246 9.43477 9.43461 -8.95261
22 1 11.0073 4.71539 1.57065 -8.94936
189 1 20.4409 4.71645 11.0071 -8.94958
24 1 14.1533 4.71516 1.57057 -8.94961
169 1 -0.000747206 9.43464 9.43455 -8.94934
26 1 17.2988 4.71527 1.57086 -8.9482
168 1 18.8694 6.28889 9.43455 -8.94971
28 1 20.4421 4.71647 1.57176 -8.94954
29 1 22.014 6.28933 -0.000287995 -8.9495
30 1 1.57206 7.8619 1.5718 -8.94937
167 1 15.7259 6.28805 9.43446 -8.94706
32 1 4.71635 7.86191 1.57154 -8.94971
33 1 6.28881 6.28884 -0.000909619 -8.95073
34 1 7.86162 7.86124 1.57005 -8.95255
35 1 9.43428 6.28834 -0.000872655 -8.94967
36 1 11.0074 7.86037 1.56936 -8.95074
37 1 12.5802 6.28817 -0.00103309 -8.94975
38 1 14.1547 7.85991 1.56822 -8.95153
166 1 12.5792 6.2897 9.43244 -8.94193
40 1 17.2991 7.86083 1.57062 -8.94914
165 1 9.42898 6.29054 9.43336 -9.00372
42 1 20.4424 7.86161 1.57167 -8.9494
164 1 6.2769 6.27627 9.43299 -8.94192
163 1 3.13873 6.28602 9.43406 -8.94863
162 1 22.012 6.28872 9.43446 -8.95005
161 1 18.8691 3.1442 9.4345 -8.94955
160 1 15.725 3.14396 9.43438 -8.94963
48 1 15.7264 9.43386 -0.00139462 -8.94936
188 1 17.2974 4.71628 11.007 -8.949
50 1 -0.000726616 9.18895e-16 3.14428 -8.94944
51 1 1.57098 1.57176 4.7163 -8.94937
52 1 3.14346 7.39701e-16 3.14358 -8.94948
53 1 4.71543 1.57086 4.7155 -8.95
54 1 6.28896 7.55866e-16 3.14361 -8.9496
55 1 7.86158 1.57096 4.71581 -8.94974
56 1 9.43454 1.06077e-15 3.14374 -8.94955
57 1 11.0074 1.57112 4.71601 -8.94968
58 1 12.58 6.5656e-16 3.14394 -8.94954
59 1 14.1527 1.57113 4.7165 -8.95076
60 1 15.7251 1.58788e-15 3.14419 -8.95007
61 1 17.2972 1.5719 4.71703 -8.94964
62 1 18.8693 1.14735e-15 3.14457 -8.94963
63 1 20.4411 1.57204 4.7169 -8.94946
64 1 22.0131 3.14408 3.14404 -8.94947
65 1 1.56998 4.71576 4.71565 -8.94956
66 1 3.14262 3.14308 3.14277 -8.94819
67 1 4.71183 4.71218 4.71211 -8.94455
68 1 6.28831 3.14279 3.14278 -8.94962
69 1 7.86012 4.71251 4.71349 -8.94909
70 1 9.43437 3.14287 3.14306 -8.94934
71 1 11.0078 4.71299 4.71369 -8.9477
72 1 12.5803 3.14283 3.14323 -8.94914
73 1 14.1557 4.71179 4.71357 -8.94969
74 1 15.7261 3.14252 3.14328 -8.94937
75 1 17.2983 4.71576 4.71658 -8.95048
76 1 18.8697 3.14395 3.14432 -8.94985
77 1 20.4413 4.7165 4.71676 -8.94992
78 1 22.0138 6.28918 3.14409 -8.94991
79 1 1.57133 7.86196 4.71646 -8.94997
80 1 3.14296 6.28878 3.14315 -8.95037
81 1 4.714 7.86108 4.71463 -8.95154
82 1 6.28604 6.28604 3.13941 -8.94981
83 1 7.85549 7.85418 4.70556 -8.95297
84 1 9.43398 6.28618 3.14071 -8.94768
85 1 11.0088 7.8557 4.70682 -8.95085
86 1 12.5817 6.28603 3.1402 -8.94914
87 1 14.1658 7.84967 4.70377 -8.93009
88 1 15.7295 6.28486 3.14013 -8.94456
89 1 17.3017 7.85975 4.71469 -8.95088
90 1 18.8712 6.28827 3.14355 -8.94969
91 1 20.4426 7.8616 4.71657 -8.95026
92 1 0.00031248 9.43435 3.14405 -8.94954
93 1 3.14387 9.43443 3.14378 -8.94887
94 1 6.28902 9.43484 3.14355 -8.94916
95 1 9.43568 9.43384 3.14268 -8.95189
96 1 12.5836 9.43285 3.13605 -8.9592
97 1 15.7293 9.43283 3.14031 -8.94757
98 1 18.8715 9.43396 3.14333 -8.94927
99 1 22.0129 1.72564e-15 6.28924 -8.94946
100 1 1.57072 1.57168 7.86162 -8.94942
101 1 3.14303 1.88085e-15 6.28864 -8.94929
102 1 4.71485 1.57059 7.86106 -8.94931
103 1 6.28851 1.58276e-15 6.28852 -8.95069
104 1 7.8613 1.57029 7.86139 -8.95143
105 1 9.43463 1.37208e-15 6.28878 -8.9503
106 1 11.0071 1.57156 7.86173 -8.94942
107 1 12.5798 1.27632e-15 6.28929 -8.95044
108 1 14.1526 1.57181 7.86182 -8.94921
109 1 15.7248 1.41403e-15 6.28951 -8.94942
110 1 17.2971 1.57202 7.862 -8.94953
111 1 18.8691 1.40428e-15 6.28952 -8.94951
112 1 20.441 1.57204 7.86194 -8.94951
113 1 22.0127 3.14398 6.2891 -8.9494
114 1 1.56953 4.71551 7.86132 -8.94921
115 1 3.14207 3.14268 6.2881 -8.94906
116 1 4.71158 4.71183 7.85969 -8.94733
117 1 6.28684 3.14016 6.28712 -8.95156
118 1 7.858 4.70757 7.85961 -8.95915
119 1 9.43445 3.14129 6.2878 -8.95063
120 1 11.0065 4.7146 7.86087 -8.95211
121 1 12.5802 3.14206 6.28866 -8.95264
122 1 14.153 4.71582 7.86192 -8.94801
123 1 15.7252 3.14373 6.28949 -8.94938
124 1 17.2975 4.71626 7.86199 -8.94909
125 1 18.8692 3.14416 6.28948 -8.94942
126 1 20.4409 4.71645 7.86189 -8.94961
127 1 -0.00146323 6.28895 6.28909 -8.95036
128 1 1.56931 7.86145 7.86168 -8.95221
129 1 3.13917 6.28657 6.28671 -8.95043
130 1 4.70528 7.85614 7.85801 -8.95681
131 1 6.27549 6.27557 6.27643 -8.93012
132 1 7.82086 7.82325 7.82699 -8.85421
133 1 9.43342 6.27923 6.28299 -8.95089
134 1 11.023 7.85206 7.83558 -8.90451
135 1 12.5868 6.27809 6.2812 -8.95294
136 1 14.1552 7.86154 7.86402 -8.95326
137 1 15.7271 6.28777 6.28909 -8.95181
138 1 17.298 7.86167 7.86272 -8.94991
139 1 18.8699 6.289 6.28958 -8.94995
140 1 20.4412 7.86182 7.86214 -8.94998
141 1 22.0138 9.43456 6.2893 -8.94988
142 1 3.14321 9.43508 6.28895 -8.94997
143 1 6.28562 9.43546 6.28683 -8.95234
144 1 9.42101 9.40886 6.27958 -8.90354
145 1 12.6203 9.40125 6.25175 -8.85533
146 1 15.7349 9.43201 6.28516 -8.95818
147 1 18.8717 9.43424 6.28911 -8.9518
148 1 -0.00104058 1.29607e-15 9.43447 -8.94948
149 1 3.14285 1.67434e-15 9.43436 -8.94945
150 1 6.28789 1.20952e-15 9.43409 -8.95044
151 1 9.43453 1.2908e-15 9.43409 -8.94847
152 1 12.5801 4.89797e-16 9.43408 -8.94923
153 1 15.7248 2.90128e-16 9.43439 -8.94958
154 1 18.869 9.70971e-16 9.43449 -8.94953
155 1 -0.00135444 3.14394 9.43446 -8.94949
156 1 3.14182 3.14255 9.43429 -8.94941
157 1 6.28571 3.13933 9.43381 -8.94941
158 1 9.43399 3.14279 9.43389 -8.94616
159 1 12.5802 3.14372 9.43371 -8.94802
177 1 4.71485 1.57056 11.0074 -8.94942
181 1 17.297 1.57202 11.0069 -8.94951
184 1 4.71157 4.71166 11.0084 -8.94781
11 1 15.7249 6.98316e-16 -0.000246144 -8.94951
25 1 15.7253 3.14369 -0.000484419 -8.94955
41 1 18.8703 6.28884 -0.00052489 -8.94941
44 1 3.14429 9.43445 -0.000203274 -8.94942
176 1 1.57072 1.57168 11.0072 -8.94941
343 1 18.8705 9.4342 18.8697 -8.94944
178 1 7.86109 1.56975 11.0068 -8.95169
179 1 11.0074 1.57099 11.0065 -8.9499
180 1 14.1525 1.57185 11.0067 -8.94923
342 1 15.7264 9.43385 18.8708 -8.94937
182 1 20.441 1.57204 11.007 -8.94951
341 1 12.5805 9.43409 18.8717 -8.95174
340 1 9.43534 9.43357 18.8718 -8.94794
185 1 7.85721 4.70536 11.0073 -8.9577
186 1 11.0076 4.71198 11.0059 -8.95142
187 1 14.1528 4.71603 11.0063 -8.94888
339 1 6.28839 9.43361 18.8717 -8.94862
338 1 3.1443 9.43451 18.8696 -8.94969
337 1 22.0142 9.43442 18.8695 -8.94951
336 1 20.4422 7.86174 20.4415 -8.94948
192 1 7.81856 7.81949 11.0371 -8.90351
193 1 11.0271 7.84604 11.0252 -8.93401
194 1 14.155 7.86159 11.0052 -8.95569
195 1 17.2978 7.86172 11.0065 -8.95008
196 1 20.4411 7.86182 11.007 -8.95001
197 1 22.0129 1.68178e-16 12.5797 -8.94946
198 1 1.57091 1.57174 14.1527 -8.94939
199 1 3.14298 1.34147e-16 12.5802 -8.94934
200 1 4.71521 1.57067 14.1535 -8.95001
201 1 6.28832 1.34017e-15 12.5802 -8.9507
202 1 7.86129 1.57027 14.1534 -8.94993
203 1 9.43464 1.38781e-15 12.5799 -8.95145
204 1 11.0078 1.57041 14.1532 -8.95002
205 1 12.5801 1.00561e-15 12.5795 -8.95038
206 1 14.153 1.57103 14.1525 -8.95061
207 1 15.7248 5.80283e-16 12.5793 -8.94948
208 1 17.2972 1.57191 14.1519 -8.94971
209 1 18.8691 1.59151e-15 12.5795 -8.9495
210 1 20.4411 1.57205 14.1521 -8.94948
211 1 22.0127 3.14398 12.5798 -8.94942
212 1 1.56992 4.71573 14.1533 -8.94969
213 1 3.14202 3.14259 12.5806 -8.94907
214 1 4.71147 4.71154 14.1569 -8.94479
215 1 6.28665 3.13941 12.5815 -8.95153
216 1 7.8592 4.70985 14.1563 -8.94767
217 1 9.43447 3.1385 12.5808 -8.95395
218 1 11.009 4.71007 14.1563 -8.94708
219 1 12.5805 3.14143 12.5799 -8.95213
220 1 14.1558 4.71164 14.1553 -8.94972
221 1 15.7251 3.14377 12.5793 -8.94958
222 1 17.2983 4.71577 14.1524 -8.95045
223 1 18.8692 3.14418 12.5795 -8.9494
224 1 20.4413 4.71651 14.1523 -8.9499
225 1 22.0124 6.28891 12.5799 -8.95023
226 1 1.57109 7.86179 14.1526 -8.95027
227 1 3.13922 6.28644 12.5818 -8.95035
228 1 4.7129 7.85957 14.1546 -8.9504
229 1 6.27545 6.27359 12.5918 -8.93127
230 1 7.85275 7.84985 14.1656 -9.00121
231 1 9.43385 6.26631 12.5848 -8.96527
232 1 11.0131 7.84948 14.167 -8.98111
233 1 12.5865 6.27724 12.587 -8.95205
234 1 14.1654 7.84989 14.1649 -8.93297
235 1 15.727 6.28771 12.5799 -8.95157
236 1 17.3014 7.85989 14.1543 -8.95107
237 1 18.8698 6.28902 12.5795 -8.94995
238 1 20.4425 7.86165 14.1524 -8.95036
239 1 22.0138 9.43462 12.5797 -8.95008
240 1 3.14296 9.43488 12.58 -8.95161
241 1 6.28196 9.42952 12.5805 -8.98848
242 1 9.44083 9.35169 12.5869 -9.16002
243 1 12.6155 9.40211 12.6171 -8.91093
244 1 15.7335 9.43217 12.5839 -8.95727
245 1 18.8714 9.4343 12.5799 -8.95158
246 1 -0.000777995 1.57307e-15 15.7248 -8.94947
247 1 1.57128 1.57188 17.2976 -8.9491
248 1 3.14327 1.21141e-15 15.7255 -8.94949
249 1 4.71604 1.57155 17.298 -8.94952
250 1 6.28865 1.32414e-15 15.7257 -8.94963
251 1 7.86165 1.57151 17.298 -8.94938
252 1 9.43456 1.57622e-15 15.7256 -8.94956
253 1 11.0073 1.5715 17.2979 -8.94944
254 1 12.5803 8.22929e-16 15.7254 -8.94961
255 1 14.1528 1.57147 17.2978 -8.94937
256 1 15.7253 1.18877e-15 15.7249 -8.95003
257 1 17.2976 1.57165 17.2974 -8.94944
258 1 18.8693 1.81866e-15 15.7245 -8.94969
259 1 20.4414 1.57201 17.2971 -8.94954
260 1 -0.000899601 3.14408 15.725 -8.94955
261 1 1.57143 4.71654 17.2977 -8.94975
262 1 3.14237 3.14289 15.7264 -8.94822
263 1 4.71494 4.715 17.2995 -8.94924
264 1 6.2878 3.14197 15.7268 -8.94947
265 1 7.8612 4.71496 17.2992 -8.94898
266 1 9.43437 3.14197 15.7264 -8.9492
267 1 11.0075 4.71478 17.2992 -8.94958
268 1 12.5809 3.14199 15.7264 -8.94892
269 1 14.1539 4.71466 17.2992 -8.94895
270 1 15.7262 3.14249 15.7258 -8.94943
271 1 17.2988 4.71527 17.2983 -8.94835
272 1 18.8697 3.14396 15.7247 -8.94986
273 1 20.442 4.71647 17.2974 -8.94958
274 1 22.0136 6.28914 15.725 -8.94995
275 1 1.57198 7.86194 17.2974 -8.94983
276 1 3.14255 6.28842 15.7262 -8.94998
277 1 4.71545 7.86084 17.299 -8.94829
278 1 6.28506 6.28412 15.7308 -8.94969
279 1 7.86171 7.86073 17.3006 -8.9531
280 1 9.43384 6.28425 15.729 -8.94785
281 1 11.008 7.85932 17.3018 -8.95136
282 1 12.5832 6.2842 15.7305 -8.94674
283 1 14.1549 7.85964 17.3014 -8.95114
284 1 15.7296 6.28488 15.729 -8.94518
285 1 17.2991 7.86086 17.2985 -8.94922
286 1 18.8711 6.28833 15.7255 -8.94982
287 1 20.4424 7.86166 17.2974 -8.94949
288 1 0.000385356 9.43443 15.725 -8.94957
289 1 3.14417 9.43467 15.725 -8.95062
290 1 6.28669 9.4305 15.7286 -8.97973
291 1 9.43741 9.43101 15.7282 -9.00392
292 1 12.5842 9.43225 15.7345 -8.95835
293 1 15.7292 9.43289 15.7288 -8.94797
294 1 18.8714 9.43402 15.7257 -8.94932
295 1 22.0135 9.95347e-16 18.8695 -8.94917
296 1 1.57175 1.57202 20.4416 -8.94927
297 1 3.14396 1.5929e-15 18.8698 -8.94948
298 1 4.7166 1.57197 20.4417 -8.94952
299 1 6.28913 1.66186e-15 18.8698 -8.94946
300 1 7.86181 1.57191 20.4417 -8.94948
301 1 9.43449 1.47967e-15 18.8698 -8.94948
302 1 11.0071 1.57187 20.4417 -8.94949
303 1 12.5798 6.99366e-16 18.8697 -8.94948
304 1 14.1524 1.57185 20.4417 -8.94948
305 1 15.725 1.26992e-16 18.8696 -8.94942
306 1 17.2974 1.5719 20.4416 -8.94944
307 1 18.8696 9.33398e-16 18.8695 -8.94931
308 1 20.4417 1.57209 20.4415 -8.94916
309 1 22.0137 3.14435 18.8695 -8.94951
310 1 1.57194 4.71682 20.4417 -8.94957
311 1 3.14366 3.14389 18.8701 -8.94936
312 1 4.71628 4.71638 20.4418 -8.95018
313 1 6.28891 3.14377 18.8702 -8.94947
314 1 7.86159 4.71612 20.4419 -8.94953
315 1 9.43441 3.14361 18.8701 -8.94945
316 1 11.0071 4.71592 20.4419 -8.94958
317 1 12.58 3.14358 18.8701 -8.94949
318 1 14.1528 4.71587 20.4418 -8.94957
319 1 15.7254 3.14361 18.8699 -8.94938
320 1 17.298 4.71603 20.4416 -8.94947
321 1 18.87 3.14397 18.8696 -8.94913
322 1 20.442 4.71671 20.4415 -8.9495
323 1 8.58403e-05 6.28933 18.8695 -8.94959
324 1 1.57217 7.86195 20.4416 -8.94957
325 1 3.14385 6.28908 18.8701 -8.94933
326 1 4.71632 7.86163 20.4423 -8.94939
327 1 6.28871 6.28855 18.871 -8.95106
328 1 7.86184 7.8616 20.4423 -8.9503
329 1 9.43429 6.28796 18.871 -8.94962
330 1 11.0074 7.861 20.4424 -8.95027
331 1 12.5805 6.28788 18.8713 -8.94979
332 1 14.1532 7.86111 20.4418 -8.95068
333 1 15.7262 6.28801 18.8707 -8.94992
334 1 17.2983 7.86129 20.4416 -8.94935
335 1 18.8703 6.28885 18.8697 -8.94945
5 1 6.28921 7.71686e-16 22.0135 -8.94947
9 1 12.5797 1.98467e-16 22.0136 -8.9495
47 1 12.5804 9.43417 22.0124 -8.95148
15 1 -0.000183225 3.14435 22.0136 -8.94947
19 1 6.28901 3.14393 22.0134 -8.94947
21 1 9.43441 3.1438 22.0134 -8.94946
46 1 9.43483 9.43431 22.0141 -8.94955
27 1 18.87 3.14398 22.0135 -8.9491
31 1 3.14408 6.28929 22.0137 -8.94967
39 1 15.7261 6.28806 22.0126 -8.94997
45 1 6.28908 9.4344 22.0142 -8.94961
43 1 0.000286209 9.4344 22.0136 -8.9495
1 1 -0.000395059 1.75199e-16 22.0137 -8.94914
13 1 18.8696 3.55582e-16 22.0136 -8.94924
23 1 12.5799 3.14373 22.0134 -8.94944
49 1 18.8705 9.43419 22.0133 -8.94943
183 1 1.56956 4.7155 11.0074 -8.94929
344 1 1.5722 11.007 1.57182 -8.94951
345 1 4.71649 11.007 1.57172 -8.94949
346 1 7.86213 11.007 1.57251 -8.94904
347 1 11.0078 11.007 1.57168 -8.94625
348 1 14.1554 11.007 1.5681 -8.94954
349 1 17.2993 11.007 1.57054 -8.9494
350 1 20.4426 11.007 1.57163 -8.94946
688 3 10.2143 11.007 9.43278 2.30599
352 1 1.57206 14.152 1.5718 -8.94937
511 1 18.8691 18.8697 9.4345 -8.94955
354 1 4.71635 14.152 1.57154 -8.94971
510 1 15.725 18.8699 9.43438 -8.94963
356 1 7.86162 14.1527 1.57005 -8.95255
509 1 12.5802 18.8702 9.43371 -8.94802
358 1 11.0074 14.1535 1.56936 -8.95074
508 1 9.43399 18.8711 9.43389 -8.94616
360 1 14.1547 14.154 1.56822 -8.95153
361 1 15.7264 12.58 -0.00139462 -8.94936
362 1 17.2991 14.1531 1.57062 -8.94914
538 1 17.297 20.4419 11.0069 -8.94951
364 1 20.4424 14.1523 1.57167 -8.9494
365 1 22.014 15.7246 -0.000287995 -8.9495
366 1 1.57159 17.2973 1.57157 -8.94978
507 1 6.28571 18.8746 9.43381 -8.94941
368 1 4.71542 17.2983 1.57022 -8.94945
369 1 6.28881 15.7251 -0.000909619 -8.95073
370 1 7.86135 17.2984 1.57059 -8.94914
371 1 9.43428 15.7256 -0.000872655 -8.94967
372 1 11.0073 17.2985 1.57065 -8.94936
373 1 12.5802 15.7257 -0.00103309 -8.94975
374 1 14.1533 17.2987 1.57057 -8.94961
506 1 3.14182 18.8714 9.43429 -8.94941
376 1 17.2988 17.2986 1.57086 -8.9482
505 1 -0.00135444 18.87 9.43446 -8.94949
378 1 20.4421 17.2974 1.57176 -8.94954
504 1 18.8694 15.725 9.43455 -8.94971
380 1 1.5714 20.442 1.5716 -8.9491
381 1 3.14383 18.8699 -0.000615553 -8.94947
382 1 4.71632 20.4422 1.57139 -8.94958
503 1 15.7259 15.7258 9.43446 -8.94706
384 1 7.86175 20.4422 1.57149 -8.94942
502 1 12.5792 15.7242 9.43244 -8.94193
386 1 11.0072 20.4422 1.57159 -8.94947
534 1 4.71485 20.4433 11.0074 -8.94942
388 1 14.1525 20.4422 1.5717 -8.94947
501 1 9.42898 15.7234 9.43336 -9.00372
390 1 17.2976 20.4422 1.57176 -8.9494
500 1 6.2769 15.7376 9.43299 -8.94192
392 1 20.4415 20.4419 1.57202 -8.94948
393 1 1.57181 11.007 4.71631 -8.94955
394 1 4.71561 11.007 4.71519 -8.94592
395 1 7.86458 11.007 4.71758 -8.94831
396 1 11.0127 11.007 4.72017 -9.00272
397 1 14.1635 11.007 4.70619 -8.94198
398 1 17.302 11.007 4.71422 -8.94904
399 1 20.443 11.007 4.71637 -8.94998
400 1 0.00031248 12.5795 3.14405 -8.94954
401 1 1.57133 14.1519 4.71646 -8.94997
402 1 3.14387 12.5795 3.14378 -8.94887
403 1 4.714 14.1528 4.71463 -8.95154
404 1 6.28902 12.5791 3.14355 -8.94916
405 1 7.85549 14.1597 4.70556 -8.95297
406 1 9.43568 12.5801 3.14268 -8.95189
407 1 11.0088 14.1582 4.70682 -8.95085
408 1 12.5836 12.581 3.13605 -8.9592
409 1 14.1658 14.1642 4.70377 -8.93009
410 1 15.7293 12.5811 3.14031 -8.94757
411 1 17.3017 14.1542 4.71469 -8.95088
412 1 18.8715 12.5799 3.14333 -8.94927
413 1 20.4426 14.1523 4.71657 -8.95026
414 1 22.0138 15.7247 3.14409 -8.94991
415 1 1.56998 17.2981 4.71565 -8.94956
416 1 3.14296 15.7251 3.14315 -8.95037
417 1 4.71183 17.3017 4.71211 -8.94455
418 1 6.28604 15.7279 3.13941 -8.94981
419 1 7.86012 17.3014 4.71349 -8.94909
420 1 9.43398 15.7277 3.14071 -8.94768
421 1 11.0078 17.3009 4.71369 -8.9477
422 1 12.5817 15.7279 3.1402 -8.94914
423 1 14.1557 17.3021 4.71357 -8.94969
424 1 15.7295 15.729 3.14013 -8.94456
425 1 17.2983 17.2981 4.71658 -8.95048
426 1 18.8712 15.7256 3.14355 -8.94969
427 1 20.4413 17.2974 4.71676 -8.94992
428 1 22.0131 18.8698 3.14404 -8.94947
429 1 1.57098 20.4421 4.7163 -8.94937
430 1 3.14262 18.8708 3.14277 -8.94819
431 1 4.71543 20.443 4.7155 -8.95
432 1 6.28831 18.8711 3.14278 -8.94962
433 1 7.86158 20.4429 4.71581 -8.94974
434 1 9.43437 18.871 3.14306 -8.94934
435 1 11.0074 20.4428 4.71601 -8.94968
436 1 12.5803 18.8711 3.14323 -8.94914
437 1 14.1527 20.4428 4.7165 -8.95076
438 1 15.7261 18.8714 3.14328 -8.94937
439 1 17.2972 20.442 4.71703 -8.94964
440 1 18.8697 18.87 3.14432 -8.94985
441 1 20.4411 20.4419 4.7169 -8.94946
442 1 1.57217 11.007 7.86177 -8.94732
443 1 4.72057 11.007 7.86249 -8.94002
444 1 7.88512 11.007 7.86115 -8.91246
445 1 11.0836 11.007 7.6309 -8.12409
446 1 14.159 11.007 7.85398 -8.97266
447 1 17.2987 11.007 7.86229 -8.95103
448 1 20.4419 11.007 7.86217 -8.9493
449 1 22.0138 12.5793 6.2893 -8.94988
450 1 1.56931 14.1525 7.86168 -8.95221
451 1 3.14321 12.5788 6.28895 -8.94997
452 1 4.70528 14.1578 7.85801 -8.95681
453 1 6.28562 12.5784 6.28683 -8.95234
454 1 7.82086 14.1906 7.82699 -8.85421
455 1 9.42101 12.605 6.27958 -8.90354
456 1 11.023 14.1618 7.83558 -8.90451
457 1 12.6203 12.6126 6.25175 -8.85533
458 1 14.1552 14.1524 7.86402 -8.95326
459 1 15.7349 12.5819 6.28516 -8.95818
460 1 17.298 14.1522 7.86272 -8.94991
461 1 18.8717 12.5797 6.28911 -8.9518
462 1 20.4412 14.1521 7.86214 -8.94998
463 1 -0.00146323 15.725 6.28909 -8.95036
464 1 1.56953 17.2984 7.86132 -8.94921
465 1 3.13917 15.7273 6.28671 -8.95043
466 1 4.71158 17.3021 7.85969 -8.94733
467 1 6.27549 15.7383 6.27643 -8.93012
468 1 7.858 17.3063 7.85961 -8.95915
469 1 9.43342 15.7347 6.28299 -8.95089
470 1 11.0065 17.2993 7.86087 -8.95211
471 1 12.5868 15.7358 6.2812 -8.95294
472 1 14.153 17.2981 7.86192 -8.94801
473 1 15.7271 15.7261 6.28909 -8.95181
474 1 17.2975 17.2976 7.86199 -8.94909
475 1 18.8699 15.7249 6.28958 -8.94995
476 1 20.4409 17.2974 7.86189 -8.94961
477 1 22.0127 18.8699 6.2891 -8.9494
478 1 1.57072 20.4422 7.86162 -8.94942
479 1 3.14207 18.8712 6.2881 -8.94906
480 1 4.71485 20.4433 7.86106 -8.94931
481 1 6.28684 18.8737 6.28712 -8.95156
482 1 7.8613 20.4436 7.86139 -8.95143
483 1 9.43445 18.8726 6.2878 -8.95063
484 1 11.0071 20.4423 7.86173 -8.94942
485 1 12.5802 18.8718 6.28866 -8.95264
486 1 14.1526 20.4421 7.86182 -8.94921
487 1 15.7252 18.8702 6.28949 -8.94938
488 1 17.2971 20.4419 7.862 -8.94953
489 1 18.8692 18.8697 6.28948 -8.94942
490 1 20.441 20.4419 7.86194 -8.94951
491 1 -0.000747206 12.5793 9.43455 -8.94934
492 1 3.14246 12.5791 9.43461 -8.95261
493 1 6.27926 12.5927 9.43075 -9.00439
494 1 9.35969 12.8161 9.43182 -8.1752
495 1 12.5555 12.5694 9.43444 -8.90387
496 1 15.7208 12.5785 9.4347 -8.93991
497 1 18.869 12.5795 9.43461 -8.94758
498 1 22.012 15.7252 9.43446 -8.95005
499 1 3.13873 15.7279 9.43406 -8.94863
512 1 1.57248 11.007 11.0072 -8.94647
514 1 7.86153 11.007 10.9498 -9.17508
519 1 1.56919 14.1526 11.0072 -8.95215
520 1 4.705 14.1582 11.0088 -8.95689
532 1 20.4409 17.2974 11.0071 -8.94958
527 1 4.71157 17.3022 11.0084 -8.94781
531 1 17.2974 17.2976 11.007 -8.949
518 1 20.4418 11.007 11.0069 -8.94906
353 1 3.14429 12.5795 -0.000203274 -8.94942
389 1 15.7253 18.8702 -0.000484419 -8.94955
377 1 18.8703 15.7251 -0.00052489 -8.94941
687 2 8.69092 11.007 12.5703 0.751688
513 1 4.72279 11.007 11.0077 -8.9916
686 1 20.4417 20.4418 20.4415 -8.94916
515 1 11.0787 11.007 11.2373 -8.15465
516 1 14.1569 11.007 11.0155 -8.97263
517 1 17.298 11.007 11.007 -8.95077
391 1 18.87 18.8699 22.0135 -8.9491
685 1 18.87 18.8699 18.8696 -8.94913
684 1 17.2974 20.442 20.4416 -8.94944
521 1 7.81856 14.1944 11.0371 -8.90351
522 1 11.0271 14.1679 11.0252 -8.93401
523 1 14.155 14.1523 11.0052 -8.95569
524 1 17.2978 14.1522 11.0065 -8.95008
525 1 20.4411 14.1521 11.007 -8.95001
683 1 15.7254 18.8703 18.8699 -8.94938
682 1 14.1524 20.442 20.4417 -8.94948
528 1 7.85721 17.3085 11.0073 -8.9577
529 1 11.0076 17.3019 11.0059 -8.95142
530 1 14.1528 17.2979 11.0063 -8.94888
681 1 12.58 18.8703 18.8701 -8.94949
680 1 11.0071 20.442 20.4417 -8.94949
533 1 1.57072 20.4422 11.0072 -8.94941
679 1 9.43441 18.8703 18.8701 -8.94945
535 1 7.86109 20.4441 11.0068 -8.95169
536 1 11.0074 20.4429 11.0065 -8.9499
537 1 14.1525 20.442 11.0067 -8.94923
678 1 7.86181 20.442 20.4417 -8.94948
539 1 20.441 20.4419 11.007 -8.94951
540 1 1.57238 11.007 14.1527 -8.94828
541 1 4.71924 11.007 14.1518 -8.99526
542 1 7.84505 11.007 14.1956 -9.20644
543 1 11.0141 11.007 14.1539 -9.03532
544 1 14.1624 11.007 14.1627 -8.94378
545 1 17.3015 11.007 14.1547 -8.94912
546 1 20.4429 11.007 14.1527 -8.94977
547 1 22.0138 12.5793 12.5797 -8.95008
548 1 1.57109 14.1521 14.1526 -8.95027
549 1 3.14296 12.579 12.58 -8.95161
550 1 4.7129 14.1543 14.1546 -8.9504
551 1 6.28196 12.5844 12.5805 -8.98848
552 1 7.85275 14.1641 14.1656 -9.00121
553 1 9.44083 12.6622 12.5869 -9.16002
554 1 11.0131 14.1644 14.167 -8.98111
555 1 12.6155 12.6118 12.6171 -8.91093
556 1 14.1654 14.164 14.1649 -8.93297
557 1 15.7335 12.5817 12.5839 -8.95727
558 1 17.3014 14.154 14.1543 -8.95107
559 1 18.8714 12.5796 12.5799 -8.95158
560 1 20.4425 14.1523 14.1524 -8.95036
561 1 22.0124 15.725 12.5799 -8.95023
562 1 1.56992 17.2982 14.1533 -8.94969
563 1 3.13922 15.7275 12.5818 -8.95035
564 1 4.71147 17.3024 14.1569 -8.94479
565 1 6.27545 15.7403 12.5918 -8.93127
566 1 7.8592 17.304 14.1563 -8.94767
567 1 9.43385 15.7476 12.5848 -8.96527
568 1 11.009 17.3038 14.1563 -8.94708
569 1 12.5865 15.7367 12.587 -8.95205
570 1 14.1558 17.3023 14.1553 -8.94972
571 1 15.727 15.7262 12.5799 -8.95157
572 1 17.2983 17.2981 14.1524 -8.95045
573 1 18.8698 15.7249 12.5795 -8.94995
574 1 20.4413 17.2974 14.1523 -8.9499
575 1 22.0127 18.8699 12.5798 -8.94942
576 1 1.57091 20.4422 14.1527 -8.94939
577 1 3.14202 18.8713 12.5806 -8.94907
578 1 4.71521 20.4432 14.1535 -8.95001
579 1 6.28665 18.8745 12.5815 -8.95153
580 1 7.86129 20.4436 14.1534 -8.94993
581 1 9.43447 18.8754 12.5808 -8.95395
582 1 11.0078 20.4435 14.1532 -8.95002
583 1 12.5805 18.8725 12.5799 -8.95213
584 1 14.153 20.4429 14.1525 -8.95061
585 1 15.7251 18.8701 12.5793 -8.94958
586 1 17.2972 20.442 14.1519 -8.94971
587 1 18.8692 18.8697 12.5795 -8.9494
588 1 20.4411 20.4419 14.1521 -8.94948
589 1 1.57235 11.007 17.2973 -8.94936
590 1 4.71712 11.007 17.2977 -8.94963
591 1 7.86196 11.007 17.3069 -8.96242
592 1 11.0074 11.007 17.2994 -8.94782
593 1 14.1554 11.007 17.3016 -8.949
594 1 17.2992 11.007 17.2986 -8.9494
595 1 20.4426 11.007 17.2975 -8.94948
596 1 0.000385356 12.5795 15.725 -8.94957
597 1 1.57198 14.152 17.2974 -8.94983
598 1 3.14417 12.5792 15.725 -8.95062
599 1 4.71545 14.1531 17.299 -8.94829
600 1 6.28669 12.5834 15.7286 -8.97973
601 1 7.86171 14.1532 17.3006 -8.9531
602 1 9.43741 12.5829 15.7282 -9.00392
603 1 11.008 14.1546 17.3018 -8.95136
604 1 12.5842 12.5816 15.7345 -8.95835
605 1 14.1549 14.1543 17.3014 -8.95114
606 1 15.7292 12.581 15.7288 -8.94797
607 1 17.2991 14.153 17.2985 -8.94922
608 1 18.8714 12.5799 15.7257 -8.94932
609 1 20.4424 14.1522 17.2974 -8.94949
610 1 22.0136 15.7248 15.725 -8.94995
611 1 1.57143 17.2974 17.2977 -8.94975
612 1 3.14255 15.7255 15.7262 -8.94998
613 1 4.71494 17.2989 17.2995 -8.94924
614 1 6.28506 15.7298 15.7308 -8.94969
615 1 7.8612 17.2989 17.2992 -8.94898
616 1 9.43384 15.7297 15.729 -8.94785
617 1 11.0075 17.2991 17.2992 -8.94958
618 1 12.5832 15.7297 15.7305 -8.94674
619 1 14.1539 17.2992 17.2992 -8.94895
620 1 15.7296 15.729 15.729 -8.94518
621 1 17.2988 17.2986 17.2983 -8.94835
622 1 18.8711 15.7256 15.7255 -8.94982
623 1 20.442 17.2974 17.2974 -8.94958
624 1 -0.000899601 18.8698 15.725 -8.94955
625 1 1.57128 20.442 17.2976 -8.9491
626 1 3.14237 18.871 15.7264 -8.94822
627 1 4.71604 20.4423 17.298 -8.94952
628 1 6.2878 18.8719 15.7268 -8.94947
629 1 7.86165 20.4424 17.298 -8.94938
630 1 9.43437 18.8719 15.7264 -8.9492
631 1 11.0073 20.4424 17.2979 -8.94944
632 1 12.5809 18.8719 15.7264 -8.94892
633 1 14.1528 20.4424 17.2978 -8.94937
634 1 15.7262 18.8714 15.7258 -8.94943
635 1 17.2976 20.4422 17.2974 -8.94944
636 1 18.8697 18.8699 15.7247 -8.94986
637 1 20.4414 20.4419 17.2971 -8.94954
638 1 1.57226 11.007 20.4416 -8.94953
639 1 4.71658 11.007 20.4421 -8.9492
640 1 7.86187 11.007 20.4438 -8.95189
641 1 11.0073 11.007 20.4424 -8.94848
642 1 14.1535 11.007 20.4419 -8.95031
643 1 17.2984 11.007 20.4416 -8.94943
644 1 20.4423 11.007 20.4415 -8.94949
645 1 22.0142 12.5795 18.8695 -8.94951
646 1 1.57217 14.152 20.4416 -8.94957
647 1 3.1443 12.5794 18.8696 -8.94969
648 1 4.71632 14.1523 20.4423 -8.94939
649 1 6.28839 12.5803 18.8717 -8.94862
650 1 7.86184 14.1523 20.4423 -8.9503
651 1 9.43534 12.5803 18.8718 -8.94794
652 1 11.0074 14.1529 20.4424 -8.95027
653 1 12.5805 12.5798 18.8717 -8.95174
654 1 14.1532 14.1528 20.4418 -8.95068
655 1 15.7264 12.58 18.8708 -8.94937
656 1 17.2983 14.1526 20.4416 -8.94935
657 1 18.8705 12.5797 18.8697 -8.94944
658 1 20.4422 14.1522 20.4415 -8.94948
659 1 8.58403e-05 15.7246 18.8695 -8.94959
660 1 1.57194 17.2971 20.4417 -8.94957
661 1 3.14385 15.7248 18.8701 -8.94933
662 1 4.71628 17.2975 20.4418 -8.95018
663 1 6.28871 15.7253 18.871 -8.95106
664 1 7.86159 17.2978 20.4419 -8.94953
665 1 9.43429 15.7259 18.871 -8.94962
666 1 11.0071 17.298 20.4419 -8.94958
667 1 12.5805 15.726 18.8713 -8.94979
668 1 14.1528 17.298 20.4418 -8.94957
669 1 15.7262 15.7259 18.8707 -8.94992
670 1 17.298 17.2979 20.4416 -8.94947
671 1 18.8703 15.725 18.8697 -8.94945
672 1 20.442 17.2972 20.4415 -8.9495
673 1 22.0137 18.8696 18.8695 -8.94951
674 1 1.57175 20.4419 20.4416 -8.94927
675 1 3.14366 18.87 18.8701 -8.94936
676 1 4.7166 20.4419 20.4417 -8.94952
677 1 6.28891 18.8701 18.8702 -8.94947
351 1 0.000286209 12.5795 22.0136 -8.9495
385 1 9.43441 18.8701 22.0134 -8.94946
355 1 6.28908 12.5795 22.0142 -8.94961
357 1 9.43483 12.5796 22.0141 -8.94955
359 1 12.5804 12.5797 22.0124 -8.95148
367 1 3.14408 15.7246 22.0137 -8.94967
375 1 15.7261 15.7258 22.0126 -8.94997
383 1 6.28901 18.87 22.0134 -8.94947
379 1 -0.000183225 18.8696 22.0136 -8.94947
363 1 18.8705 12.5797 22.0133 -8.94943
387 1 12.5799 18.8702 22.0134 -8.94944
526 1 1.56956 17.2984 11.0074 -8.94929
