ITEM: TIMESTEP
69
ITEM: NUMBER OF ATOMS
688
ITEM: BOX BOUNDS pp pp pp
0.0000000000000000e+00 2.2013900999999997e+01
0.0000000000000000e+00 2.2013900999999997e+01
0.0000000000000000e+00 2.2013900999999997e+01
ITEM: ATOMS id type x y z c_pot
191 1 4.70669 7.85787 11.0087 -8.95666
2 1 1.57226 1.57231 1.57227 -8.94936
3 1 3.14481 1.51056e-15 -4.1471e-05 -8.94968
4 1 4.71718 1.57228 1.57225 -8.9497
175 1 18.8696 9.4342 9.43451 -8.94818
6 1 7.86208 1.57226 1.57223 -8.94957
7 1 9.43452 1.54709e-15 -5.51972e-05 -8.94963
8 1 11.007 1.57225 1.57222 -8.9496
174 1 15.7233 9.43464 9.43444 -8.94057
10 1 14.1519 1.57226 1.57226 -8.94956
173 1 12.5604 9.44358 9.43349 -8.90185
12 1 17.2968 1.57223 1.57225 -8.94952
190 1 1.57009 7.86171 11.0071 -8.95171
14 1 20.4415 1.57237 1.57238 -8.94962
172 1 9.35697 9.20099 9.43169 -8.1673
16 1 1.57226 4.71716 1.57226 -8.94974
17 1 3.14466 3.14465 -0.000169562 -8.94956
18 1 4.71665 4.71665 1.57148 -8.94948
171 1 6.27648 9.42302 9.43049 -9.0049
20 1 7.86195 4.71671 1.57171 -8.94924
170 1 3.14161 9.43503 9.43452 -8.95288
22 1 11.007 4.71664 1.57174 -8.94946
189 1 20.4414 4.717 11.007 -8.94958
24 1 14.1521 4.71663 1.57179 -8.94972
169 1 -0.0006499 9.4346 9.4345 -8.94982
26 1 17.2974 4.71654 1.57178 -8.94846
168 1 18.8696 6.28915 9.43452 -8.94959
28 1 20.4417 4.71712 1.57228 -8.94959
29 1 22.0139 6.28967 -3.94324e-05 -8.94962
30 1 1.57228 7.86209 1.57225 -8.9495
167 1 15.7258 6.28818 9.43452 -8.94726
32 1 4.71691 7.86217 1.57204 -8.94971
33 1 6.2894 6.28938 -0.000502324 -8.95032
34 1 7.86177 7.86182 1.5707 -8.95204
35 1 9.43436 6.28916 -0.000484149 -8.94954
36 1 11.0067 7.86125 1.5704 -8.95028
37 1 12.5795 6.28919 -0.000431151 -8.94956
38 1 14.153 7.86095 1.56979 -8.95134
166 1 12.5792 6.28998 9.43303 -8.94342
40 1 17.2973 7.86178 1.57177 -8.9494
165 1 9.42997 6.29122 9.43409 -9.00371
42 1 20.4417 7.86204 1.57225 -8.94954
164 1 6.28026 6.27988 9.43368 -8.94301
163 1 3.14129 6.28779 9.43426 -8.94867
162 1 22.0132 6.28928 9.43447 -8.94985
161 1 18.8692 3.14463 9.43453 -8.94963
160 1 15.7247 3.14426 9.43453 -8.94972
48 1 15.7248 9.43433 -0.000626601 -8.94938
188 1 17.2972 4.7167 11.0069 -8.94911
50 1 -6.16494e-05 6.66614e-16 3.1448 -8.94964
51 1 1.57221 1.57227 4.71714 -8.94961
52 1 3.1446 6.10411e-16 3.14459 -8.94956
53 1 4.71677 1.57175 4.71673 -8.9499
54 1 6.28964 5.42552e-16 3.14462 -8.9496
55 1 7.8621 1.57184 4.71684 -8.94958
56 1 9.43454 1.06032e-15 3.14459 -8.94959
57 1 11.0071 1.57182 4.71681 -8.94956
58 1 12.5795 1.32435e-15 3.14461 -8.94953
59 1 14.1521 1.57182 4.71702 -8.95037
60 1 15.7244 1.4132e-15 3.14467 -8.94986
61 1 17.2967 1.5723 4.71726 -8.94965
62 1 18.8691 7.39837e-16 3.14484 -8.94967
63 1 20.4415 1.57237 4.71724 -8.94959
64 1 22.0137 3.14468 3.14469 -8.94954
65 1 1.57147 4.71668 4.71666 -8.94951
66 1 3.14412 3.14417 3.14411 -8.94847
67 1 4.71425 4.71428 4.71418 -8.94487
68 1 6.28946 3.14419 3.14423 -8.94974
69 1 7.86158 4.71494 4.71547 -8.94927
70 1 9.43452 3.14413 3.14423 -8.94945
71 1 11.0073 4.71494 4.71556 -8.94795
72 1 12.5795 3.1441 3.14431 -8.94924
73 1 14.1539 4.71381 4.71533 -8.94988
74 1 15.7248 3.14387 3.14424 -8.94944
75 1 17.2972 4.71675 4.71716 -8.95021
76 1 18.8692 3.14468 3.14477 -8.94978
77 1 20.4414 4.71709 4.71717 -8.94975
78 1 22.0139 6.28961 3.14467 -8.94977
79 1 1.57193 7.86217 4.71693 -8.94975
80 1 3.14421 6.2895 3.14424 -8.95016
81 1 4.71543 7.86204 4.71569 -8.95126
82 1 6.28772 6.28781 3.14141 -8.94998
83 1 7.85708 7.85694 4.70778 -8.95373
84 1 9.43417 6.28799 3.14253 -8.94793
85 1 11.0074 7.85798 4.70964 -8.9509
86 1 12.58 6.2879 3.14248 -8.94929
87 1 14.163 7.85142 4.70637 -8.93021
88 1 15.7272 6.28669 3.14195 -8.94485
89 1 17.2997 7.86065 4.71586 -8.95073
90 1 18.8699 6.28917 3.14434 -8.94965
91 1 20.442 7.86191 4.71702 -8.95006
92 1 -1.28054e-05 9.43448 3.1446 -8.94958
93 1 3.14427 9.43453 3.14426 -8.94906
94 1 6.28917 9.43512 3.1438 -8.94938
95 1 9.4349 9.43447 3.14284 -8.95139
96 1 12.5816 9.43336 3.13759 -8.95879
97 1 15.7267 9.43363 3.14238 -8.94792
98 1 18.8699 9.43436 3.14432 -8.94936
99 1 22.0138 3.22051e-16 6.28966 -8.94962
100 1 1.57217 1.57224 7.86205 -8.9496
101 1 3.14453 -3.30472e-16 6.28952 -8.94947
102 1 4.71661 1.57163 7.86181 -8.94936
103 1 6.28944 1.30445e-15 6.28936 -8.95046
104 1 7.86205 1.57105 7.86192 -8.95125
105 1 9.4347 1.69376e-15 6.28938 -8.95006
106 1 11.0071 1.57182 7.86206 -8.94953
107 1 12.5795 1.20672e-15 6.28958 -8.95025
108 1 14.1521 1.57204 7.86206 -8.94937
109 1 15.7244 1.15889e-15 6.28966 -8.94951
110 1 17.2968 1.57226 7.86209 -8.94962
111 1 18.8691 2.59753e-16 6.28967 -8.94961
112 1 20.4415 1.57235 7.86209 -8.94963
113 1 22.0137 3.14465 6.2896 -8.94953
114 1 1.57144 4.71663 7.86185 -8.94928
115 1 3.14408 3.14407 6.28927 -8.94937
116 1 4.71457 4.71435 7.86091 -8.94786
117 1 6.28855 3.14209 6.28844 -8.95136
118 1 7.85996 4.70981 7.86064 -8.95878
119 1 9.43487 3.14272 6.28885 -8.9502
120 1 11.0068 4.71531 7.86193 -8.95172
121 1 12.5797 3.14301 6.28939 -8.95218
122 1 14.1525 4.71621 7.86248 -8.94849
123 1 15.7245 3.14437 6.28978 -8.94948
124 1 17.2972 4.71669 7.86209 -8.9492
125 1 18.8692 3.14466 6.28966 -8.94951
126 1 20.4414 4.71701 7.86204 -8.94959
127 1 -0.000608997 6.28942 6.28944 -8.95012
128 1 1.5703 7.86185 7.8618 -8.95183
129 1 3.14142 6.28795 6.28785 -8.95021
130 1 4.70695 7.8579 7.85855 -8.95617
131 1 6.27846 6.27857 6.27866 -8.93021
132 1 7.82238 7.82639 7.82818 -8.85336
133 1 9.43443 6.28229 6.28552 -8.95092
134 1 11.0219 7.85433 7.8393 -8.90597
135 1 12.5848 6.28024 6.28409 -8.95361
136 1 14.1552 7.86132 7.86465 -8.95232
137 1 15.7258 6.28854 6.28987 -8.95134
138 1 17.298 7.86153 7.86266 -8.94961
139 1 18.8695 6.28938 6.28972 -8.94969
140 1 20.4415 7.86189 7.8621 -8.94993
141 1 22.0138 9.43455 6.28944 -8.94984
142 1 3.14337 9.43515 6.28904 -8.94971
143 1 6.28582 9.43647 6.2872 -8.95189
144 1 9.42186 9.41262 6.28156 -8.90556
145 1 12.6189 9.40186 6.2541 -8.85492
146 1 15.7333 9.43229 6.2867 -8.95783
147 1 18.8709 9.43431 6.28948 -8.95152
148 1 -8.79131e-05 5.55767e-16 9.43452 -8.94963
149 1 3.1445 8.52371e-17 9.43451 -8.94958
150 1 6.28917 3.10087e-16 9.4344 -8.95018
151 1 9.43474 1.2272e-15 9.43442 -8.94898
152 1 12.5797 1.32841e-15 9.4344 -8.94945
153 1 15.7244 1.7254e-15 9.43453 -8.94968
154 1 18.8691 8.61501e-16 9.43453 -8.94962
155 1 -0.000225823 3.14462 9.43451 -8.94959
156 1 3.14398 3.14401 9.43446 -8.94957
157 1 6.28794 3.14154 9.43421 -8.94932
158 1 9.43468 3.14334 9.43434 -8.94672
159 1 12.5801 3.14398 9.43416 -8.94828
177 1 4.71662 1.57163 11.0071 -8.94945
181 1 17.2968 1.57226 11.007 -8.94959
184 1 4.71448 4.7143 11.0078 -8.94821
11 1 15.7242 1.85741e-15 -3.71274e-05 -8.94963
25 1 15.7243 3.14465 -0.000112126 -8.94969
41 1 18.8693 6.28958 -0.000125649 -8.94963
44 1 3.1446 9.4345 -9.89764e-05 -8.94953
176 1 1.57216 1.57223 11.007 -8.94959
343 1 18.8693 9.43449 18.8692 -8.94959
178 1 7.8619 1.57074 11.0069 -8.95136
179 1 11.0073 1.57148 11.0067 -8.94982
180 1 14.1521 1.57211 11.0069 -8.94937
342 1 15.7249 9.43431 18.8699 -8.94937
182 1 20.4415 1.57235 11.007 -8.94963
341 1 12.5798 9.43433 18.871 -8.9516
340 1 9.43506 9.43372 18.8712 -8.94798
185 1 7.85922 4.7084 11.0072 -8.95725
186 1 11.0078 4.71355 11.0058 -8.95083
187 1 14.1524 4.71653 11.0062 -8.94918
339 1 6.28847 9.43367 18.8712 -8.94892
338 1 3.14445 9.43452 18.8693 -8.94972
337 1 22.0138 9.43452 18.8692 -8.9496
336 1 20.4415 7.86209 20.4415 -8.94962
192 1 7.82048 7.8244 11.0374 -8.90485
193 1 11.0258 7.85024 11.0226 -8.93622
194 1 14.1551 7.86181 11.0045 -8.95499
195 1 17.298 7.86159 11.0064 -8.94972
196 1 20.4415 7.86188 11.0069 -8.94995
197 1 22.0138 5.02888e-18 12.5794 -8.94963
198 1 1.57218 1.57225 14.1519 -8.94961
199 1 3.14451 3.89007e-16 12.5795 -8.94951
200 1 4.71669 1.57165 14.1523 -8.94994
201 1 6.28936 2.37214e-16 12.5797 -8.95044
202 1 7.86194 1.57148 14.1524 -8.94965
203 1 9.4347 -2.70895e-16 12.5796 -8.95091
204 1 11.0073 1.57144 14.1524 -8.94982
205 1 12.5796 9.55423e-16 12.5794 -8.95015
206 1 14.1522 1.57179 14.152 -8.95027
207 1 15.7244 1.5805e-15 12.5794 -8.94955
208 1 17.2968 1.57231 14.1518 -8.94968
209 1 18.8691 9.94489e-16 12.5794 -8.9496
210 1 20.4415 1.57236 14.1518 -8.9496
211 1 22.0137 3.14463 12.5794 -8.94955
212 1 1.5714 4.71664 14.1523 -8.94963
213 1 3.14401 3.144 12.5797 -8.94934
214 1 4.71392 4.71386 14.1549 -8.94514
215 1 6.28844 3.14172 12.5805 -8.95129
216 1 7.86081 4.71339 14.1543 -8.94772
217 1 9.43487 3.14085 12.5801 -8.95313
218 1 11.0084 4.71304 14.1543 -8.94734
219 1 12.5799 3.14278 12.5796 -8.9517
220 1 14.154 4.71384 14.1536 -8.95
221 1 15.7245 3.14442 12.5792 -8.94962
222 1 17.2972 4.71674 14.1519 -8.95019
223 1 18.8692 3.14466 12.5794 -8.9495
224 1 20.4414 4.71707 14.1519 -8.94974
225 1 22.0132 6.28936 12.5796 -8.95001
226 1 1.57147 7.86194 14.1522 -8.94989
227 1 3.14132 6.28787 12.5808 -8.9502
228 1 4.71409 7.86089 14.1534 -8.95004
229 1 6.27837 6.27752 12.5901 -8.93137
230 1 7.85487 7.85481 14.1629 -9.00451
231 1 9.43493 6.27175 12.5828 -8.96465
232 1 11.0116 7.85343 14.1639 -8.98167
233 1 12.5847 6.28017 12.5845 -8.95314
234 1 14.1632 7.85173 14.1623 -8.93271
235 1 15.7258 6.28855 12.5791 -8.95117
236 1 17.2997 7.86069 14.1531 -8.95084
237 1 18.8695 6.28936 12.5793 -8.94969
238 1 20.4419 7.86189 14.152 -8.95014
239 1 22.0136 9.43454 12.5796 -8.95004
240 1 3.14255 9.4349 12.58 -8.95077
241 1 6.2823 9.43217 12.5806 -8.98635
242 1 9.44349 9.36172 12.5848 -9.16691
243 1 12.6151 9.40337 12.6152 -8.90604
244 1 15.7328 9.43238 12.5823 -8.95676
245 1 18.8708 9.43431 12.5795 -8.95138
246 1 -7.34379e-05 2.48602e-16 15.7243 -8.94964
247 1 1.57222 1.57228 17.2968 -8.94935
248 1 3.14455 6.42104e-16 15.7245 -8.94959
249 1 4.71709 1.57217 17.2969 -8.94967
250 1 6.28953 1.41038e-15 15.7246 -8.94964
251 1 7.86206 1.57218 17.2969 -8.94955
252 1 9.43455 1.55914e-15 15.7246 -8.94956
253 1 11.007 1.57218 17.2969 -8.94958
254 1 12.5796 6.7904e-16 15.7246 -8.94961
255 1 14.152 1.57215 17.2969 -8.9495
256 1 15.7244 4.19945e-16 15.7244 -8.94984
257 1 17.2968 1.57223 17.2968 -8.94955
258 1 18.8691 6.16562e-16 15.7242 -8.94968
259 1 20.4415 1.57236 17.2967 -8.94964
260 1 -0.000225559 3.14466 15.7244 -8.94958
261 1 1.57216 4.71709 17.2969 -8.9497
262 1 3.14399 3.14403 15.725 -8.94847
263 1 4.71637 4.71622 17.2979 -8.94946
264 1 6.28919 3.14371 15.7251 -8.94965
265 1 7.86191 4.71644 17.2977 -8.94912
266 1 9.4345 3.14374 15.725 -8.94933
267 1 11.007 4.71638 17.2976 -8.94973
268 1 12.5799 3.1436 15.7251 -8.9491
269 1 14.1524 4.71628 17.2976 -8.9492
270 1 15.7249 3.14387 15.7248 -8.94951
271 1 17.2974 4.71652 17.2973 -8.94854
272 1 18.8692 3.14467 15.7243 -8.94978
273 1 20.4416 4.7171 17.2968 -8.94958
274 1 22.0138 6.28952 15.7244 -8.94974
275 1 1.57201 7.86202 17.2969 -8.94984
276 1 3.1438 6.2892 15.725 -8.94979
277 1 4.71565 7.86092 17.2984 -8.94775
278 1 6.28698 6.28647 15.7283 -8.95056
279 1 7.86189 7.86163 17.2993 -8.95242
280 1 9.434 6.28697 15.7267 -8.94838
281 1 11.0074 7.86053 17.3002 -8.95076
282 1 12.5814 6.28658 15.7279 -8.94731
283 1 14.1535 7.86061 17.2997 -8.95073
284 1 15.7274 6.28667 15.7271 -8.94533
285 1 17.2975 7.86172 17.2974 -8.94943
286 1 18.8699 6.28916 15.7247 -8.94971
287 1 20.4416 7.86203 17.2968 -8.94961
288 1 -0.000146046 9.43449 15.7245 -8.94968
289 1 3.14372 9.43457 15.7247 -8.95076
290 1 6.28519 9.43041 15.7293 -8.98007
291 1 9.43701 9.43216 15.728 -9.00215
292 1 12.5833 9.43266 15.7332 -8.95743
293 1 15.7271 9.43358 15.7268 -8.94828
294 1 18.87 9.43435 15.7248 -8.94945
295 1 22.0138 1.75924e-15 18.8691 -8.94951
296 1 1.57235 1.57234 20.4415 -8.94954
297 1 3.14477 1.07303e-15 18.8692 -8.94966
298 1 4.71723 1.57235 20.4415 -8.94963
299 1 6.28966 1.29731e-15 18.8692 -8.94961
300 1 7.86209 1.57233 20.4415 -8.94962
301 1 9.43453 1.61538e-15 18.8692 -8.94963
302 1 11.007 1.57233 20.4415 -8.94962
303 1 12.5794 1.32915e-15 18.8692 -8.94963
304 1 14.1518 1.57234 20.4415 -8.94963
305 1 15.7243 7.22142e-16 18.8691 -8.94958
306 1 17.2967 1.57236 20.4415 -8.94964
307 1 18.8691 1.25585e-15 18.8691 -8.94957
308 1 20.4415 1.57238 20.4415 -8.94951
309 1 22.0139 3.14478 18.8691 -8.94962
310 1 1.5723 4.71718 20.4416 -8.94954
311 1 3.14459 3.14456 18.8693 -8.9495
312 1 4.71706 4.71701 20.4416 -8.94993
313 1 6.28961 3.14458 18.8693 -8.94956
314 1 7.862 4.71693 20.4416 -8.94953
315 1 9.43452 3.14453 18.8693 -8.94958
316 1 11.007 4.71691 20.4416 -8.94961
317 1 12.5794 3.14456 18.8693 -8.94965
318 1 14.1519 4.71695 20.4416 -8.94957
319 1 15.7244 3.14458 18.8693 -8.94956
320 1 17.2969 4.71699 20.4415 -8.94953
321 1 18.8692 3.14467 18.8692 -8.94936
322 1 20.4415 4.71722 20.4415 -8.94965
323 1 -7.34285e-05 6.28963 18.8692 -8.94966
324 1 1.57229 7.86209 20.4415 -8.94966
325 1 3.14437 6.28934 18.8696 -8.94916
326 1 4.71676 7.86177 20.442 -8.94944
327 1 6.28936 6.2892 18.8699 -8.95062
328 1 7.86196 7.86184 20.4419 -8.95004
329 1 9.43437 6.28894 18.8699 -8.9495
330 1 11.0071 7.86153 20.442 -8.94999
331 1 12.5797 6.28899 18.8701 -8.94957
332 1 14.1522 7.86175 20.4417 -8.95045
333 1 15.7249 6.28907 18.8698 -8.94976
334 1 17.297 7.86198 20.4415 -8.9495
335 1 18.8693 6.28956 18.8692 -8.94963
5 1 6.28967 7.05213e-16 22.0139 -8.94961
9 1 12.5794 1.49513e-15 22.0138 -8.94962
47 1 12.5795 9.43441 22.0128 -8.95134
15 1 -1.33382e-05 3.14479 22.0139 -8.9496
19 1 6.28963 3.14465 22.0138 -8.94956
21 1 9.43451 3.14461 22.0138 -8.94959
46 1 9.4345 9.43439 22.0138 -8.94963
27 1 18.8692 3.14468 22.0138 -8.94935
31 1 3.14463 6.28959 22.0139 -8.94963
39 1 15.7247 6.28915 22.0133 -8.94988
45 1 6.28928 9.43444 22.014 -8.9497
43 1 -2.07216e-05 9.43452 22.0139 -8.94962
1 1 -4.36446e-05 1.68509e-15 22.0139 -8.94951
13 1 18.8691 1.96682e-15 22.0138 -8.94954
23 1 12.5794 3.14462 22.0138 -8.94958
49 1 18.8693 9.43449 22.0138 -8.9496
183 1 1.57142 4.71661 11.0071 -8.94934
344 1 1.57225 11.007 1.57222 -8.94963
345 1 4.71675 11.007 1.57187 -8.94957
346 1 7.86183 11.007 1.57212 -8.9492
347 1 11.0069 11.007 1.57134 -8.94692
348 1 14.1533 11.007 1.56966 -8.94942
349 1 17.2974 11.007 1.57175 -8.94955
350 1 20.4417 11.007 1.57224 -8.94959
688 3 10.2157 11.007 9.4309 2.30611
352 1 1.57228 14.1518 1.57225 -8.9495
511 1 18.8692 18.8693 9.43453 -8.94963
354 1 4.71691 14.1517 1.57204 -8.94971
510 1 15.7247 18.8696 9.43453 -8.94972
356 1 7.86177 14.1521 1.5707 -8.95204
509 1 12.5801 18.8699 9.43416 -8.94828
358 1 11.0067 14.1527 1.5704 -8.95028
508 1 9.43468 18.8706 9.43434 -8.94672
360 1 14.153 14.153 1.56979 -8.95134
361 1 15.7248 12.5796 -0.000626601 -8.94938
362 1 17.2973 14.1521 1.57177 -8.9494
538 1 17.2968 20.4416 11.007 -8.94959
364 1 20.4417 14.1519 1.57225 -8.94954
365 1 22.0139 15.7242 -3.94324e-05 -8.94962
366 1 1.57226 17.2967 1.57226 -8.94974
507 1 6.28794 18.8724 9.43421 -8.94932
368 1 4.71665 17.2972 1.57148 -8.94948
369 1 6.2894 15.7245 -0.000502324 -8.95032
370 1 7.86195 17.2972 1.57171 -8.94924
371 1 9.43436 15.7247 -0.000484149 -8.94954
372 1 11.007 17.2973 1.57174 -8.94946
373 1 12.5795 15.7247 -0.000431151 -8.94956
374 1 14.1521 17.2973 1.57179 -8.94972
506 1 3.14398 18.8699 9.43446 -8.94957
376 1 17.2974 17.2974 1.57178 -8.94846
505 1 -0.000225823 18.8693 9.43451 -8.94959
378 1 20.4417 17.2968 1.57228 -8.94959
504 1 18.8696 15.7248 9.43452 -8.94959
380 1 1.57226 20.4416 1.57227 -8.94936
381 1 3.14466 18.8692 -0.000169562 -8.94956
382 1 4.71718 20.4416 1.57225 -8.9497
503 1 15.7258 15.7257 9.43452 -8.94726
384 1 7.86208 20.4416 1.57223 -8.94957
502 1 12.5792 15.7239 9.43303 -8.94342
386 1 11.007 20.4417 1.57222 -8.9496
534 1 4.71662 20.4423 11.0071 -8.94945
388 1 14.1519 20.4416 1.57226 -8.94956
501 1 9.42997 15.7227 9.43409 -9.00371
390 1 17.2968 20.4417 1.57225 -8.94952
500 1 6.28026 15.734 9.43368 -8.94301
392 1 20.4415 20.4415 1.57238 -8.94962
393 1 1.57185 11.007 4.71669 -8.94951
394 1 4.71575 11.007 4.71548 -8.9463
395 1 7.86401 11.007 4.71731 -8.94897
396 1 11.0115 11.007 4.71937 -9.00242
397 1 14.1605 11.007 4.7088 -8.94255
398 1 17.2997 11.007 4.71573 -8.94905
399 1 20.442 11.007 4.71692 -8.94985
400 1 -1.28054e-05 12.5794 3.1446 -8.94958
401 1 1.57193 14.1517 4.71693 -8.94975
402 1 3.14427 12.5794 3.14426 -8.94906
403 1 4.71543 14.1519 4.71569 -8.95126
404 1 6.28917 12.5788 3.1438 -8.94938
405 1 7.85708 14.157 4.70778 -8.95373
406 1 9.4349 12.5794 3.14284 -8.95139
407 1 11.0074 14.1559 4.70964 -8.9509
408 1 12.5816 12.5805 3.13759 -8.95879
409 1 14.163 14.1625 4.70637 -8.93021
410 1 15.7267 12.5803 3.14238 -8.94792
411 1 17.2997 14.1532 4.71586 -8.95073
412 1 18.8699 12.5795 3.14432 -8.94936
413 1 20.442 14.152 4.71702 -8.95006
414 1 22.0139 15.7243 3.14467 -8.94977
415 1 1.57147 17.2972 4.71666 -8.94951
416 1 3.14421 15.7244 3.14424 -8.95016
417 1 4.71425 17.2996 4.71418 -8.94487
418 1 6.28772 15.7261 3.14141 -8.94998
419 1 7.86158 17.299 4.71547 -8.94927
420 1 9.43417 15.7259 3.14253 -8.94793
421 1 11.0073 17.299 4.71556 -8.94795
422 1 12.58 15.726 3.14248 -8.94929
423 1 14.1539 17.3001 4.71533 -8.94988
424 1 15.7272 15.7272 3.14195 -8.94485
425 1 17.2972 17.2972 4.71716 -8.95021
426 1 18.8699 15.7247 3.14434 -8.94965
427 1 20.4414 17.2968 4.71717 -8.94975
428 1 22.0137 18.8692 3.14469 -8.94954
429 1 1.57221 20.4416 4.71714 -8.94961
430 1 3.14412 18.8697 3.14411 -8.94847
431 1 4.71677 20.4422 4.71673 -8.9499
432 1 6.28946 18.8697 3.14423 -8.94974
433 1 7.8621 20.4421 4.71684 -8.94958
434 1 9.43452 18.8698 3.14423 -8.94945
435 1 11.0071 20.4421 4.71681 -8.94956
436 1 12.5795 18.8698 3.14431 -8.94924
437 1 14.1521 20.4421 4.71702 -8.95037
438 1 15.7248 18.87 3.14424 -8.94944
439 1 17.2967 20.4416 4.71726 -8.94965
440 1 18.8692 18.8692 3.14477 -8.94978
441 1 20.4415 20.4415 4.71724 -8.94959
442 1 1.57169 11.007 7.86165 -8.94783
443 1 4.71842 11.007 7.86192 -8.94014
444 1 7.88214 11.007 7.86102 -8.91153
445 1 11.087 11.007 7.63343 -8.11503
446 1 14.1612 11.007 7.85529 -8.97251
447 1 17.2993 11.007 7.86252 -8.95136
448 1 20.4419 11.007 7.86213 -8.94972
449 1 22.0138 12.5793 6.28944 -8.94984
450 1 1.5703 14.1521 7.8618 -8.95183
451 1 3.14337 12.5787 6.28904 -8.94971
452 1 4.70695 14.156 7.85855 -8.95617
453 1 6.28582 12.5774 6.2872 -8.95189
454 1 7.82238 14.1875 7.82818 -8.85336
455 1 9.42186 12.6013 6.28156 -8.90556
456 1 11.0219 14.1596 7.8393 -8.90597
457 1 12.6189 12.612 6.2541 -8.85492
458 1 14.1552 14.1526 7.86465 -8.95232
459 1 15.7333 12.5816 6.2867 -8.95783
460 1 17.298 14.1524 7.86266 -8.94961
461 1 18.8709 12.5796 6.28948 -8.95152
462 1 20.4415 14.152 7.8621 -8.94993
463 1 -0.000608997 15.7245 6.28944 -8.95012
464 1 1.57144 17.2973 7.86185 -8.94928
465 1 3.14142 15.7259 6.28785 -8.95021
466 1 4.71457 17.2995 7.86091 -8.94786
467 1 6.27846 15.7353 6.27866 -8.93021
468 1 7.85996 17.3041 7.86064 -8.95878
469 1 9.43443 15.7316 6.28552 -8.95092
470 1 11.0068 17.2986 7.86193 -8.95172
471 1 12.5848 15.7337 6.28409 -8.95361
472 1 14.1525 17.2977 7.86248 -8.94849
473 1 15.7258 15.7254 6.28987 -8.95134
474 1 17.2972 17.2972 7.86209 -8.9492
475 1 18.8695 15.7245 6.28972 -8.94969
476 1 20.4414 17.2969 7.86204 -8.94959
477 1 22.0137 18.8693 6.2896 -8.94953
478 1 1.57217 20.4417 7.86205 -8.9496
479 1 3.14408 18.8698 6.28927 -8.94937
480 1 4.71661 20.4423 7.86181 -8.94936
481 1 6.28855 18.8718 6.28844 -8.95136
482 1 7.86205 20.4428 7.86192 -8.95125
483 1 9.43487 18.8712 6.28885 -8.9502
484 1 11.0071 20.4421 7.86206 -8.94953
485 1 12.5797 18.8709 6.28939 -8.95218
486 1 14.1521 20.4419 7.86206 -8.94937
487 1 15.7245 18.8695 6.28978 -8.94948
488 1 17.2968 20.4416 7.86209 -8.94962
489 1 18.8692 18.8692 6.28966 -8.94951
490 1 20.4415 20.4416 7.86209 -8.94963
491 1 -0.0006499 12.5793 9.4345 -8.94982
492 1 3.14161 12.5789 9.43452 -8.95288
493 1 6.27648 12.5909 9.43049 -9.0049
494 1 9.35697 12.8129 9.43169 -8.1673
495 1 12.5604 12.5703 9.43349 -8.90185
496 1 15.7233 12.5793 9.43444 -8.94057
497 1 18.8696 12.5797 9.43451 -8.94818
498 1 22.0132 15.7246 9.43447 -8.94985
499 1 3.14129 15.7261 9.43426 -8.94867
512 1 1.57162 11.007 11.0073 -8.94741
514 1 7.85835 11.007 10.9474 -9.1711
519 1 1.57009 14.1522 11.0071 -8.95171
520 1 4.70669 14.156 11.0087 -8.95666
532 1 20.4414 17.2969 11.007 -8.94958
527 1 4.71448 17.2996 11.0078 -8.94821
531 1 17.2972 17.2972 11.0069 -8.94911
518 1 20.4419 11.007 11.0069 -8.94965
353 1 3.1446 12.5794 -9.89764e-05 -8.94953
389 1 15.7243 18.8693 -0.000112126 -8.94969
377 1 18.8693 15.7243 -0.000125649 -8.94963
687 2 8.66353 11.007 12.5745 0.763963
513 1 4.7192 11.007 11.008 -8.99317
686 1 20.4415 20.4415 20.4415 -8.94951
515 1 11.0891 11.007 11.2346 -8.148
516 1 14.1606 11.007 11.0136 -8.97398
517 1 17.2991 11.007 11.0065 -8.95141
391 1 18.8692 18.8692 22.0138 -8.94935
685 1 18.8692 18.8692 18.8692 -8.94936
684 1 17.2967 20.4415 20.4415 -8.94964
521 1 7.82048 14.1895 11.0374 -8.90485
522 1 11.0258 14.1637 11.0226 -8.93622
523 1 14.1551 14.1521 11.0045 -8.95499
524 1 17.298 14.1523 11.0064 -8.94972
525 1 20.4415 14.152 11.0069 -8.94995
683 1 15.7244 18.8693 18.8693 -8.94956
682 1 14.1518 20.4416 20.4415 -8.94963
528 1 7.85922 17.3055 11.0072 -8.95725
529 1 11.0078 17.3003 11.0058 -8.95083
530 1 14.1524 17.2974 11.0062 -8.94918
681 1 12.5794 18.8693 18.8693 -8.94965
680 1 11.007 20.4416 20.4415 -8.94962
533 1 1.57216 20.4417 11.007 -8.94959
679 1 9.43452 18.8694 18.8693 -8.94958
535 1 7.8619 20.4432 11.0069 -8.95136
536 1 11.0073 20.4424 11.0067 -8.94982
537 1 14.1521 20.4418 11.0069 -8.94937
678 1 7.86209 20.4416 20.4415 -8.94962
539 1 20.4415 20.4416 11.007 -8.94963
540 1 1.57173 11.007 14.1523 -8.94872
541 1 4.71703 11.007 14.1523 -8.99763
542 1 7.84301 11.007 14.2001 -9.20748
543 1 11.0158 11.007 14.1567 -9.0351
544 1 14.161 11.007 14.1602 -8.94462
545 1 17.2998 11.007 14.1532 -8.94927
546 1 20.442 11.007 14.1521 -8.94981
547 1 22.0136 12.5794 12.5796 -8.95004
548 1 1.57147 14.152 14.1522 -8.94989
549 1 3.14255 12.579 12.58 -8.95077
550 1 4.71409 14.153 14.1534 -8.95004
551 1 6.2823 12.5817 12.5806 -8.98635
552 1 7.85487 14.1591 14.1629 -9.00451
553 1 9.44349 12.6522 12.5848 -9.16691
554 1 11.0116 14.1605 14.1639 -8.98167
555 1 12.6151 12.6105 12.6152 -8.90604
556 1 14.1632 14.1622 14.1623 -8.93271
557 1 15.7328 12.5815 12.5823 -8.95676
558 1 17.2997 14.1532 14.1531 -8.95084
559 1 18.8708 12.5796 12.5795 -8.95138
560 1 20.4419 14.152 14.152 -8.95014
561 1 22.0132 15.7245 12.5796 -8.95001
562 1 1.5714 17.2973 14.1523 -8.94963
563 1 3.14132 15.726 12.5808 -8.9502
564 1 4.71392 17.3 14.1549 -8.94514
565 1 6.27837 15.7364 12.5901 -8.93137
566 1 7.86081 17.3005 14.1543 -8.94772
567 1 9.43493 15.7421 12.5828 -8.96465
568 1 11.0084 17.3009 14.1543 -8.94734
569 1 12.5847 15.7337 12.5845 -8.95314
570 1 14.154 17.3001 14.1536 -8.95
571 1 15.7258 15.7254 12.5791 -8.95117
572 1 17.2972 17.2972 14.1519 -8.95019
573 1 18.8695 15.7245 12.5793 -8.94969
574 1 20.4414 17.2968 14.1519 -8.94974
575 1 22.0137 18.8693 12.5794 -8.94955
576 1 1.57218 20.4417 14.1519 -8.94961
577 1 3.14401 18.8699 12.5797 -8.94934
578 1 4.71669 20.4423 14.1523 -8.94994
579 1 6.28844 18.8722 12.5805 -8.95129
580 1 7.86194 20.4424 14.1524 -8.94965
581 1 9.43487 18.8731 12.5801 -8.95313
582 1 11.0073 20.4425 14.1524 -8.94982
583 1 12.5799 18.8711 12.5796 -8.9517
584 1 14.1522 20.4421 14.152 -8.95027
585 1 15.7245 18.8695 12.5792 -8.94962
586 1 17.2968 20.4416 14.1518 -8.94968
587 1 18.8692 18.8692 12.5794 -8.9495
588 1 20.4415 20.4415 14.1518 -8.9496
589 1 1.57209 11.007 17.297 -8.94941
590 1 4.71667 11.007 17.2976 -8.94941
591 1 7.86146 11.007 17.3071 -8.96342
592 1 11.0069 11.007 17.2996 -8.94895
593 1 14.1538 11.007 17.2999 -8.94874
594 1 17.2975 11.007 17.2974 -8.9495
595 1 20.4416 11.007 17.2969 -8.9496
596 1 -0.000146046 12.5794 15.7245 -8.94968
597 1 1.57201 14.1519 17.2969 -8.94984
598 1 3.14372 12.5793 15.7247 -8.95076
599 1 4.71565 14.153 17.2984 -8.94775
600 1 6.28519 12.5835 15.7293 -8.98007
601 1 7.86189 14.1523 17.2993 -8.95242
602 1 9.43701 12.5817 15.728 -9.00215
603 1 11.0074 14.1534 17.3002 -8.95076
604 1 12.5833 12.5812 15.7332 -8.95743
605 1 14.1535 14.1533 17.2997 -8.95073
606 1 15.7271 12.5803 15.7268 -8.94828
607 1 17.2975 14.1522 17.2974 -8.94943
608 1 18.87 12.5795 15.7248 -8.94945
609 1 20.4416 14.1519 17.2968 -8.94961
610 1 22.0138 15.7244 15.7244 -8.94974
611 1 1.57216 17.2968 17.2969 -8.9497
612 1 3.1438 15.7247 15.725 -8.94979
613 1 4.71637 17.2977 17.2979 -8.94946
614 1 6.28698 15.7274 15.7283 -8.95056
615 1 7.86191 17.2975 17.2977 -8.94912
616 1 9.434 15.7269 15.7267 -8.94838
617 1 11.007 17.2975 17.2976 -8.94973
618 1 12.5814 15.7273 15.7279 -8.94731
619 1 14.1524 17.2976 17.2976 -8.9492
620 1 15.7274 15.7272 15.7271 -8.94533
621 1 17.2974 17.2974 17.2973 -8.94854
622 1 18.8699 15.7247 15.7247 -8.94971
623 1 20.4416 17.2968 17.2968 -8.94958
624 1 -0.000225559 18.8692 15.7244 -8.94958
625 1 1.57222 20.4416 17.2968 -8.94935
626 1 3.14399 18.8699 15.725 -8.94847
627 1 4.71709 20.4417 17.2969 -8.94967
628 1 6.28919 18.8702 15.7251 -8.94965
629 1 7.86206 20.4417 17.2969 -8.94955
630 1 9.4345 18.8702 15.725 -8.94933
631 1 11.007 20.4417 17.2969 -8.94958
632 1 12.5799 18.8703 15.7251 -8.9491
633 1 14.152 20.4417 17.2969 -8.9495
634 1 15.7249 18.87 15.7248 -8.94951
635 1 17.2968 20.4417 17.2968 -8.94955
636 1 18.8692 18.8692 15.7243 -8.94978
637 1 20.4415 20.4415 17.2967 -8.94964
638 1 1.57229 11.007 20.4415 -8.94962
639 1 4.71687 11.007 20.4418 -8.94931
640 1 7.86187 11.007 20.4433 -8.95218
641 1 11.0069 11.007 20.442 -8.94914
642 1 14.1524 11.007 20.4417 -8.95005
643 1 17.297 11.007 20.4415 -8.94955
644 1 20.4415 11.007 20.4415 -8.94963
645 1 22.0138 12.5794 18.8692 -8.9496
646 1 1.57229 14.1518 20.4415 -8.94966
647 1 3.14445 12.5794 18.8693 -8.94972
648 1 4.71676 14.1521 20.442 -8.94944
649 1 6.28847 12.5802 18.8712 -8.94892
650 1 7.86196 14.1521 20.4419 -8.95004
651 1 9.43506 12.5802 18.8712 -8.94798
652 1 11.0071 14.1524 20.442 -8.94999
653 1 12.5798 12.5796 18.871 -8.9516
654 1 14.1522 14.1522 20.4417 -8.95045
655 1 15.7249 12.5796 18.8699 -8.94937
656 1 17.297 14.1519 20.4415 -8.9495
657 1 18.8693 12.5794 18.8692 -8.94959
658 1 20.4415 14.1518 20.4415 -8.94962
659 1 -7.34285e-05 15.7243 18.8692 -8.94966
660 1 1.5723 17.2967 20.4416 -8.94954
661 1 3.14437 15.7246 18.8696 -8.94916
662 1 4.71706 17.2969 20.4416 -8.94993
663 1 6.28936 15.7247 18.8699 -8.95062
664 1 7.862 17.297 20.4416 -8.94953
665 1 9.43437 15.725 18.8699 -8.9495
666 1 11.007 17.297 20.4416 -8.94961
667 1 12.5797 15.7249 18.8701 -8.94957
668 1 14.1519 17.2969 20.4416 -8.94957
669 1 15.7249 15.7248 18.8698 -8.94976
670 1 17.2969 17.2969 20.4415 -8.94953
671 1 18.8693 15.7243 18.8692 -8.94963
672 1 20.4415 17.2967 20.4415 -8.94965
673 1 22.0139 18.8691 18.8691 -8.94962
674 1 1.57235 20.4416 20.4415 -8.94954
675 1 3.14459 18.8693 18.8693 -8.9495
676 1 4.71723 20.4415 20.4415 -8.94963
677 1 6.28961 18.8693 18.8693 -8.94956
351 1 -2.07216e-05 12.5794 22.0139 -8.94962
385 1 9.43451 18.8693 22.0138 -8.94959
355 1 6.28928 12.5795 22.014 -8.9497
357 1 9.4345 12.5795 22.0138 -8.94963
359 1 12.5795 12.5795 22.0128 -8.95134
367 1 3.14463 15.7243 22.0139 -8.94963
375 1 15.7247 15.7248 22.0133 -8.94988
383 1 6.28963 18.8692 22.0138 -8.94956
379 1 -1.33382e-05 18.8691 22.0139 -8.9496
363 1 18.8693 12.5794 22.0138 -8.9496
387 1 12.5794 18.8693 22.0138 -8.94958
526 1 1.57142 17.2973 11.0071 -8.94934
