ITEM: TIMESTEP
88
ITEM: NUMBER OF ATOMS
688
ITEM: BOX BOUNDS pp pp pp
0.0000000000000000e+00 2.2013900999999997e+01
0.0000000000000000e+00 2.2013900999999997e+01
0.0000000000000000e+00 2.2013900999999997e+01
ITEM: ATOMS id type x y z c_pot
1 1 22.0136 1.30786e-15 4.44327e-16 -8.94899
2 1 1.57173 1.57196 1.57192 -8.94902
3 1 3.14438 1.71549e-15 4.90571e-16 -8.94961
4 1 4.71672 1.5719 1.57184 -8.94953
5 1 6.2894 1.73896e-15 5.3655e-16 -8.94945
6 1 7.86186 1.57183 1.57186 -8.9494
7 1 9.43446 1.97236e-15 6.39787e-17 -8.94949
8 1 11.007 1.57178 1.57188 -8.94944
9 1 12.5795 1.8306e-15 1.49324e-16 -8.94947
10 1 14.1522 1.57175 1.57196 -8.94942
11 1 15.7246 1.47947e-15 -4.77111e-16 -8.94955
12 1 17.2974 1.57167 1.57195 -8.94946
13 1 18.8695 1.12423e-15 1.38933e-15 -8.94921
14 1 20.4417 1.57206 1.57221 -8.94926
15 1 22.0139 3.14448 1.57081e-15 -8.94958
16 1 1.57203 4.71698 1.57192 -8.94994
17 1 3.14396 3.14407 1.67612e-15 -8.94949
18 1 4.71584 4.71609 1.57084 -8.9501
19 1 6.28915 3.14402 1.7698e-15 -8.94934
20 1 7.86135 4.71588 1.57113 -8.94908
21 1 9.4343 3.14382 4.80162e-16 -8.94943
22 1 11.0068 4.7156 1.57116 -8.94928
23 1 12.5796 3.14375 1.35843e-15 -8.94932
24 1 14.1527 4.71532 1.57104 -8.9498
25 1 15.725 3.14363 5.01474e-17 -8.9497
26 1 17.2988 4.71515 1.5712 -8.94819
27 1 18.8701 3.14386 2.00907e-16 -8.94877
28 1 20.4422 4.71662 1.57202 -8.94948
29 1 22.0142 6.28945 1.7803e-15 -8.94944
30 1 1.57225 7.86206 1.57203 -8.94935
31 1 3.14446 6.28978 1.91042e-15 -8.94989
32 1 4.71684 7.86261 1.57191 -8.9497
33 1 6.28884 6.28924 1.54324e-15 -8.9515
34 1 7.86163 7.86209 1.57083 -8.95265
35 1 9.43376 6.28838 1.24231e-15 -8.94969
36 1 11.0063 7.86087 1.56999 -8.95113
37 1 12.5795 6.2882 7.57718e-16 -8.94992
38 1 14.1542 7.85985 1.56874 -8.95221
39 1 15.7263 6.28756 1.53144e-15 -8.95022
40 1 17.2991 7.86081 1.57106 -8.94892
41 1 18.8704 6.28881 1.70592e-15 -8.94932
42 1 20.4424 7.8617 1.57195 -8.94938
43 1 22.0142 9.43443 1.59982e-15 -8.94951
44 1 3.1444 9.43457 1.77196e-15 -8.94951
45 1 6.28934 9.435 1.57791e-15 -8.94915
46 1 9.43408 9.43482 8.7262e-16 -8.94834
47 1 12.5797 9.43425 2.33362e-15 -8.95332
48 1 15.7267 9.43364 2.1113e-15 -8.9491
49 1 18.8706 9.43419 1.49262e-15 -8.94935
50 1 -0.000426816 1.4312e-15 3.14444 -8.94922
51 1 1.57125 1.57176 4.71628 -8.94898
52 1 3.14395 1.59062e-15 3.14389 -8.94956
53 1 4.71593 1.57099 4.71564 -8.95004
54 1 6.28929 1.7615e-15 3.14393 -8.94943
55 1 7.86179 1.57109 4.71587 -8.94944
56 1 9.43453 1.72745e-15 3.14395 -8.94947
57 1 11.0073 1.57112 4.71598 -8.94945
58 1 12.5797 1.82472e-15 3.14406 -8.94942
59 1 14.1526 1.571 4.71637 -8.95052
60 1 15.7249 1.60081e-15 3.14424 -8.94998
61 1 17.2975 1.57157 4.71672 -8.94949
62 1 18.8695 4.19841e-16 3.14451 -8.94945
63 1 20.4414 1.57201 4.71692 -8.9495
64 1 22.0135 3.14426 3.14419 -8.94955
65 1 1.57055 4.71617 4.71574 -8.94999
66 1 3.143 3.14327 3.14292 -8.94815
67 1 4.71192 4.71239 4.71144 -8.94456
68 1 6.28874 3.14325 3.14313 -8.94935
69 1 7.86036 4.71312 4.71339 -8.94803
70 1 9.43432 3.14313 3.1433 -8.94929
71 1 11.0074 4.71317 4.71359 -8.94751
72 1 12.5799 3.143 3.14343 -8.94903
73 1 14.1556 4.71126 4.71288 -8.94959
74 1 15.7259 3.14249 3.14327 -8.94939
75 1 17.2993 4.71468 4.71561 -8.94888
76 1 18.87 3.14381 3.14426 -8.94936
77 1 20.4419 4.71643 4.71663 -8.94987
78 1 22.0141 6.28936 3.14423 -8.94972
79 1 1.57175 7.86222 4.7164 -8.94962
80 1 3.14374 6.28954 3.14358 -8.95047
81 1 4.71527 7.86274 4.71548 -8.9515
82 1 6.28691 6.28741 3.14006 -8.95164
83 1 7.85756 7.8574 4.70765 -8.95823
84 1 9.4335 6.28682 3.14108 -8.948
85 1 11.0072 7.85697 4.70686 -8.95325
86 1 12.5806 6.28641 3.14025 -8.94988
87 1 14.1659 7.8492 4.7016 -8.93362
88 1 15.7294 6.28458 3.13975 -8.94521
89 1 17.3024 7.85927 4.714 -8.95007
90 1 18.8713 6.28826 3.14357 -8.9495
91 1 20.443 7.86153 4.71637 -8.94994
92 1 0.00036002 9.43439 3.1441 -8.94948
93 1 3.14416 9.43467 3.14391 -8.94895
94 1 6.28973 9.43584 3.14484 -8.94927
95 1 9.43498 9.43476 3.14479 -8.94823
96 1 12.5828 9.43299 3.13502 -8.95997
97 1 15.7294 9.43267 3.13989 -8.94744
98 1 18.8715 9.43397 3.14341 -8.94922
99 1 22.0133 1.62577e-15 6.28927 -8.94946
100 1 1.57098 1.5716 7.86145 -8.94933
101 1 3.14332 1.30952e-15 6.28848 -8.9493
102 1 4.71498 1.57005 7.86051 -8.94974
103 1 6.28897 1.28418e-15 6.28849 -8.9505
104 1 7.86176 1.56992 7.86114 -8.95121
105 1 9.43476 1.83562e-15 6.28859 -8.95009
106 1 11.0074 1.57084 7.86141 -8.94963
107 1 12.5799 1.50989e-15 6.28906 -8.95023
108 1 14.1528 1.57091 7.86172 -8.95052
109 1 15.7251 1.20054e-15 6.28928 -8.94996
110 1 17.2973 1.57181 7.86207 -8.94957
111 1 18.8693 9.64234e-16 6.28954 -8.94961
112 1 20.4413 1.57199 7.86192 -8.94946
113 1 -0.00102216 3.14395 6.28896 -8.94938
114 1 1.56902 4.71526 7.86058 -8.94935
115 1 3.14177 3.14222 6.28725 -8.94754
116 1 4.70868 4.70919 7.85604 -8.94127
117 1 6.28723 3.14013 6.28677 -8.9516
118 1 7.85808 4.70623 7.85847 -8.95822
119 1 9.43447 3.14095 6.28738 -8.94998
120 1 11.0069 4.71162 7.85932 -8.95129
121 1 12.5803 3.14117 6.28819 -8.95188
122 1 14.156 4.71101 7.85911 -8.94801
123 1 15.7261 3.14215 6.28852 -8.94915
124 1 17.2985 4.71548 7.8618 -8.9498
125 1 18.8697 3.1439 6.28938 -8.94967
126 1 20.4412 4.71632 7.86177 -8.94978
127 1 22.013 6.28911 6.28894 -8.95047
128 1 1.5694 7.862 7.86139 -8.95193
129 1 3.13968 6.28757 6.28667 -8.95172
130 1 4.70553 7.85888 7.8587 -8.96038
131 1 6.27436 6.27522 6.27382 -8.93099
132 1 7.81674 7.82068 7.82226 -8.85724
133 1 9.43269 6.27924 6.28194 -8.94681
134 1 11.0245 7.84405 7.82925 -8.89512
135 1 12.5876 6.27648 6.27846 -8.95105
136 1 14.1683 7.84934 7.85048 -8.93619
137 1 15.7311 6.28376 6.28521 -8.94649
138 1 17.3017 7.86026 7.86131 -8.95221
139 1 18.8713 6.28832 6.28895 -8.95025
140 1 20.4421 7.86173 7.86191 -8.95055
141 1 22.0141 9.43453 6.28892 -8.94975
142 1 3.14342 9.4355 6.28862 -8.949
143 1 6.28836 9.43864 6.29037 -8.9507
144 1 9.42693 9.41625 6.29159 -8.91724
145 1 12.6195 9.40379 6.2464 -8.88449
146 1 15.7376 9.43068 6.28226 -8.95426
147 1 18.873 9.43387 6.28839 -8.95111
148 1 -0.000708417 1.52987e-15 9.43436 -8.94947
149 1 3.14311 8.76089e-16 9.43405 -8.94929
150 1 6.28838 1.72951e-15 9.43392 -8.95142
151 1 9.43495 1.67661e-15 9.43406 -8.94902
152 1 12.58 7.48377e-16 9.43447 -8.95029
153 1 15.725 1.11563e-15 9.43456 -8.94946
154 1 18.8693 9.19857e-16 9.43448 -8.94949
155 1 22.0127 3.14382 9.43425 -8.94937
156 1 3.14144 3.14194 9.43356 -8.94895
157 1 6.28519 3.13707 9.43266 -8.95147
158 1 9.43457 3.1412 9.43347 -8.94709
159 1 12.5804 3.14169 9.434 -8.95187
160 1 15.7254 3.14335 9.43464 -8.94937
161 1 18.8695 3.14396 9.43448 -8.94938
162 1 22.0117 6.28868 9.43415 -8.95061
163 1 3.13575 6.28518 9.43232 -8.95029
164 1 6.26504 6.26586 9.42126 -8.91771
165 1 9.42983 6.28389 9.43162 -9.00918
166 1 12.5872 6.27776 9.42544 -8.9449
167 1 15.7281 6.28691 9.43437 -8.94897
168 1 18.8702 6.28858 9.4346 -8.94978
169 1 22.0131 9.43483 9.43434 -8.94942
170 1 3.14172 9.43587 9.4341 -8.95004
171 1 6.28302 9.42946 9.43552 -8.96859
172 1 9.35944 9.15371 9.44546 -8.05839
173 1 12.5945 9.40815 9.38517 -8.83315
174 1 15.7283 9.43431 9.43224 -8.95252
175 1 18.8705 9.43446 9.43467 -8.94967
176 1 1.57091 1.57157 11.007 -8.94935
177 1 4.71475 1.56993 11.007 -8.94921
178 1 7.86163 1.56905 11.007 -8.95342
179 1 11.0072 1.57114 11.007 -8.94959
180 1 14.1527 1.57157 11.007 -8.94903
181 1 17.2973 1.57184 11.007 -8.94946
182 1 20.4413 1.57197 11.007 -8.9495
183 1 1.56878 4.71511 11.007 -8.94903
184 1 4.70876 4.70928 11.007 -8.9454
185 1 7.85548 4.69993 11.007 -8.96653
186 1 11.0071 4.71251 11.007 -8.9549
187 1 14.1536 4.71524 11.007 -8.947
188 1 17.2981 4.71573 11.007 -8.94863
189 1 20.4411 4.7162 11.007 -8.94956
190 1 1.56732 7.86159 11.007 -8.95425
191 1 4.69602 7.8548 11.007 -8.96693
192 1 7.77408 7.78673 11.007 -8.73469
193 1 11.0571 7.83926 11.007 -8.83064
194 1 14.1591 7.86244 11.007 -8.967
195 1 17.299 7.86143 11.007 -8.95075
196 1 20.4412 7.86172 11.007 -8.95039
197 1 -0.000708417 1.45745e-15 12.5795 -8.94947
198 1 1.57098 1.5716 14.1525 -8.94933
199 1 3.14311 1.21984e-15 12.5798 -8.94929
200 1 4.71498 1.57005 14.1534 -8.94974
201 1 6.28838 1.71233e-15 12.58 -8.95142
202 1 7.86176 1.56992 14.1528 -8.95121
203 1 9.43495 9.7953e-16 12.5798 -8.94902
204 1 11.0074 1.57084 14.1525 -8.94963
205 1 12.58 1.16006e-15 12.5794 -8.95029
206 1 14.1528 1.57091 14.1522 -8.95052
207 1 15.725 1.55356e-15 12.5793 -8.94946
208 1 17.2973 1.57181 14.1518 -8.94957
209 1 18.8693 1.74926e-15 12.5794 -8.94949
210 1 20.4413 1.57199 14.152 -8.94946
211 1 22.0127 3.14382 12.5797 -8.94937
212 1 1.56902 4.71526 14.1533 -8.94935
213 1 3.14144 3.14194 12.5803 -8.94895
214 1 4.70868 4.70919 14.1579 -8.94127
215 1 6.28519 3.13707 12.5812 -8.95147
216 1 7.85808 4.70623 14.1554 -8.95822
217 1 9.43457 3.1412 12.5804 -8.94709
218 1 11.0069 4.71162 14.1546 -8.95129
219 1 12.5804 3.14169 12.5799 -8.95187
220 1 14.156 4.71101 14.1548 -8.94801
221 1 15.7254 3.14335 12.5793 -8.94937
222 1 17.2985 4.71548 14.1521 -8.9498
223 1 18.8695 3.14396 12.5794 -8.94938
224 1 20.4412 4.71632 14.1521 -8.94978
225 1 22.0117 6.28868 12.5797 -8.95061
226 1 1.5694 7.862 14.1525 -8.95193
227 1 3.13575 6.28518 12.5816 -8.95029
228 1 4.70553 7.85888 14.1552 -8.96038
229 1 6.26504 6.26586 12.5926 -8.91771
230 1 7.81674 7.82068 14.1916 -8.85724
231 1 9.42983 6.28389 12.5823 -9.00918
232 1 11.0245 7.84405 14.1847 -8.89512
233 1 12.5872 6.27776 12.5885 -8.9449
234 1 14.1683 7.84934 14.1634 -8.93619
235 1 15.7281 6.28691 12.5795 -8.94897
236 1 17.3017 7.86026 14.1526 -8.95221
237 1 18.8702 6.28858 12.5793 -8.94978
238 1 20.4421 7.86173 14.152 -8.95055
239 1 22.0131 9.43483 12.5796 -8.94942
240 1 3.14172 9.43587 12.5798 -8.95004
241 1 6.28302 9.42946 12.5784 -8.96859
242 1 9.35944 9.15371 12.5684 -8.05839
243 1 12.5945 9.40815 12.6287 -8.83315
244 1 15.7283 9.43431 12.5817 -8.95252
245 1 18.8705 9.43446 12.5792 -8.94967
246 1 22.0133 1.49034e-15 15.7246 -8.94946
247 1 1.57125 1.57176 17.2976 -8.94898
248 1 3.14332 1.53214e-15 15.7254 -8.9493
249 1 4.71593 1.57099 17.2983 -8.95004
250 1 6.28897 1.59084e-15 15.7254 -8.9505
251 1 7.86179 1.57109 17.298 -8.94944
252 1 9.43476 1.72135e-15 15.7253 -8.95009
253 1 11.0073 1.57112 17.2979 -8.94945
254 1 12.5799 1.09041e-15 15.7248 -8.95023
255 1 14.1526 1.571 17.2975 -8.95052
256 1 15.7251 1.07666e-15 15.7246 -8.94996
257 1 17.2975 1.57157 17.2972 -8.94949
258 1 18.8693 1.79942e-15 15.7244 -8.94961
259 1 20.4414 1.57201 17.297 -8.9495
260 1 -0.00102216 3.14395 15.7249 -8.94938
261 1 1.57055 4.71617 17.2982 -8.94999
262 1 3.14177 3.14222 15.7266 -8.94754
263 1 4.71192 4.71239 17.3025 -8.94456
264 1 6.28723 3.14013 15.7271 -8.9516
265 1 7.86036 4.71312 17.3005 -8.94803
266 1 9.43447 3.14095 15.7265 -8.94998
267 1 11.0074 4.71317 17.3003 -8.94751
268 1 12.5803 3.14117 15.7257 -8.95188
269 1 14.1556 4.71126 17.301 -8.94959
270 1 15.7261 3.14215 15.7254 -8.94915
271 1 17.2993 4.71468 17.2983 -8.94888
272 1 18.8697 3.1439 15.7245 -8.94967
273 1 20.4419 4.71643 17.2973 -8.94987
274 1 22.013 6.28911 15.725 -8.95047
275 1 1.57175 7.86222 17.2975 -8.94962
276 1 3.13968 6.28757 15.7272 -8.95172
277 1 4.71527 7.86274 17.2984 -8.9515
278 1 6.27436 6.27522 15.7401 -8.93099
279 1 7.85756 7.8574 17.3063 -8.95823
280 1 9.43269 6.27924 15.732 -8.94681
281 1 11.0072 7.85697 17.307 -8.95325
282 1 12.5876 6.27648 15.7354 -8.95105
283 1 14.1659 7.8492 17.3123 -8.93362
284 1 15.7311 6.28376 15.7287 -8.94649
285 1 17.3024 7.85927 17.2999 -8.95007
286 1 18.8713 6.28832 15.7249 -8.95025
287 1 20.443 7.86153 17.2975 -8.94994
288 1 22.0141 9.43453 15.725 -8.94975
289 1 3.14342 9.4355 15.7253 -8.949
290 1 6.28836 9.43864 15.7235 -8.9507
291 1 9.42693 9.41625 15.7223 -8.91724
292 1 12.6195 9.40379 15.7675 -8.88449
293 1 15.7376 9.43068 15.7316 -8.95426
294 1 18.873 9.43387 15.7255 -8.95111
295 1 -0.000426816 1.63923e-15 18.8695 -8.94922
296 1 1.57173 1.57196 20.442 -8.94902
297 1 3.14395 1.77213e-15 18.87 -8.94956
298 1 4.71672 1.5719 20.4421 -8.94953
299 1 6.28929 1.82227e-15 18.87 -8.94943
300 1 7.86186 1.57183 20.442 -8.9494
301 1 9.43453 1.85699e-15 18.87 -8.94947
302 1 11.007 1.57178 20.442 -8.94944
303 1 12.5797 1.72089e-15 18.8698 -8.94942
304 1 14.1522 1.57175 20.4419 -8.94942
305 1 15.7249 1.21562e-15 18.8697 -8.94998
306 1 17.2974 1.57167 20.4419 -8.94946
307 1 18.8695 5.04035e-16 18.8694 -8.94945
308 1 20.4417 1.57206 20.4417 -8.94926
309 1 22.0135 3.14426 18.8697 -8.94955
310 1 1.57203 4.71698 20.442 -8.94994
311 1 3.143 3.14327 18.871 -8.94815
312 1 4.71584 4.71609 20.4431 -8.9501
313 1 6.28874 3.14325 18.8708 -8.94935
314 1 7.86135 4.71588 20.4428 -8.94908
315 1 9.43432 3.14313 18.8706 -8.94929
316 1 11.0068 4.7156 20.4427 -8.94928
317 1 12.5799 3.143 18.8705 -8.94903
318 1 14.1527 4.71532 20.4429 -8.9498
319 1 15.7259 3.14249 18.8706 -8.94939
320 1 17.2988 4.71515 20.4427 -8.94819
321 1 18.87 3.14381 18.8696 -8.94936
322 1 20.4422 4.71662 20.4419 -8.94948
323 1 22.0141 6.28936 18.8697 -8.94972
324 1 1.57225 7.86206 20.4419 -8.94935
325 1 3.14374 6.28954 18.8703 -8.95047
326 1 4.71684 7.86261 20.442 -8.9497
327 1 6.28691 6.28741 18.8738 -8.95164
328 1 7.86163 7.86209 20.4431 -8.95265
329 1 9.4335 6.28682 18.8728 -8.948
330 1 11.0063 7.86087 20.4439 -8.95113
331 1 12.5806 6.28641 18.8737 -8.94988
332 1 14.1542 7.85985 20.4452 -8.95221
333 1 15.7294 6.28458 18.8742 -8.94521
334 1 17.2991 7.86081 20.4428 -8.94892
335 1 18.8713 6.28826 18.8703 -8.9495
336 1 20.4424 7.8617 20.442 -8.94938
337 1 0.00036002 9.43439 18.8698 -8.94948
338 1 3.14416 9.43467 18.87 -8.94895
339 1 6.28973 9.43584 18.8691 -8.94927
340 1 9.43498 9.43476 18.8691 -8.94823
341 1 12.5828 9.43299 18.8789 -8.95997
342 1 15.7294 9.43267 18.874 -8.94744
343 1 18.8715 9.43397 18.8705 -8.94922
344 1 1.57223 11.007 1.57198 -8.94954
345 1 4.71669 11.007 1.57193 -8.9497
346 1 7.86202 11.007 1.5732 -8.94706
347 1 11.0066 11.007 1.57162 -8.94655
348 1 14.1551 11.007 1.56857 -8.95005
349 1 17.2992 11.007 1.57103 -8.94924
350 1 20.4425 11.007 1.57191 -8.94945
351 1 22.0142 12.5795 1.55259e-15 -8.94951
352 1 1.57225 14.1518 1.57203 -8.94935
353 1 3.1444 12.5793 1.79855e-15 -8.94951
354 1 4.71684 14.1513 1.57191 -8.9497
355 1 6.28934 12.5789 1.67876e-15 -8.94915
356 1 7.86163 14.1518 1.57083 -8.95265
357 1 9.43408 12.5791 7.83701e-16 -8.94834
358 1 11.0063 14.153 1.56999 -8.95113
359 1 12.5797 12.5796 2.36814e-15 -8.95332
360 1 14.1542 14.1541 1.56874 -8.95221
361 1 15.7267 12.5803 2.11814e-15 -8.9491
362 1 17.2991 14.1531 1.57106 -8.94892
363 1 18.8706 12.5797 1.53243e-15 -8.94935
364 1 20.4424 14.1522 1.57195 -8.94938
365 1 22.0142 15.7244 1.88313e-15 -8.94944
366 1 1.57203 17.2969 1.57192 -8.94994
367 1 3.14446 15.7241 1.8001e-15 -8.94989
368 1 4.71584 17.2978 1.57084 -8.9501
369 1 6.28884 15.7247 1.79433e-15 -8.9515
370 1 7.86135 17.298 1.57113 -8.94908
371 1 9.43376 15.7255 1.06053e-15 -8.94969
372 1 11.0068 17.2983 1.57116 -8.94928
373 1 12.5795 15.7257 7.91887e-16 -8.94992
374 1 14.1527 17.2986 1.57104 -8.9498
375 1 15.7263 15.7263 1.79572e-15 -8.95022
376 1 17.2988 17.2988 1.5712 -8.94819
377 1 18.8704 15.7251 1.86239e-15 -8.94932
378 1 20.4422 17.2973 1.57202 -8.94948
379 1 22.0139 18.8694 6.68632e-16 -8.94958
380 1 1.57173 20.4419 1.57192 -8.94902
381 1 3.14396 18.8698 1.81541e-15 -8.94949
382 1 4.71672 20.442 1.57184 -8.94953
383 1 6.28915 18.8699 1.78948e-15 -8.94934
384 1 7.86186 20.4421 1.57186 -8.9494
385 1 9.4343 18.8701 2.30137e-17 -8.94943
386 1 11.007 20.4421 1.57188 -8.94944
387 1 12.5796 18.8701 1.61809e-15 -8.94932
388 1 14.1522 20.4422 1.57196 -8.94942
389 1 15.725 18.8703 1.48122e-15 -8.9497
390 1 17.2974 20.4422 1.57195 -8.94946
391 1 18.8701 18.87 9.06333e-16 -8.94877
392 1 20.4417 20.4418 1.57221 -8.94926
393 1 1.5719 11.007 4.71611 -8.94943
394 1 4.71619 11.007 4.71573 -8.94621
395 1 7.86647 11.007 4.72386 -8.94358
396 1 11.0123 11.007 4.7182 -8.99224
397 1 14.1647 11.007 4.70358 -8.94191
398 1 17.3026 11.007 4.71365 -8.94902
399 1 20.4432 11.007 4.71618 -8.94983
400 1 0.00036002 12.5795 3.1441 -8.94948
401 1 1.57175 14.1517 4.7164 -8.94962
402 1 3.14416 12.5792 3.14391 -8.94895
403 1 4.71527 14.1512 4.71548 -8.9515
404 1 6.28973 12.5781 3.14484 -8.94927
405 1 7.85756 14.1565 4.70765 -8.95823
406 1 9.43498 12.5791 3.14479 -8.94823
407 1 11.0072 14.1569 4.70686 -8.95325
408 1 12.5828 12.5809 3.13502 -8.95997
409 1 14.1659 14.1647 4.7016 -8.93362
410 1 15.7294 12.5812 3.13989 -8.94744
411 1 17.3024 14.1546 4.714 -8.95007
412 1 18.8715 12.5799 3.14341 -8.94922
413 1 20.443 14.1524 4.71637 -8.94994
414 1 22.0141 15.7245 3.14423 -8.94972
415 1 1.57055 17.2977 4.71574 -8.94999
416 1 3.14374 15.7244 3.14358 -8.95047
417 1 4.71192 17.3015 4.71144 -8.94456
418 1 6.28691 15.7265 3.14006 -8.95164
419 1 7.86036 17.3008 4.71339 -8.94803
420 1 9.4335 15.7271 3.14108 -8.948
421 1 11.0074 17.3007 4.71359 -8.94751
422 1 12.5806 15.7275 3.14025 -8.94988
423 1 14.1556 17.3026 4.71288 -8.94959
424 1 15.7294 15.7293 3.13975 -8.94521
425 1 17.2993 17.2992 4.71561 -8.94888
426 1 18.8713 15.7256 3.14357 -8.9495
427 1 20.4419 17.2975 4.71663 -8.94987
428 1 22.0135 18.8696 3.14419 -8.94955
429 1 1.57125 20.4421 4.71628 -8.94898
430 1 3.143 18.8706 3.14292 -8.94815
431 1 4.71593 20.4429 4.71564 -8.95004
432 1 6.28874 18.8707 3.14313 -8.94935
433 1 7.86179 20.4428 4.71587 -8.94944
434 1 9.43432 18.8708 3.1433 -8.94929
435 1 11.0073 20.4428 4.71598 -8.94945
436 1 12.5799 18.8709 3.14343 -8.94903
437 1 14.1526 20.4429 4.71637 -8.95052
438 1 15.7259 18.8714 3.14327 -8.94939
439 1 17.2975 20.4423 4.71672 -8.94949
440 1 18.87 18.8701 3.14426 -8.94936
441 1 20.4414 20.4419 4.71692 -8.9495
442 1 1.57178 11.007 7.86116 -8.94736
443 1 4.71996 11.007 7.86246 -8.93771
444 1 7.88897 11.007 7.8845 -8.84055
445 1 11.1017 11.007 7.67672 -8.23129
446 1 14.1724 11.007 7.84517 -8.965
447 1 17.3032 11.007 7.86026 -8.95196
448 1 20.4429 11.007 7.8617 -8.95
449 1 22.0141 12.5794 6.28892 -8.94975
450 1 1.5694 14.1519 7.86139 -8.95193
451 1 3.14342 12.5784 6.28862 -8.949
452 1 4.70553 14.155 7.8587 -8.96038
453 1 6.28836 12.5753 6.29037 -8.9507
454 1 7.81674 14.1932 7.82226 -8.85724
455 1 9.42693 12.5977 6.29159 -8.91724
456 1 11.0245 14.1699 7.82925 -8.89512
457 1 12.6195 12.6101 6.2464 -8.88449
458 1 14.1683 14.1646 7.85048 -8.93619
459 1 15.7376 12.5832 6.28226 -8.95426
460 1 17.3017 14.1536 7.86131 -8.95221
461 1 18.873 12.58 6.28839 -8.95111
462 1 20.4421 14.1522 7.86191 -8.95055
463 1 22.013 15.7248 6.28894 -8.95047
464 1 1.56902 17.2986 7.86058 -8.94935
465 1 3.13968 15.7263 6.28667 -8.95172
466 1 4.70868 17.3047 7.85604 -8.94127
467 1 6.27436 15.7387 6.27382 -8.93099
468 1 7.85808 17.3077 7.85847 -8.95822
469 1 9.43269 15.7347 6.28194 -8.94681
470 1 11.0069 17.3023 7.85932 -8.95129
471 1 12.5876 15.7374 6.27846 -8.95105
472 1 14.156 17.3029 7.85911 -8.94801
473 1 15.7311 15.7301 6.28521 -8.94649
474 1 17.2985 17.2984 7.8618 -8.9498
475 1 18.8713 15.7256 6.28895 -8.95025
476 1 20.4412 17.2976 7.86177 -8.94978
477 1 -0.00102216 18.87 6.28896 -8.94938
478 1 1.57098 20.4423 7.86145 -8.94933
479 1 3.14177 18.8717 6.28725 -8.94754
480 1 4.71498 20.4439 7.86051 -8.94974
481 1 6.28723 18.8738 6.28677 -8.9516
482 1 7.86176 20.444 7.86114 -8.95121
483 1 9.43447 18.8729 6.28738 -8.94998
484 1 11.0074 20.4431 7.86141 -8.94963
485 1 12.5803 18.8727 6.28819 -8.95188
486 1 14.1528 20.443 7.86172 -8.95052
487 1 15.7261 18.8718 6.28852 -8.94915
488 1 17.2973 20.4421 7.86207 -8.94957
489 1 18.8697 18.87 6.28938 -8.94967
490 1 20.4413 20.4419 7.86192 -8.94946
491 1 22.0131 12.5791 9.43434 -8.94942
492 1 3.14172 12.578 9.4341 -8.95004
493 1 6.28302 12.5844 9.43552 -8.96859
494 1 9.35944 12.8602 9.44546 -8.05839
495 1 12.5945 12.6058 9.38517 -8.83315
496 1 15.7283 12.5796 9.43224 -8.95252
497 1 18.8705 12.5794 9.43467 -8.94967
498 1 22.0117 15.7252 9.43415 -8.95061
499 1 3.13575 15.7287 9.43232 -8.95029
500 1 6.26504 15.748 9.42126 -8.91771
501 1 9.42983 15.73 9.43162 -9.00918
502 1 12.5872 15.7361 9.42544 -8.9449
503 1 15.7281 15.727 9.43437 -8.94897
504 1 18.8702 15.7253 9.4346 -8.94978
505 1 22.0127 18.8701 9.43425 -8.94937
506 1 3.14144 18.872 9.43356 -8.94895
507 1 6.28519 18.8768 9.43266 -8.95147
508 1 9.43457 18.8727 9.43347 -8.94709
509 1 12.5804 18.8722 9.434 -8.95187
510 1 15.7254 18.8706 9.43464 -8.94937
511 1 18.8695 18.8699 9.43448 -8.94938
688 3 10.0819 11.007 9.39709 2.36026
512 1 1.5719 11.007 11.007 -8.94518
513 1 4.72424 11.007 11.007 -8.93323
514 1 7.90256 11.007 11.007 -8.72186
515 1 11.2693 11.007 11.007 -7.40254
516 1 14.1393 11.007 11.007 -9.01436
517 1 17.2957 11.007 11.007 -8.94495
518 1 20.4414 11.007 11.007 -8.94781
519 1 1.56732 14.1523 11.007 -8.95425
520 1 4.69602 14.1591 11.007 -8.96693
521 1 7.77408 14.2272 11.007 -8.73469
522 1 11.0571 14.1746 11.007 -8.83064
523 1 14.1591 14.1515 11.007 -8.967
524 1 17.299 14.1525 11.007 -8.95075
525 1 20.4412 14.1522 11.007 -8.95039
526 1 1.56878 17.2988 11.007 -8.94903
527 1 4.70876 17.3046 11.007 -8.9454
528 1 7.85548 17.314 11.007 -8.96653
529 1 11.0071 17.3014 11.007 -8.9549
530 1 14.1536 17.2987 11.007 -8.947
531 1 17.2981 17.2982 11.007 -8.94863
532 1 20.4411 17.2977 11.007 -8.94956
533 1 1.57091 20.4423 11.007 -8.94935
534 1 4.71475 20.444 11.007 -8.94921
535 1 7.86163 20.4448 11.007 -8.95342
536 1 11.0072 20.4428 11.007 -8.94959
537 1 14.1527 20.4423 11.007 -8.94903
538 1 17.2973 20.4421 11.007 -8.94946
539 1 20.4413 20.4419 11.007 -8.9495
540 1 1.57178 11.007 14.1527 -8.94736
541 1 4.71996 11.007 14.1514 -8.93771
542 1 7.88897 11.007 14.1294 -8.84055
543 1 11.1017 11.007 14.3372 -8.23129
544 1 14.1724 11.007 14.1687 -8.965
545 1 17.3032 11.007 14.1536 -8.95196
546 1 20.4429 11.007 14.1522 -8.95
547 1 22.0131 12.5791 12.5796 -8.94942
548 1 1.5694 14.1519 14.1525 -8.95193
549 1 3.14172 12.578 12.5798 -8.95004
550 1 4.70553 14.155 14.1552 -8.96038
551 1 6.28302 12.5844 12.5784 -8.96859
552 1 7.81674 14.1932 14.1916 -8.85724
553 1 9.35944 12.8602 12.5684 -8.05839
554 1 11.0245 14.1699 14.1847 -8.89512
555 1 12.5945 12.6058 12.6287 -8.83315
556 1 14.1683 14.1646 14.1634 -8.93619
557 1 15.7283 12.5796 12.5817 -8.95252
558 1 17.3017 14.1536 14.1526 -8.95221
559 1 18.8705 12.5794 12.5792 -8.94967
560 1 20.4421 14.1522 14.152 -8.95055
561 1 22.0117 15.7252 12.5797 -8.95061
562 1 1.56902 17.2986 14.1533 -8.94935
563 1 3.13575 15.7287 12.5816 -8.95029
564 1 4.70868 17.3047 14.1579 -8.94127
565 1 6.26504 15.748 12.5926 -8.91771
566 1 7.85808 17.3077 14.1554 -8.95822
567 1 9.42983 15.73 12.5823 -9.00918
568 1 11.0069 17.3023 14.1546 -8.95129
569 1 12.5872 15.7361 12.5885 -8.9449
570 1 14.156 17.3029 14.1548 -8.94801
571 1 15.7281 15.727 12.5795 -8.94897
572 1 17.2985 17.2984 14.1521 -8.9498
573 1 18.8702 15.7253 12.5793 -8.94978
574 1 20.4412 17.2976 14.1521 -8.94978
575 1 22.0127 18.8701 12.5797 -8.94937
576 1 1.57098 20.4423 14.1525 -8.94933
577 1 3.14144 18.872 12.5803 -8.94895
578 1 4.71498 20.4439 14.1534 -8.94974
579 1 6.28519 18.8768 12.5812 -8.95147
580 1 7.86176 20.444 14.1528 -8.95121
581 1 9.43457 18.8727 12.5804 -8.94709
582 1 11.0074 20.4431 14.1525 -8.94963
583 1 12.5804 18.8722 12.5799 -8.95187
584 1 14.1528 20.443 14.1522 -8.95052
585 1 15.7254 18.8706 12.5793 -8.94937
586 1 17.2973 20.4421 14.1518 -8.94957
587 1 18.8695 18.8699 12.5794 -8.94938
588 1 20.4413 20.4419 14.152 -8.94946
589 1 1.5719 11.007 17.2978 -8.94943
590 1 4.71619 11.007 17.2982 -8.94621
591 1 7.86647 11.007 17.29 -8.94358
592 1 11.0123 11.007 17.2957 -8.99224
593 1 14.1647 11.007 17.3103 -8.94191
594 1 17.3026 11.007 17.3003 -8.94902
595 1 20.4432 11.007 17.2977 -8.94983
596 1 22.0141 12.5794 15.725 -8.94975
597 1 1.57175 14.1517 17.2975 -8.94962
598 1 3.14342 12.5784 15.7253 -8.949
599 1 4.71527 14.1512 17.2984 -8.9515
600 1 6.28836 12.5753 15.7235 -8.9507
601 1 7.85756 14.1565 17.3063 -8.95823
602 1 9.42693 12.5977 15.7223 -8.91724
603 1 11.0072 14.1569 17.307 -8.95325
604 1 12.6195 12.6101 15.7675 -8.88449
605 1 14.1659 14.1647 17.3123 -8.93362
606 1 15.7376 12.5832 15.7316 -8.95426
607 1 17.3024 14.1546 17.2999 -8.95007
608 1 18.873 12.58 15.7255 -8.95111
609 1 20.443 14.1524 17.2975 -8.94994
610 1 22.013 15.7248 15.725 -8.95047
611 1 1.57055 17.2977 17.2982 -8.94999
612 1 3.13968 15.7263 15.7272 -8.95172
613 1 4.71192 17.3015 17.3025 -8.94456
614 1 6.27436 15.7387 15.7401 -8.93099
615 1 7.86036 17.3008 17.3005 -8.94803
616 1 9.43269 15.7347 15.732 -8.94681
617 1 11.0074 17.3007 17.3003 -8.94751
618 1 12.5876 15.7374 15.7354 -8.95105
619 1 14.1556 17.3026 17.301 -8.94959
620 1 15.7311 15.7301 15.7287 -8.94649
621 1 17.2993 17.2992 17.2983 -8.94888
622 1 18.8713 15.7256 15.7249 -8.95025
623 1 20.4419 17.2975 17.2973 -8.94987
624 1 -0.00102216 18.87 15.7249 -8.94938
625 1 1.57125 20.4421 17.2976 -8.94898
626 1 3.14177 18.8717 15.7266 -8.94754
627 1 4.71593 20.4429 17.2983 -8.95004
628 1 6.28723 18.8738 15.7271 -8.9516
629 1 7.86179 20.4428 17.298 -8.94944
630 1 9.43447 18.8729 15.7265 -8.94998
631 1 11.0073 20.4428 17.2979 -8.94945
632 1 12.5803 18.8727 15.7257 -8.95188
633 1 14.1526 20.4429 17.2975 -8.95052
634 1 15.7261 18.8718 15.7254 -8.94915
635 1 17.2975 20.4423 17.2972 -8.94949
636 1 18.8697 18.87 15.7245 -8.94967
637 1 20.4414 20.4419 17.297 -8.9495
638 1 1.57223 11.007 20.4419 -8.94954
639 1 4.71669 11.007 20.442 -8.9497
640 1 7.86202 11.007 20.4407 -8.94706
641 1 11.0066 11.007 20.4423 -8.94655
642 1 14.1551 11.007 20.4453 -8.95005
643 1 17.2992 11.007 20.4429 -8.94924
644 1 20.4425 11.007 20.442 -8.94945
645 1 0.00036002 12.5795 18.8698 -8.94948
646 1 1.57225 14.1518 20.4419 -8.94935
647 1 3.14416 12.5792 18.87 -8.94895
648 1 4.71684 14.1513 20.442 -8.9497
649 1 6.28973 12.5781 18.8691 -8.94927
650 1 7.86163 14.1518 20.4431 -8.95265
651 1 9.43498 12.5791 18.8691 -8.94823
652 1 11.0063 14.153 20.4439 -8.95113
653 1 12.5828 12.5809 18.8789 -8.95997
654 1 14.1542 14.1541 20.4452 -8.95221
655 1 15.7294 12.5812 18.874 -8.94744
656 1 17.2991 14.1531 20.4428 -8.94892
657 1 18.8715 12.5799 18.8705 -8.94922
658 1 20.4424 14.1522 20.442 -8.94938
659 1 22.0141 15.7245 18.8697 -8.94972
660 1 1.57203 17.2969 20.442 -8.94994
661 1 3.14374 15.7244 18.8703 -8.95047
662 1 4.71584 17.2978 20.4431 -8.9501
663 1 6.28691 15.7265 18.8738 -8.95164
664 1 7.86135 17.298 20.4428 -8.94908
665 1 9.4335 15.7271 18.8728 -8.948
666 1 11.0068 17.2983 20.4427 -8.94928
667 1 12.5806 15.7275 18.8737 -8.94988
668 1 14.1527 17.2986 20.4429 -8.9498
669 1 15.7294 15.7293 18.8742 -8.94521
670 1 17.2988 17.2988 20.4427 -8.94819
671 1 18.8713 15.7256 18.8703 -8.9495
672 1 20.4422 17.2973 20.4419 -8.94948
673 1 22.0135 18.8696 18.8697 -8.94955
674 1 1.57173 20.4419 20.442 -8.94902
675 1 3.143 18.8706 18.871 -8.94815
676 1 4.71672 20.442 20.4421 -8.94953
677 1 6.28874 18.8707 18.8708 -8.94935
678 1 7.86186 20.4421 20.442 -8.9494
679 1 9.43432 18.8708 18.8706 -8.94929
680 1 11.007 20.4421 20.442 -8.94944
681 1 12.5799 18.8709 18.8705 -8.94903
682 1 14.1522 20.4422 20.4419 -8.94942
683 1 15.7259 18.8714 18.8706 -8.94939
684 1 17.2974 20.4422 20.4419 -8.94946
685 1 18.87 18.8701 18.8696 -8.94936
686 1 20.4417 20.4418 20.4417 -8.94926
687 3 10.0819 11.007 12.6168 2.36026
