ITEM: TIMESTEP
113
ITEM: NUMBER OF ATOMS
688
ITEM: BOX BOUNDS pp pp pp
0.0000000000000000e+00 2.2013900999999997e+01
0.0000000000000000e+00 2.2013900999999997e+01
0.0000000000000000e+00 2.2013900999999997e+01
ITEM: ATOMS id type x y z c_pot
1 1 22.0135 -7.6988e-14 1.45805e-14 -8.94884
2 1 1.57149 1.57185 1.57174 -8.94892
3 1 3.14411 -6.14393e-14 5.3177e-14 -8.94953
4 1 4.71642 1.57178 1.57163 -8.94947
5 1 6.28919 8.87176e-15 1.33772e-14 -8.94939
6 1 7.8617 1.5717 1.57168 -8.94935
7 1 9.4344 -2.08973e-13 1.63896e-13 -8.94942
8 1 11.007 1.57163 1.57173 -8.94939
9 1 12.5796 8.51155e-14 -2.93964e-14 -8.94942
10 1 14.1524 1.57154 1.57181 -8.94938
11 1 15.7248 -7.21573e-14 3.64597e-14 -8.94952
12 1 17.2977 1.57145 1.57182 -8.94939
13 1 18.8698 -2.54874e-14 5.41341e-15 -8.94908
14 1 20.4418 1.57192 1.57209 -8.94916
15 1 22.014 3.14433 3.88652e-14 -8.94954
16 1 1.57198 4.71689 1.57176 -8.94997
17 1 3.14371 3.14393 -1.15807e-12 -8.9495
18 1 4.71558 4.71597 1.57061 -8.95019
19 1 6.2889 3.14385 -5.62937e-14 -8.94933
20 1 7.86114 4.71566 1.57093 -8.94911
21 1 9.4342 3.1436 -2.08641e-13 -8.94939
22 1 11.0069 4.71529 1.57094 -8.94928
23 1 12.5797 3.14345 -1.93718e-13 -8.94929
24 1 14.1531 4.71486 1.57075 -8.94985
25 1 15.7254 3.14322 -2.60324e-13 -8.94967
26 1 17.2993 4.71471 1.57102 -8.9482
27 1 18.8704 3.14357 -2.25657e-14 -8.94872
28 1 20.4425 4.71638 1.5719 -8.94943
29 1 22.0144 6.28935 -3.87535e-16 -8.9494
30 1 1.57242 7.86208 1.57196 -8.94933
31 1 3.14445 6.28982 -9.32127e-13 -8.94994
32 1 4.71692 7.86273 1.57192 -8.94974
33 1 6.28872 6.28925 -6.44243e-12 -8.95159
34 1 7.86165 7.86207 1.57085 -8.95266
35 1 9.43371 6.28825 3.10379e-12 -8.94977
36 1 11.0064 7.86076 1.56989 -8.95124
37 1 12.5797 6.2879 -7.55993e-12 -8.95004
38 1 14.1547 7.85956 1.56849 -8.95213
39 1 15.7268 6.28712 -2.35541e-12 -8.95016
40 1 17.2997 7.86044 1.57083 -8.94886
41 1 18.871 6.28846 -2.14523e-14 -8.94924
42 1 20.4429 7.86153 1.57183 -8.94932
43 1 22.0145 9.43439 -2.59153e-14 -8.94946
44 1 3.14457 9.43463 3.25627e-12 -8.94949
45 1 6.28952 9.43511 -5.21948e-11 -8.94909
46 1 9.43419 9.43484 -1.46888e-10 -8.94825
47 1 12.5801 9.43416 -7.07938e-11 -8.95328
48 1 15.7274 9.43344 -1.91343e-12 -8.94911
49 1 18.8712 9.43403 3.64395e-13 -8.94929
50 1 -0.0006058 3.66379e-14 3.14421 -8.94911
51 1 1.57082 1.57159 4.71589 -8.94887
52 1 3.14357 -6.65212e-12 3.14353 -8.94949
53 1 4.71544 1.57074 4.71513 -8.95002
54 1 6.28902 1.28913e-14 3.14359 -8.94938
55 1 7.86154 1.57086 4.71547 -8.94941
56 1 9.43447 -1.44211e-12 3.14368 -8.94944
57 1 11.0074 1.57092 4.71565 -8.94942
58 1 12.5799 -1.4788e-12 3.14383 -8.94939
59 1 14.1529 1.57075 4.71606 -8.95053
60 1 15.7251 -2.37398e-12 3.14402 -8.94997
61 1 17.2978 1.57136 4.71649 -8.94945
62 1 18.8696 -3.55539e-14 3.14434 -8.94937
63 1 20.4414 1.57187 4.71671 -8.94943
64 1 22.0134 3.14408 3.14395 -8.94953
65 1 1.57021 4.71597 4.71537 -8.95004
66 1 3.14258 3.14302 3.1425 -8.94809
67 1 4.71125 4.71191 4.71081 -8.94444
68 1 6.28837 3.14295 3.14271 -8.94932
69 1 7.85996 4.71257 4.71284 -8.94794
70 1 9.4342 3.14282 3.14296 -8.94927
71 1 11.0075 4.71265 4.713 -8.94744
72 1 12.5801 3.14263 3.14306 -8.949
73 1 14.1563 4.71069 4.71215 -8.94937
74 1 15.7263 3.14205 3.1429 -8.94932
75 1 17.2998 4.71426 4.71524 -8.94895
76 1 18.8703 3.1435 3.14404 -8.94933
77 1 20.442 4.7162 4.71641 -8.94991
78 1 22.0143 6.28926 3.14405 -8.94971
79 1 1.57183 7.86223 4.71629 -8.94964
80 1 3.14361 6.28952 3.14336 -8.95055
81 1 4.71528 7.86273 4.71551 -8.95158
82 1 6.28667 6.28723 3.13978 -8.95179
83 1 7.8577 7.85711 4.70769 -8.95858
84 1 9.43349 6.28647 3.14077 -8.94808
85 1 11.0076 7.85663 4.7065 -8.9536
86 1 12.581 6.28601 3.13969 -8.95006
87 1 14.1663 7.84928 4.7013 -8.93432
88 1 15.73 6.2842 3.13937 -8.94539
89 1 17.303 7.85899 4.71354 -8.94998
90 1 18.8718 6.28793 3.14331 -8.94944
91 1 20.4433 7.8614 4.71616 -8.94992
92 1 0.00069908 9.43437 3.14396 -8.94945
93 1 3.14437 9.43473 3.14395 -8.94893
94 1 6.29003 9.43593 3.14524 -8.94928
95 1 9.43518 9.43461 3.14507 -8.94779
96 1 12.5834 9.43288 3.13484 -8.95962
97 1 15.7302 9.43246 3.1394 -8.9475
98 1 18.8722 9.43381 3.1431 -8.94918
99 1 22.0129 -2.85101e-13 6.28901 -8.94937
100 1 1.57038 1.57138 7.86114 -8.94925
101 1 3.14273 -1.36756e-12 6.28802 -8.94922
102 1 4.71424 1.56968 7.86006 -8.94972
103 1 6.28856 -1.82051e-10 6.28807 -8.95053
104 1 7.8614 1.56956 7.86082 -8.95129
105 1 9.43467 -9.69059e-11 6.28827 -8.95012
106 1 11.0074 1.5706 7.86117 -8.94973
107 1 12.58 -9.6292e-11 6.28882 -8.95028
108 1 14.153 1.57071 7.86152 -8.95051
109 1 15.7253 -3.40778e-12 6.2891 -8.94997
110 1 17.2974 1.57168 7.86198 -8.94954
111 1 18.8693 7.47975e-14 6.28942 -8.94958
112 1 20.4411 1.57187 7.86179 -8.94941
113 1 -0.00135242 3.14371 6.28867 -8.94935
114 1 1.56833 4.71487 7.86025 -8.94936
115 1 3.14102 3.14177 6.28669 -8.9474
116 1 4.70755 4.70831 7.85542 -8.94098
117 1 6.28657 3.1395 6.28617 -8.95157
118 1 7.85734 4.70507 7.85786 -8.9581
119 1 9.43428 3.14043 6.28689 -8.94995
120 1 11.0072 4.71067 7.85865 -8.95139
121 1 12.5806 3.14071 6.28769 -8.95182
122 1 14.1566 4.71051 7.85843 -8.94762
123 1 15.7266 3.14175 6.28813 -8.94905
124 1 17.2989 4.71522 7.86155 -8.94983
125 1 18.8698 3.14364 6.28919 -8.94966
126 1 20.4411 4.71612 7.86163 -8.94985
127 1 22.0129 6.289 6.28877 -8.95055
128 1 1.56925 7.86195 7.86134 -8.95202
129 1 3.13915 6.28728 6.28633 -8.95184
130 1 4.70524 7.85846 7.85869 -8.96068
131 1 6.27353 6.27432 6.27315 -8.93064
132 1 7.8162 7.81896 7.82172 -8.85616
133 1 9.43264 6.27829 6.28131 -8.94649
134 1 11.0257 7.84208 7.82842 -8.89402
135 1 12.5885 6.27583 6.27734 -8.95033
136 1 14.1684 7.84953 7.85007 -8.93744
137 1 15.7317 6.28347 6.28466 -8.94679
138 1 17.3019 7.86026 7.861 -8.95228
139 1 18.8716 6.28813 6.28873 -8.95033
140 1 20.4422 7.86173 7.86183 -8.95058
141 1 22.0144 9.43454 6.28883 -8.94972
142 1 3.14374 9.43554 6.28877 -8.94895
143 1 6.2891 9.43864 6.29108 -8.95066
144 1 9.42802 9.41593 6.29262 -8.91871
145 1 12.6188 9.4049 6.24704 -8.88762
146 1 15.738 9.43065 6.28165 -8.95402
147 1 18.8735 9.4338 6.28807 -8.95104
148 1 -0.00113203 7.64208e-14 9.43426 -8.94938
149 1 3.14241 -5.07003e-12 9.43385 -8.94924
150 1 6.28781 -1.25117e-10 9.43373 -8.95154
151 1 9.43481 -1.4982e-09 9.43392 -8.9491
152 1 12.5801 -1.20873e-10 9.43438 -8.95037
153 1 15.7251 -2.27897e-13 9.43452 -8.94943
154 1 18.8693 -1.14632e-13 9.43445 -8.94946
155 1 22.0122 3.14357 9.43413 -8.94933
156 1 3.1405 3.14138 9.43332 -8.94887
157 1 6.28425 3.1362 9.43236 -8.9515
158 1 9.43427 3.14049 9.43323 -8.9474
159 1 12.5807 3.14123 9.43374 -8.95185
160 1 15.7256 3.14314 9.4345 -8.94931
161 1 18.8694 3.1438 9.43442 -8.94936
162 1 22.0113 6.28854 9.43409 -8.95073
163 1 3.13484 6.28458 9.43213 -8.95036
164 1 6.26372 6.26427 9.42071 -8.91682
165 1 9.42965 6.2815 9.43127 -9.00959
166 1 12.5883 6.27661 9.4247 -8.9437
167 1 15.7285 6.28674 9.43404 -8.94913
168 1 18.8702 6.28853 9.43452 -8.9499
169 1 22.0131 9.43488 9.43435 -8.94931
170 1 3.14219 9.43583 9.43423 -8.94992
171 1 6.2843 9.42891 9.43591 -8.96868
172 1 9.36075 9.14821 9.44584 -8.05799
173 1 12.593 9.40831 9.38659 -8.83768
174 1 15.7277 9.43446 9.43209 -8.95229
175 1 18.8704 9.43455 9.43458 -8.9496
176 1 1.57025 1.57133 11.007 -8.94928
177 1 4.71393 1.56952 11.007 -8.94917
178 1 7.8612 1.56864 11.007 -8.95358
179 1 11.0072 1.57089 11.007 -8.94978
180 1 14.1528 1.57144 11.007 -8.949
181 1 17.2974 1.57176 11.007 -8.94942
182 1 20.441 1.57185 11.007 -8.94945
183 1 1.56796 4.71466 11.007 -8.94899
184 1 4.70748 4.70828 11.007 -8.94524
185 1 7.85446 4.69846 11.007 -8.96635
186 1 11.0075 4.71127 11.007 -8.95511
187 1 14.1541 4.71484 11.007 -8.9468
188 1 17.2982 4.7156 11.007 -8.94868
189 1 20.4408 4.71603 11.007 -8.94962
190 1 1.56703 7.86148 11.007 -8.95437
191 1 4.69555 7.85403 11.007 -8.96738
192 1 7.77263 7.78388 11.0069 -8.73215
193 1 11.0588 7.83583 11.007 -8.82694
194 1 14.1595 7.86215 11.007 -8.96729
195 1 17.2989 7.86151 11.007 -8.95098
196 1 20.441 7.86176 11.007 -8.95047
197 1 -0.00113203 -1.6121e-13 12.5796 -8.94938
198 1 1.57038 1.57138 14.1528 -8.94925
199 1 3.14241 1.87484e-12 12.5801 -8.94924
200 1 4.71424 1.56968 14.1538 -8.94972
201 1 6.28781 -2.02392e-10 12.5802 -8.95154
202 1 7.8614 1.56956 14.1531 -8.95129
203 1 9.43481 -3.33453e-10 12.58 -8.9491
204 1 11.0074 1.5706 14.1527 -8.94973
205 1 12.5801 -1.22351e-10 12.5795 -8.95037
206 1 14.153 1.57071 14.1524 -8.95051
207 1 15.7251 -2.54286e-12 12.5794 -8.94943
208 1 17.2974 1.57168 14.1519 -8.94954
209 1 18.8693 -3.74904e-14 12.5794 -8.94946
210 1 20.4411 1.57187 14.1521 -8.94941
211 1 22.0122 3.14357 12.5798 -8.94933
212 1 1.56833 4.71487 14.1536 -8.94936
213 1 3.1405 3.14138 12.5806 -8.94887
214 1 4.70755 4.70831 14.1585 -8.94098
215 1 6.28425 3.1362 12.5815 -8.9515
216 1 7.85734 4.70507 14.156 -8.9581
217 1 9.43427 3.14049 12.5807 -8.9474
218 1 11.0072 4.71067 14.1553 -8.95139
219 1 12.5807 3.14123 12.5802 -8.95185
220 1 14.1566 4.71051 14.1555 -8.94762
221 1 15.7256 3.14314 12.5794 -8.94931
222 1 17.2989 4.71522 14.1523 -8.94983
223 1 18.8694 3.1438 12.5795 -8.94936
224 1 20.4411 4.71612 14.1523 -8.94985
225 1 22.0113 6.28854 12.5798 -8.95073
226 1 1.56925 7.86195 14.1526 -8.95202
227 1 3.13484 6.28458 12.5818 -8.95036
228 1 4.70524 7.85846 14.1552 -8.96068
229 1 6.26372 6.26427 12.5932 -8.91682
230 1 7.8162 7.81896 14.1922 -8.85617
231 1 9.42965 6.2815 12.5826 -9.00958
232 1 11.0257 7.84208 14.1855 -8.89402
233 1 12.5883 6.27661 12.5892 -8.9437
234 1 14.1684 7.84953 14.1638 -8.93744
235 1 15.7285 6.28674 12.5799 -8.94913
236 1 17.3019 7.86026 14.1529 -8.95228
237 1 18.8702 6.28853 12.5794 -8.9499
238 1 20.4422 7.86173 14.1521 -8.95058
239 1 22.0131 9.43488 12.5796 -8.94931
240 1 3.14219 9.43583 12.5797 -8.94992
241 1 6.2843 9.42891 12.578 -8.96868
242 1 9.36076 9.14823 12.5681 -8.05789
243 1 12.593 9.40831 12.6273 -8.83768
244 1 15.7277 9.43446 12.5818 -8.95229
245 1 18.8704 9.43455 12.5793 -8.9496
246 1 22.0129 -3.35676e-14 15.7249 -8.94937
247 1 1.57082 1.57159 17.298 -8.94887
248 1 3.14273 -7.28548e-12 15.7259 -8.94922
249 1 4.71544 1.57074 17.2988 -8.95002
250 1 6.28856 -2.96705e-11 15.7258 -8.95053
251 1 7.86154 1.57086 17.2984 -8.94941
252 1 9.43467 -2.29029e-11 15.7256 -8.95012
253 1 11.0074 1.57092 17.2983 -8.94942
254 1 12.58 -1.62999e-11 15.7251 -8.95028
255 1 14.1529 1.57075 17.2978 -8.95053
256 1 15.7253 -3.45138e-12 15.7248 -8.94997
257 1 17.2978 1.57136 17.2974 -8.94945
258 1 18.8693 6.43938e-15 15.7245 -8.94958
259 1 20.4414 1.57187 17.2972 -8.94943
260 1 -0.00135242 3.14371 15.7252 -8.94935
261 1 1.57021 4.71597 17.2985 -8.95004
262 1 3.14102 3.14177 15.7272 -8.9474
263 1 4.71125 4.71191 17.3031 -8.94444
264 1 6.28657 3.1395 15.7277 -8.95157
265 1 7.85996 4.71257 17.3011 -8.94794
266 1 9.43428 3.14043 15.727 -8.94995
267 1 11.0075 4.71265 17.3009 -8.94744
268 1 12.5806 3.14071 15.7262 -8.95182
269 1 14.1563 4.71069 17.3017 -8.94937
270 1 15.7266 3.14175 15.7258 -8.94905
271 1 17.2998 4.71426 17.2987 -8.94895
272 1 18.8698 3.14364 15.7247 -8.94966
273 1 20.442 4.7162 17.2975 -8.94991
274 1 22.0129 6.289 15.7251 -8.95055
275 1 1.57183 7.86223 17.2976 -8.94964
276 1 3.13915 6.28728 15.7276 -8.95184
277 1 4.71528 7.86273 17.2984 -8.95158
278 1 6.27353 6.27432 15.7407 -8.93064
279 1 7.8577 7.85711 17.3062 -8.95858
280 1 9.43264 6.27829 15.7326 -8.94649
281 1 11.0076 7.85663 17.3074 -8.9536
282 1 12.5885 6.27583 15.7366 -8.95033
283 1 14.1663 7.84928 17.3126 -8.93432
284 1 15.7317 6.28347 15.7292 -8.94679
285 1 17.303 7.85899 17.3004 -8.94998
286 1 18.8716 6.28813 15.7252 -8.95033
287 1 20.4433 7.8614 17.2977 -8.94992
288 1 22.0144 9.43454 15.7251 -8.94972
289 1 3.14374 9.43554 15.7251 -8.94895
290 1 6.2891 9.43864 15.7228 -8.95066
291 1 9.42802 9.41593 15.7213 -8.91871
292 1 12.6188 9.4049 15.7669 -8.88762
293 1 15.738 9.43065 15.7322 -8.95402
294 1 18.8735 9.4338 15.7258 -8.95104
295 1 -0.0006058 -5.69789e-14 18.8697 -8.94911
296 1 1.57149 1.57185 20.4422 -8.94892
297 1 3.14357 -1.04477e-12 18.8704 -8.94949
298 1 4.71642 1.57178 20.4423 -8.94947
299 1 6.28902 -2.45411e-13 18.8703 -8.94938
300 1 7.8617 1.5717 20.4422 -8.94935
301 1 9.43447 -3.00257e-13 18.8702 -8.94944
302 1 11.007 1.57163 20.4422 -8.94939
303 1 12.5799 -4.45607e-13 18.8701 -8.94939
304 1 14.1524 1.57154 20.4421 -8.94938
305 1 15.7251 -4.29213e-13 18.8699 -8.94997
306 1 17.2977 1.57145 20.4421 -8.94939
307 1 18.8696 -3.00035e-14 18.8696 -8.94937
308 1 20.4418 1.57192 20.4418 -8.94916
309 1 22.0134 3.14408 18.87 -8.94953
310 1 1.57198 4.71689 20.4421 -8.94997
311 1 3.14258 3.14302 18.8714 -8.94809
312 1 4.71558 4.71597 20.4433 -8.95019
313 1 6.28837 3.14295 18.8712 -8.94932
314 1 7.86114 4.71566 20.443 -8.94911
315 1 9.4342 3.14282 18.8709 -8.94927
316 1 11.0069 4.71529 20.443 -8.94928
317 1 12.5801 3.14263 18.8708 -8.949
318 1 14.1531 4.71486 20.4432 -8.94985
319 1 15.7263 3.14205 18.871 -8.94932
320 1 17.2993 4.71471 20.4429 -8.9482
321 1 18.8703 3.1435 18.8699 -8.94933
322 1 20.4425 4.71638 20.442 -8.94943
323 1 22.0143 6.28926 18.8698 -8.94971
324 1 1.57242 7.86208 20.4419 -8.94933
325 1 3.14361 6.28952 18.8705 -8.95055
326 1 4.71692 7.86273 20.442 -8.94974
327 1 6.28667 6.28723 18.8741 -8.95179
328 1 7.86165 7.86207 20.443 -8.95266
329 1 9.43349 6.28647 18.8731 -8.94808
330 1 11.0064 7.86076 20.444 -8.95124
331 1 12.581 6.28601 18.8742 -8.95006
332 1 14.1547 7.85956 20.4454 -8.95213
333 1 15.73 6.2842 18.8745 -8.94539
334 1 17.2997 7.86044 20.4431 -8.94886
335 1 18.8718 6.28793 18.8706 -8.94944
336 1 20.4429 7.86153 20.4421 -8.94932
337 1 0.00069908 9.43437 18.8699 -8.94945
338 1 3.14437 9.43473 18.87 -8.94893
339 1 6.29003 9.43593 18.8687 -8.94928
340 1 9.43518 9.43461 18.8688 -8.94779
341 1 12.5834 9.43288 18.8791 -8.95962
342 1 15.7302 9.43246 18.8745 -8.9475
343 1 18.8722 9.43381 18.8708 -8.94918
344 1 1.57248 11.007 1.57195 -8.94952
345 1 4.71691 11.007 1.57205 -8.94967
346 1 7.86227 11.007 1.57355 -8.94678
347 1 11.0068 11.007 1.57161 -8.94688
348 1 14.1557 11.007 1.56833 -8.95008
349 1 17.3 11.007 1.57078 -8.9492
350 1 20.443 11.007 1.57179 -8.9494
351 1 22.0145 12.5795 6.67775e-14 -8.94946
352 1 1.57242 14.1518 1.57196 -8.94933
353 1 3.14457 12.5793 1.25234e-13 -8.94949
354 1 4.71692 14.1512 1.57192 -8.94974
355 1 6.28952 12.5788 3.0814e-11 -8.94909
356 1 7.86165 14.1518 1.57085 -8.95266
357 1 9.43419 12.5791 -1.42415e-10 -8.94825
358 1 11.0064 14.1531 1.56989 -8.95124
359 1 12.5801 12.5797 2.57632e-11 -8.95328
360 1 14.1547 14.1543 1.56849 -8.95213
361 1 15.7274 12.5805 -8.9937e-13 -8.94911
362 1 17.2997 14.1535 1.57083 -8.94886
363 1 18.8712 12.5799 1.86127e-13 -8.94929
364 1 20.4429 14.1524 1.57183 -8.94932
365 1 22.0144 15.7246 1.74771e-13 -8.9494
366 1 1.57198 17.297 1.57176 -8.94997
367 1 3.14445 15.7241 -3.21322e-12 -8.94994
368 1 4.71558 17.2979 1.57061 -8.95019
369 1 6.28872 15.7246 9.1043e-11 -8.95159
370 1 7.86114 17.2982 1.57093 -8.94911
371 1 9.43371 15.7256 1.02642e-10 -8.94977
372 1 11.0069 17.2986 1.57094 -8.94928
373 1 12.5797 15.726 1.46337e-11 -8.95004
374 1 14.1531 17.299 1.57075 -8.94985
375 1 15.7268 15.7268 2.07519e-12 -8.95016
376 1 17.2993 17.2992 1.57102 -8.9482
377 1 18.871 15.7254 -7.59586e-14 -8.94924
378 1 20.4425 17.2975 1.5719 -8.94943
379 1 22.014 18.8696 -6.95963e-14 -8.94954
380 1 1.57149 20.4421 1.57174 -8.94892
381 1 3.14371 18.87 3.58442e-12 -8.9495
382 1 4.71642 20.4421 1.57163 -8.94947
383 1 6.2889 18.87 4.19358e-12 -8.94933
384 1 7.8617 20.4422 1.57168 -8.94935
385 1 9.4342 18.8703 -4.86275e-13 -8.94939
386 1 11.007 20.4423 1.57173 -8.94939
387 1 12.5797 18.8705 4.58143e-12 -8.94929
388 1 14.1524 20.4424 1.57181 -8.94938
389 1 15.7254 18.8707 5.57624e-13 -8.94967
390 1 17.2977 20.4425 1.57182 -8.94939
391 1 18.8704 18.8703 1.76443e-14 -8.94872
392 1 20.4418 20.442 1.57209 -8.94916
393 1 1.5722 11.007 4.71609 -8.94941
394 1 4.71663 11.007 4.71612 -8.94615
395 1 7.86723 11.007 4.72499 -8.94339
396 1 11.0125 11.007 4.71745 -8.99081
397 1 14.1652 11.007 4.70317 -8.94204
398 1 17.3034 11.007 4.71311 -8.949
399 1 20.4436 11.007 4.71595 -8.94981
400 1 0.00069908 12.5795 3.14396 -8.94945
401 1 1.57183 14.1517 4.71629 -8.94964
402 1 3.14437 12.5792 3.14395 -8.94893
403 1 4.71528 14.1512 4.71551 -8.95158
404 1 6.29003 12.578 3.14524 -8.94928
405 1 7.8577 14.1568 4.70769 -8.95858
406 1 9.43518 12.5793 3.14507 -8.94779
407 1 11.0076 14.1573 4.7065 -8.9536
408 1 12.5834 12.581 3.13484 -8.95962
409 1 14.1663 14.1646 4.7013 -8.93432
410 1 15.7302 12.5814 3.1394 -8.9475
411 1 17.303 14.1549 4.71354 -8.94998
412 1 18.8722 12.5801 3.1431 -8.94918
413 1 20.4433 14.1525 4.71616 -8.94992
414 1 22.0143 15.7246 3.14405 -8.94971
415 1 1.57021 17.2979 4.71537 -8.95004
416 1 3.14361 15.7244 3.14336 -8.95055
417 1 4.71125 17.302 4.71081 -8.94444
418 1 6.28667 15.7267 3.13978 -8.95179
419 1 7.85996 17.3013 4.71284 -8.94794
420 1 9.43349 15.7274 3.14077 -8.94808
421 1 11.0075 17.3012 4.713 -8.94744
422 1 12.581 15.7279 3.13969 -8.95006
423 1 14.1563 17.3032 4.71215 -8.94937
424 1 15.73 15.7297 3.13937 -8.94539
425 1 17.2998 17.2996 4.71524 -8.94895
426 1 18.8718 15.726 3.14331 -8.94944
427 1 20.442 17.2977 4.71641 -8.94991
428 1 22.0134 18.8698 3.14395 -8.94953
429 1 1.57082 20.4423 4.71589 -8.94887
430 1 3.14258 18.8709 3.1425 -8.94809
431 1 4.71544 20.4432 4.71513 -8.95002
432 1 6.28837 18.871 3.14271 -8.94932
433 1 7.86154 20.443 4.71547 -8.94941
434 1 9.4342 18.8711 3.14296 -8.94927
435 1 11.0074 20.443 4.71565 -8.94942
436 1 12.5801 18.8713 3.14306 -8.949
437 1 14.1529 20.4431 4.71606 -8.95053
438 1 15.7263 18.8719 3.1429 -8.94932
439 1 17.2978 20.4425 4.71649 -8.94945
440 1 18.8703 18.8704 3.14404 -8.94933
441 1 20.4414 20.442 4.71671 -8.94943
442 1 1.57216 11.007 7.86123 -8.94722
443 1 4.72101 11.007 7.86298 -8.93739
444 1 7.89122 11.007 7.88649 -8.83607
445 1 11.1003 11.007 7.6837 -8.23905
446 1 14.1721 11.007 7.84519 -8.96533
447 1 17.3033 11.007 7.85984 -8.95197
448 1 20.4431 11.007 7.86158 -8.94994
449 1 22.0144 12.5794 6.28883 -8.94972
450 1 1.56925 14.152 7.86134 -8.95202
451 1 3.14374 12.5784 6.28877 -8.94895
452 1 4.70524 14.1554 7.85869 -8.96068
453 1 6.2891 12.5753 6.29108 -8.95066
454 1 7.8162 14.1949 7.82172 -8.85621
455 1 9.42802 12.598 6.29262 -8.91871
456 1 11.0257 14.1718 7.82842 -8.89403
457 1 12.6188 12.609 6.24704 -8.88762
458 1 14.1684 14.1644 7.85007 -8.93744
459 1 15.738 12.5833 6.28165 -8.95402
460 1 17.3019 14.1536 7.861 -8.95228
461 1 18.8735 12.5801 6.28807 -8.95104
462 1 20.4422 14.1522 7.86183 -8.95058
463 1 22.0129 15.7249 6.28877 -8.95055
464 1 1.56833 17.299 7.86025 -8.94936
465 1 3.13915 15.7266 6.28633 -8.95184
466 1 4.70755 17.3056 7.85542 -8.94098
467 1 6.27353 15.7396 6.27315 -8.93064
468 1 7.85734 17.3088 7.85786 -8.9581
469 1 9.43264 15.7356 6.28131 -8.94649
470 1 11.0072 17.3032 7.85865 -8.95139
471 1 12.5885 15.7381 6.27734 -8.95033
472 1 14.1566 17.3034 7.85843 -8.94762
473 1 15.7317 15.7304 6.28466 -8.94679
474 1 17.2989 17.2987 7.86155 -8.94983
475 1 18.8716 15.7258 6.28873 -8.95033
476 1 20.4411 17.2978 7.86163 -8.94985
477 1 -0.00135242 18.8702 6.28867 -8.94935
478 1 1.57038 20.4425 7.86114 -8.94925
479 1 3.14102 18.8721 6.28669 -8.9474
480 1 4.71424 20.4442 7.86006 -8.94972
481 1 6.28657 18.8744 6.28617 -8.95157
482 1 7.8614 20.4443 7.86082 -8.95129
483 1 9.43428 18.8735 6.28689 -8.94995
484 1 11.0074 20.4433 7.86117 -8.94973
485 1 12.5806 18.8732 6.28769 -8.95182
486 1 14.153 20.4432 7.86152 -8.95051
487 1 15.7266 18.8722 6.28813 -8.94905
488 1 17.2974 20.4422 7.86198 -8.94954
489 1 18.8698 18.8703 6.28919 -8.94966
490 1 20.4411 20.442 7.86179 -8.94941
491 1 22.0131 12.579 9.43435 -8.94931
492 1 3.14219 12.5781 9.43423 -8.94992
493 1 6.2843 12.585 9.43591 -8.96868
494 1 9.36078 12.8656 9.44584 -8.05766
495 1 12.593 12.6056 9.38659 -8.83769
496 1 15.7277 12.5794 9.43209 -8.95229
497 1 18.8704 12.5793 9.43458 -8.9496
498 1 22.0113 15.7254 9.43409 -8.95073
499 1 3.13484 15.7293 9.43213 -8.95036
500 1 6.26372 15.7496 9.42071 -8.91682
501 1 9.42965 15.7324 9.43127 -9.00958
502 1 12.5883 15.7373 9.4247 -8.9437
503 1 15.7285 15.7272 9.43404 -8.94913
504 1 18.8702 15.7254 9.43452 -8.9499
505 1 22.0122 18.8703 9.43413 -8.94933
506 1 3.1405 18.8725 9.43332 -8.94887
507 1 6.28425 18.8777 9.43236 -8.9515
508 1 9.43427 18.8734 9.43323 -8.9474
509 1 12.5807 18.8727 9.43374 -8.95185
510 1 15.7256 18.8708 9.4345 -8.94931
511 1 18.8694 18.8701 9.43442 -8.94936
688 3 10.0695 11.007 9.39853 2.36504
512 1 1.57234 11.007 11.007 -8.94481
513 1 4.72586 11.007 11.007 -8.93253
514 1 7.90623 11.007 11.007 -8.71506
515 1 11.2603 11.007 11.0069 -7.42267
516 1 14.1371 11.007 11.007 -9.0129
517 1 17.295 11.007 11.007 -8.94437
518 1 20.4413 11.007 11.007 -8.94755
519 1 1.56703 14.1524 11.007 -8.95437
520 1 4.69555 14.1599 11.007 -8.96738
521 1 7.77263 14.23 11.0069 -8.73222
522 1 11.0588 14.1781 11.007 -8.82695
523 1 14.1595 14.1518 11.007 -8.96729
524 1 17.2989 14.1524 11.007 -8.95098
525 1 20.441 14.1521 11.007 -8.95047
526 1 1.56796 17.2992 11.007 -8.94899
527 1 4.70748 17.3056 11.007 -8.94524
528 1 7.85446 17.3154 11.007 -8.96635
529 1 11.0075 17.3026 11.007 -8.95511
530 1 14.1541 17.2991 11.007 -8.9468
531 1 17.2982 17.2983 11.007 -8.94868
532 1 20.4408 17.2979 11.007 -8.94962
533 1 1.57025 20.4426 11.007 -8.94928
534 1 4.71393 20.4444 11.007 -8.94917
535 1 7.8612 20.4453 11.007 -8.95358
536 1 11.0072 20.443 11.007 -8.94978
537 1 14.1528 20.4425 11.007 -8.949
538 1 17.2974 20.4421 11.007 -8.94942
539 1 20.441 20.442 11.007 -8.94945
540 1 1.57216 11.007 14.1527 -8.94722
541 1 4.72101 11.007 14.1509 -8.93739
542 1 7.89122 11.007 14.1274 -8.83607
543 1 11.1003 11.007 14.3302 -8.23904
544 1 14.1721 11.007 14.1687 -8.96533
545 1 17.3033 11.007 14.1541 -8.95197
546 1 20.4431 11.007 14.1523 -8.94994
547 1 22.0131 12.579 12.5796 -8.94931
548 1 1.56925 14.152 14.1526 -8.95202
549 1 3.14219 12.5781 12.5797 -8.94992
550 1 4.70524 14.1554 14.1552 -8.96068
551 1 6.2843 12.585 12.578 -8.96868
552 1 7.8162 14.1949 14.1922 -8.85619
553 1 9.36077 12.8656 12.5681 -8.05776
554 1 11.0257 14.1718 14.1855 -8.89402
555 1 12.593 12.6056 12.6273 -8.83768
556 1 14.1684 14.1644 14.1638 -8.93744
557 1 15.7277 12.5794 12.5818 -8.95229
558 1 17.3019 14.1536 14.1529 -8.95228
559 1 18.8704 12.5793 12.5793 -8.9496
560 1 20.4422 14.1522 14.1521 -8.95058
561 1 22.0113 15.7254 12.5798 -8.95073
562 1 1.56833 17.299 14.1536 -8.94936
563 1 3.13484 15.7293 12.5818 -8.95036
564 1 4.70755 17.3056 14.1585 -8.94098
565 1 6.26372 15.7496 12.5932 -8.91682
566 1 7.85734 17.3088 14.156 -8.9581
567 1 9.42965 15.7324 12.5826 -9.00958
568 1 11.0072 17.3032 14.1553 -8.95139
569 1 12.5883 15.7373 12.5892 -8.9437
570 1 14.1566 17.3034 14.1555 -8.94762
571 1 15.7285 15.7272 12.5799 -8.94913
572 1 17.2989 17.2987 14.1523 -8.94983
573 1 18.8702 15.7254 12.5794 -8.9499
574 1 20.4411 17.2978 14.1523 -8.94985
575 1 22.0122 18.8703 12.5798 -8.94933
576 1 1.57038 20.4425 14.1528 -8.94925
577 1 3.1405 18.8725 12.5806 -8.94887
578 1 4.71424 20.4442 14.1538 -8.94972
579 1 6.28425 18.8777 12.5815 -8.9515
580 1 7.8614 20.4443 14.1531 -8.95129
581 1 9.43427 18.8734 12.5807 -8.9474
582 1 11.0074 20.4433 14.1527 -8.94973
583 1 12.5807 18.8727 12.5802 -8.95185
584 1 14.153 20.4432 14.1524 -8.95051
585 1 15.7256 18.8708 12.5794 -8.94931
586 1 17.2974 20.4422 14.1519 -8.94954
587 1 18.8694 18.8701 12.5795 -8.94936
588 1 20.4411 20.442 14.1521 -8.94941
589 1 1.5722 11.007 17.2978 -8.94941
590 1 4.71663 11.007 17.2978 -8.94615
591 1 7.86723 11.007 17.2889 -8.94339
592 1 11.0125 11.007 17.2964 -8.99081
593 1 14.1652 11.007 17.3107 -8.94204
594 1 17.3034 11.007 17.3008 -8.949
595 1 20.4436 11.007 17.298 -8.94981
596 1 22.0144 12.5794 15.7251 -8.94972
597 1 1.57183 14.1517 17.2976 -8.94964
598 1 3.14374 12.5784 15.7251 -8.94895
599 1 4.71528 14.1512 17.2984 -8.95158
600 1 6.2891 12.5753 15.7228 -8.95066
601 1 7.8577 14.1568 17.3062 -8.95858
602 1 9.42802 12.598 15.7213 -8.91871
603 1 11.0076 14.1573 17.3074 -8.9536
604 1 12.6188 12.609 15.7669 -8.88762
605 1 14.1663 14.1646 17.3126 -8.93432
606 1 15.738 12.5833 15.7322 -8.95402
607 1 17.303 14.1549 17.3004 -8.94998
608 1 18.8735 12.5801 15.7258 -8.95104
609 1 20.4433 14.1525 17.2977 -8.94992
610 1 22.0129 15.7249 15.7251 -8.95055
611 1 1.57021 17.2979 17.2985 -8.95004
612 1 3.13915 15.7266 15.7276 -8.95184
613 1 4.71125 17.302 17.3031 -8.94444
614 1 6.27353 15.7396 15.7407 -8.93064
615 1 7.85996 17.3013 17.3011 -8.94794
616 1 9.43264 15.7356 15.7326 -8.94649
617 1 11.0075 17.3012 17.3009 -8.94744
618 1 12.5885 15.7381 15.7366 -8.95033
619 1 14.1563 17.3032 17.3017 -8.94937
620 1 15.7317 15.7304 15.7292 -8.94679
621 1 17.2998 17.2996 17.2987 -8.94895
622 1 18.8716 15.7258 15.7252 -8.95033
623 1 20.442 17.2977 17.2975 -8.94991
624 1 -0.00135242 18.8702 15.7252 -8.94935
625 1 1.57082 20.4423 17.298 -8.94887
626 1 3.14102 18.8721 15.7272 -8.9474
627 1 4.71544 20.4432 17.2988 -8.95002
628 1 6.28657 18.8744 15.7277 -8.95157
629 1 7.86154 20.443 17.2984 -8.94941
630 1 9.43428 18.8735 15.727 -8.94995
631 1 11.0074 20.443 17.2983 -8.94942
632 1 12.5806 18.8732 15.7262 -8.95182
633 1 14.1529 20.4431 17.2978 -8.95053
634 1 15.7266 18.8722 15.7258 -8.94905
635 1 17.2978 20.4425 17.2974 -8.94945
636 1 18.8698 18.8703 15.7247 -8.94966
637 1 20.4414 20.442 17.2972 -8.94943
638 1 1.57248 11.007 20.442 -8.94952
639 1 4.71691 11.007 20.4418 -8.94967
640 1 7.86227 11.007 20.4404 -8.94678
641 1 11.0068 11.007 20.4423 -8.94688
642 1 14.1557 11.007 20.4456 -8.95008
643 1 17.3 11.007 20.4431 -8.9492
644 1 20.443 11.007 20.4421 -8.9494
645 1 0.00069908 12.5795 18.8699 -8.94945
646 1 1.57242 14.1518 20.4419 -8.94933
647 1 3.14437 12.5792 18.87 -8.94893
648 1 4.71692 14.1512 20.442 -8.94974
649 1 6.29003 12.578 18.8687 -8.94928
650 1 7.86165 14.1518 20.443 -8.95266
651 1 9.43518 12.5793 18.8688 -8.94779
652 1 11.0064 14.1531 20.444 -8.95124
653 1 12.5834 12.581 18.8791 -8.95962
654 1 14.1547 14.1543 20.4454 -8.95213
655 1 15.7302 12.5814 18.8745 -8.9475
656 1 17.2997 14.1535 20.4431 -8.94886
657 1 18.8722 12.5801 18.8708 -8.94918
658 1 20.4429 14.1524 20.4421 -8.94932
659 1 22.0143 15.7246 18.8698 -8.94971
660 1 1.57198 17.297 20.4421 -8.94997
661 1 3.14361 15.7244 18.8705 -8.95055
662 1 4.71558 17.2979 20.4433 -8.95019
663 1 6.28667 15.7267 18.8741 -8.95179
664 1 7.86114 17.2982 20.443 -8.94911
665 1 9.43349 15.7274 18.8731 -8.94808
666 1 11.0069 17.2986 20.443 -8.94928
667 1 12.581 15.7279 18.8742 -8.95006
668 1 14.1531 17.299 20.4432 -8.94985
669 1 15.73 15.7297 18.8745 -8.94539
670 1 17.2993 17.2992 20.4429 -8.9482
671 1 18.8718 15.726 18.8706 -8.94944
672 1 20.4425 17.2975 20.442 -8.94943
673 1 22.0134 18.8698 18.87 -8.94953
674 1 1.57149 20.4421 20.4422 -8.94892
675 1 3.14258 18.8709 18.8714 -8.94809
676 1 4.71642 20.4421 20.4423 -8.94947
677 1 6.28837 18.871 18.8712 -8.94932
678 1 7.8617 20.4422 20.4422 -8.94935
679 1 9.4342 18.8711 18.8709 -8.94927
680 1 11.007 20.4423 20.4422 -8.94939
681 1 12.5801 18.8713 18.8708 -8.949
682 1 14.1524 20.4424 20.4421 -8.94938
683 1 15.7263 18.8719 18.871 -8.94932
684 1 17.2977 20.4425 20.4421 -8.94939
685 1 18.8703 18.8704 18.8699 -8.94933
686 1 20.4418 20.442 20.4418 -8.94916
687 3 10.0695 11.007 12.6154 2.36503
