ITEM: TIMESTEP
58
ITEM: NUMBER OF ATOMS
688
ITEM: BOX BOUNDS pp pp pp
0.0000000000000000e+00 2.2013900999999997e+01
0.0000000000000000e+00 2.2013900999999997e+01
0.0000000000000000e+00 2.2013900999999997e+01
ITEM: ATOMS id type x y z c_pot
1 1 22.0139 5.89131e-16 1.54604e-15 -8.94951
2 1 1.57232 1.57234 1.57234 -8.9494
3 1 3.14483 1.30015e-15 1.16627e-15 -8.94972
4 1 4.71724 1.57234 1.57235 -8.9497
5 1 6.28967 1.53002e-15 1.49661e-15 -8.94962
6 1 7.86209 1.57232 1.57233 -8.94961
7 1 9.43452 2.16379e-15 9.02806e-16 -8.94964
8 1 11.007 1.57231 1.57232 -8.94963
9 1 12.5794 1.80362e-15 1.79791e-16 -8.94963
10 1 14.1518 1.57233 1.57235 -8.94958
11 1 15.7242 -1.77703e-16 2.43774e-16 -8.94964
12 1 17.2967 1.5723 1.57233 -8.9496
13 1 18.8691 5.97179e-16 1.22822e-15 -8.94955
14 1 20.4415 1.57239 1.57241 -8.94958
15 1 22.0139 3.14482 1.93686e-15 -8.94965
16 1 1.57236 4.71724 1.57235 -8.94977
17 1 3.14468 3.14468 1.32045e-15 -8.94951
18 1 4.71682 4.71683 1.57183 -8.94972
19 1 6.28965 3.14469 1.13083e-15 -8.94952
20 1 7.86198 4.71683 1.57198 -8.94922
21 1 9.43452 3.14465 1.5308e-15 -8.94961
22 1 11.0069 4.71677 1.57199 -8.94946
23 1 12.5794 3.14466 1.14409e-15 -8.94956
24 1 14.1519 4.71683 1.57206 -8.9498
25 1 15.7243 3.14469 7.74909e-16 -8.9498
26 1 17.2972 4.71667 1.57199 -8.94858
27 1 18.8692 3.14469 1.94739e-15 -8.94924
28 1 20.4416 4.71719 1.57235 -8.94962
29 1 22.0139 6.28967 2.14865e-15 -8.94961
30 1 1.57234 7.86209 1.57234 -8.94954
31 1 3.14476 6.28971 1.85612e-15 -8.94971
32 1 4.71707 7.86225 1.57219 -8.94964
33 1 6.28937 6.28941 1.49494e-15 -8.95065
34 1 7.86179 7.86194 1.57118 -8.952
35 1 9.43429 6.28913 1.13265e-15 -8.94952
36 1 11.0064 7.86139 1.57091 -8.95035
37 1 12.5793 6.28922 1.22191e-15 -8.94952
38 1 14.1528 7.861 1.57028 -8.95174
39 1 15.7249 6.28902 1.14826e-15 -8.94998
40 1 17.2972 7.86188 1.57203 -8.94938
41 1 18.8692 6.28961 1.78568e-15 -8.94968
42 1 20.4416 7.86208 1.57234 -8.94959
43 1 22.0139 9.43452 2.04899e-15 -8.94964
44 1 3.14467 9.4345 1.96175e-15 -8.94957
45 1 6.28943 9.43464 1.46611e-15 -8.94943
46 1 9.4342 9.43451 1.11978e-15 -8.94911
47 1 12.5794 9.43437 -9.97906e-16 -8.95281
48 1 15.7249 9.43431 3.19406e-16 -8.94921
49 1 18.8693 9.4345 1.88798e-15 -8.94963
50 1 -3.51151e-05 -1.99508e-16 3.14482 -8.94959
51 1 1.57225 1.5723 4.71714 -8.94945
52 1 3.14471 5.44832e-16 3.1447 -8.94962
53 1 4.71694 1.57192 4.71688 -8.94992
54 1 6.28967 1.96143e-15 3.14472 -8.94959
55 1 7.8621 1.572 4.71693 -8.9495
56 1 9.43453 1.95115e-15 3.14469 -8.94962
57 1 11.0071 1.57195 4.71689 -8.94954
58 1 12.5794 1.71433e-15 3.1447 -8.94956
59 1 14.152 1.57195 4.71704 -8.95015
60 1 15.7243 3.89156e-16 3.14474 -8.94978
61 1 17.2968 1.57226 4.71719 -8.94958
62 1 18.8691 4.07678e-16 3.14482 -8.94962
63 1 20.4415 1.57238 4.71725 -8.94963
64 1 22.0138 3.14476 3.14475 -8.94961
65 1 1.57181 4.71693 4.71687 -8.94978
66 1 3.14431 3.14434 3.14429 -8.94861
67 1 4.71463 4.71469 4.71433 -8.94523
68 1 6.28958 3.14443 3.14445 -8.94968
69 1 7.8618 4.71545 4.71565 -8.94872
70 1 9.43451 3.14431 3.14439 -8.94952
71 1 11.0072 4.71529 4.71567 -8.94801
72 1 12.5794 3.14432 3.14445 -8.94929
73 1 14.1534 4.71427 4.71552 -8.95017
74 1 15.7246 3.14414 3.1444 -8.94959
75 1 17.2974 4.7165 4.7168 -8.94904
76 1 18.8692 3.14469 3.14476 -8.94954
77 1 20.4415 4.71712 4.71716 -8.9497
78 1 22.0139 6.28964 3.14474 -8.94969
79 1 1.57209 7.86214 4.71699 -8.94956
80 1 3.14451 6.28968 3.14451 -8.95009
81 1 4.71613 7.86256 4.71624 -8.95093
82 1 6.28825 6.28838 3.14203 -8.95088
83 1 7.85851 7.8588 4.70901 -8.95711
84 1 9.43409 6.28821 3.14281 -8.94806
85 1 11.0059 7.85876 4.71001 -8.95186
86 1 12.5795 6.28828 3.14291 -8.94955
87 1 14.1626 7.85145 4.70544 -8.93247
88 1 15.7269 6.28698 3.14209 -8.94531
89 1 17.2994 7.86087 4.71591 -8.95046
90 1 18.8697 6.28933 3.14447 -8.94968
91 1 20.4419 7.86196 4.71705 -8.9499
92 1 -1.35248e-06 9.4345 3.1447 -8.9496
93 1 3.14444 9.43451 3.1444 -8.94919
94 1 6.28936 9.43529 3.14426 -8.94946
95 1 9.4344 9.43469 3.14366 -8.94899
96 1 12.5811 9.43335 3.13705 -8.95955
97 1 15.7263 9.43378 3.14261 -8.94786
98 1 18.8697 9.43442 3.14445 -8.94943
99 1 22.0139 9.10676e-16 6.28967 -8.94965
100 1 1.57223 1.57227 7.86205 -8.94964
101 1 3.14458 1.30231e-15 6.2895 -8.94947
102 1 4.7166 1.57152 7.86166 -8.94961
103 1 6.28952 1.50362e-15 6.2894 -8.95026
104 1 7.8621 1.57109 7.8618 -8.95093
105 1 9.43463 1.90955e-15 6.28937 -8.94993
106 1 11.0072 1.57159 7.86182 -8.94956
107 1 12.5795 1.79339e-15 6.2895 -8.95004
108 1 14.1521 1.57179 7.86198 -8.9501
109 1 15.7244 1.60572e-15 6.2896 -8.94973
110 1 17.2968 1.57229 7.86211 -8.94963
111 1 18.8691 1.11873e-15 6.28968 -8.94965
112 1 20.4415 1.57238 7.8621 -8.94962
113 1 -0.000189771 3.14469 6.28959 -8.94953
114 1 1.57132 4.71661 7.86167 -8.9494
115 1 3.14398 3.144 6.28902 -8.94842
116 1 4.71308 4.71308 7.85894 -8.94305
117 1 6.28882 3.1425 6.28852 -8.95136
118 1 7.86049 4.70974 7.86015 -8.95779
119 1 9.43479 3.14289 6.28873 -8.94978
120 1 11.0069 4.7139 7.86107 -8.95031
121 1 12.5797 3.14301 6.28922 -8.95147
122 1 14.1538 4.71373 7.86113 -8.94918
123 1 15.7248 3.14393 6.2894 -8.94941
124 1 17.2973 4.71669 7.86212 -8.94973
125 1 18.8692 3.1447 6.28966 -8.94969
126 1 20.4415 4.71707 7.86204 -8.94965
127 1 22.0136 6.28952 6.2895 -8.95007
128 1 1.57074 7.86205 7.86178 -8.95127
129 1 3.14226 6.28867 6.28834 -8.95112
130 1 4.70856 7.8603 7.85955 -8.95879
131 1 6.27878 6.27912 6.27777 -8.93226
132 1 7.82182 7.82682 7.82548 -8.86374
133 1 9.43414 6.28286 6.28503 -8.94804
134 1 11.0192 7.85087 7.83664 -8.90215
135 1 12.584 6.28034 6.28378 -8.95356
136 1 14.165 7.85104 7.85428 -8.93366
137 1 15.7278 6.28641 6.28759 -8.9463
138 1 17.2998 7.86094 7.86195 -8.95153
139 1 18.8699 6.28924 6.28948 -8.94986
140 1 20.4418 7.86193 7.86205 -8.95027
141 1 22.0138 9.43451 6.28943 -8.94981
142 1 3.14353 9.43504 6.28887 -8.94914
143 1 6.28718 9.43806 6.28872 -8.95049
144 1 9.42513 9.41899 6.28862 -8.91556
145 1 12.6176 9.40256 6.24916 -8.87463
146 1 15.7337 9.43195 6.28583 -8.95516
147 1 18.871 9.43428 6.28928 -8.95096
148 1 -5.03931e-05 1.87284e-15 9.43452 -8.94965
149 1 3.14455 2.10323e-15 9.43447 -8.94951
150 1 6.28925 1.70365e-15 9.43432 -8.95075
151 1 9.4348 2.02597e-15 9.43433 -8.94949
152 1 12.5796 1.57531e-15 9.43447 -8.95009
153 1 15.7244 1.38636e-15 9.43454 -8.9496
154 1 18.8691 1.32658e-15 9.43452 -8.94962
155 1 22.0137 3.14467 9.4345 -8.94957
156 1 3.14397 3.14398 9.43432 -8.94941
157 1 6.28772 3.14048 9.43358 -8.95087
158 1 9.4351 3.14235 9.43392 -8.94702
159 1 12.5799 3.14293 9.43434 -8.95122
160 1 15.7247 3.14423 9.43466 -8.94953
161 1 18.8692 3.14466 9.43452 -8.94956
162 1 22.0131 6.28934 9.43439 -8.95017
163 1 3.14005 6.28747 9.43335 -8.94997
164 1 6.27209 6.27241 9.42409 -8.92184
165 1 9.4312 6.28724 9.43266 -9.00523
166 1 12.5833 6.28119 9.42919 -8.9496
167 1 15.7264 6.28791 9.43496 -8.94848
168 1 18.8697 6.28918 9.43458 -8.94947
169 1 22.0133 9.43463 9.43442 -8.9499
170 1 3.14158 9.43557 9.43401 -8.95054
171 1 6.27979 9.43129 9.43455 -8.96901
172 1 9.35441 9.18058 9.44424 -8.05669
173 1 12.5973 9.40728 9.38767 -8.82213
174 1 15.7289 9.43377 9.4336 -8.95292
175 1 18.8703 9.43434 9.4347 -8.94997
176 1 1.57222 1.57227 11.007 -8.94962
177 1 4.71657 1.5715 11.007 -8.94928
178 1 7.86206 1.57029 11.007 -8.95282
179 1 11.0072 1.57153 11.007 -8.94967
180 1 14.1521 1.57203 11.007 -8.9493
181 1 17.2968 1.57225 11.007 -8.94958
182 1 20.4415 1.57237 11.007 -8.94964
183 1 1.57133 4.71661 11.007 -8.94923
184 1 4.71347 4.7134 11.007 -8.94664
185 1 7.85883 4.70391 11.007 -8.96548
186 1 11.0069 4.71386 11.007 -8.9532
187 1 14.1526 4.71612 11.007 -8.94822
188 1 17.2973 4.71658 11.007 -8.94892
189 1 20.4415 4.71702 11.007 -8.94957
190 1 1.56943 7.86187 11.007 -8.95323
191 1 4.70056 7.85763 11.007 -8.96454
192 1 7.78431 7.79593 11.007 -8.75073
193 1 11.0453 7.84769 11.007 -8.84959
194 1 14.157 7.86193 11.007 -8.96374
195 1 17.2985 7.86126 11.007 -8.9497
196 1 20.4415 7.86187 11.007 -8.95019
197 1 -5.03931e-05 1.44012e-15 12.5794 -8.94965
198 1 1.57223 1.57227 14.1519 -8.94964
199 1 3.14455 2.21338e-15 12.5794 -8.94951
200 1 4.7166 1.57152 14.1522 -8.94961
201 1 6.28925 2.0141e-15 12.5796 -8.95075
202 1 7.8621 1.57109 14.1521 -8.95093
203 1 9.4348 1.96634e-15 12.5796 -8.94949
204 1 11.0072 1.57159 14.1521 -8.94956
205 1 12.5796 2.06123e-15 12.5794 -8.95009
206 1 14.1521 1.57179 14.1519 -8.9501
207 1 15.7244 1.19672e-15 12.5794 -8.9496
208 1 17.2968 1.57229 14.1518 -8.94963
209 1 18.8691 1.76371e-15 12.5794 -8.94962
210 1 20.4415 1.57238 14.1518 -8.94962
211 1 22.0137 3.14467 12.5794 -8.94957
212 1 1.57132 4.71661 14.1522 -8.9494
213 1 3.14397 3.14398 12.5796 -8.94941
214 1 4.71308 4.71308 14.155 -8.94305
215 1 6.28772 3.14048 12.5803 -8.95087
216 1 7.86049 4.70974 14.1538 -8.95779
217 1 9.4351 3.14235 12.58 -8.94702
218 1 11.0069 4.7139 14.1528 -8.95031
219 1 12.5799 3.14293 12.5796 -8.95122
220 1 14.1538 4.71373 14.1528 -8.94918
221 1 15.7247 3.14423 12.5792 -8.94953
222 1 17.2973 4.71669 14.1518 -8.94973
223 1 18.8692 3.14466 12.5794 -8.94956
224 1 20.4415 4.71707 14.1519 -8.94965
225 1 22.0131 6.28934 12.5795 -8.95017
226 1 1.57074 7.86205 14.1521 -8.95127
227 1 3.14005 6.28747 12.5806 -8.94997
228 1 4.70856 7.8603 14.1544 -8.95879
229 1 6.27209 6.27241 12.5898 -8.92184
230 1 7.82182 7.82682 14.1884 -8.86374
231 1 9.4312 6.28724 12.5812 -9.00523
232 1 11.0192 7.85087 14.1773 -8.90215
233 1 12.5833 6.28119 12.5847 -8.9496
234 1 14.165 7.85104 14.1596 -8.93366
235 1 15.7264 6.28791 12.5789 -8.94848
236 1 17.2998 7.86094 14.1519 -8.95153
237 1 18.8697 6.28918 12.5793 -8.94947
238 1 20.4418 7.86193 14.1518 -8.95027
239 1 22.0133 9.43463 12.5795 -8.9499
240 1 3.14158 9.43557 12.5799 -8.95054
241 1 6.27979 9.43129 12.5794 -8.96901
242 1 9.35441 9.18058 12.5697 -8.05669
243 1 12.5973 9.40728 12.6262 -8.82213
244 1 15.7289 9.43377 12.5803 -8.95292
245 1 18.8703 9.43434 12.5792 -8.94997
246 1 22.0139 1.40946e-15 15.7242 -8.94965
247 1 1.57225 1.5723 17.2968 -8.94945
248 1 3.14458 1.29705e-15 15.7244 -8.94947
249 1 4.71694 1.57192 17.297 -8.94992
250 1 6.28952 1.91492e-15 15.7245 -8.95026
251 1 7.8621 1.572 17.297 -8.9495
252 1 9.43463 2.11298e-15 15.7245 -8.94993
253 1 11.0071 1.57195 17.297 -8.94954
254 1 12.5795 1.74749e-15 15.7244 -8.95004
255 1 14.152 1.57195 17.2969 -8.95015
256 1 15.7244 1.52572e-15 15.7243 -8.94973
257 1 17.2968 1.57226 17.2967 -8.94958
258 1 18.8691 1.75714e-15 15.7242 -8.94965
259 1 20.4415 1.57238 17.2967 -8.94963
260 1 -0.000189771 3.14469 15.7243 -8.94953
261 1 1.57181 4.71693 17.297 -8.94978
262 1 3.14398 3.144 15.7249 -8.94842
263 1 4.71463 4.71469 17.2996 -8.94523
264 1 6.28882 3.1425 15.7254 -8.95136
265 1 7.8618 4.71545 17.2982 -8.94872
266 1 9.43479 3.14289 15.7252 -8.94978
267 1 11.0072 4.71529 17.2982 -8.94801
268 1 12.5797 3.14301 15.7247 -8.95147
269 1 14.1534 4.71427 17.2984 -8.95017
270 1 15.7248 3.14393 15.7245 -8.94941
271 1 17.2974 4.7165 17.2971 -8.94904
272 1 18.8692 3.1447 15.7242 -8.94969
273 1 20.4415 4.71712 17.2967 -8.9497
274 1 22.0136 6.28952 15.7244 -8.95007
275 1 1.57209 7.86214 17.2969 -8.94956
276 1 3.14226 6.28867 15.7256 -8.95112
277 1 4.71613 7.86256 17.2977 -8.95093
278 1 6.27878 6.27912 15.7361 -8.93226
279 1 7.85851 7.8588 17.3049 -8.95711
280 1 9.43414 6.28286 15.7289 -8.94804
281 1 11.0059 7.85876 17.3039 -8.95186
282 1 12.584 6.28034 15.7301 -8.95356
283 1 14.1626 7.85145 17.3085 -8.93247
284 1 15.7278 6.28641 15.7263 -8.9463
285 1 17.2994 7.86087 17.298 -8.95046
286 1 18.8699 6.28924 15.7244 -8.94986
287 1 20.4419 7.86196 17.2969 -8.9499
288 1 22.0138 9.43451 15.7245 -8.94981
289 1 3.14353 9.43504 15.725 -8.94914
290 1 6.28718 9.43806 15.7252 -8.95049
291 1 9.42513 9.41899 15.7253 -8.91556
292 1 12.6176 9.40256 15.7647 -8.87463
293 1 15.7337 9.43195 15.7281 -8.95516
294 1 18.871 9.43428 15.7246 -8.95096
295 1 -3.51151e-05 9.481e-16 18.8691 -8.94959
296 1 1.57232 1.57234 20.4416 -8.9494
297 1 3.14471 4.5342e-16 18.8692 -8.94962
298 1 4.71724 1.57234 20.4416 -8.9497
299 1 6.28967 1.19968e-15 18.8692 -8.94959
300 1 7.86209 1.57232 20.4416 -8.94961
301 1 9.43453 1.79454e-15 18.8692 -8.94962
302 1 11.007 1.57231 20.4416 -8.94963
303 1 12.5794 1.45873e-15 18.8692 -8.94956
304 1 14.1518 1.57233 20.4416 -8.94958
305 1 15.7243 6.049e-16 18.8692 -8.94978
306 1 17.2967 1.5723 20.4416 -8.9496
307 1 18.8691 3.90769e-16 18.8691 -8.94962
308 1 20.4415 1.57239 20.4415 -8.94958
309 1 22.0138 3.14476 18.8691 -8.94961
310 1 1.57236 4.71724 20.4416 -8.94977
311 1 3.14431 3.14434 18.8696 -8.94861
312 1 4.71682 4.71683 20.4421 -8.94972
313 1 6.28958 3.14443 18.8695 -8.94968
314 1 7.86198 4.71683 20.4419 -8.94922
315 1 9.43451 3.14431 18.8695 -8.94952
316 1 11.0069 4.71677 20.4419 -8.94946
317 1 12.5794 3.14432 18.8694 -8.94929
318 1 14.1519 4.71683 20.4418 -8.9498
319 1 15.7246 3.14414 18.8695 -8.94959
320 1 17.2972 4.71667 20.4419 -8.94858
321 1 18.8692 3.14469 18.8691 -8.94954
322 1 20.4416 4.71719 20.4416 -8.94962
323 1 22.0139 6.28964 18.8692 -8.94969
324 1 1.57234 7.86209 20.4416 -8.94954
325 1 3.14451 6.28968 18.8694 -8.95009
326 1 4.71707 7.86225 20.4417 -8.94964
327 1 6.28825 6.28838 18.8719 -8.95088
328 1 7.86179 7.86194 20.4427 -8.952
329 1 9.43409 6.28821 18.8711 -8.94806
330 1 11.0064 7.86139 20.443 -8.95035
331 1 12.5795 6.28828 18.871 -8.94955
332 1 14.1528 7.861 20.4436 -8.95174
333 1 15.7269 6.28698 18.8718 -8.94531
334 1 17.2972 7.86188 20.4419 -8.94938
335 1 18.8697 6.28933 18.8694 -8.94968
336 1 20.4416 7.86208 20.4416 -8.94959
337 1 -1.35248e-06 9.4345 18.8692 -8.9496
338 1 3.14444 9.43451 18.8695 -8.94919
339 1 6.28936 9.43529 18.8696 -8.94946
340 1 9.4344 9.43469 18.8702 -8.94899
341 1 12.5811 9.43335 18.8769 -8.95955
342 1 15.7263 9.43378 18.8713 -8.94786
343 1 18.8697 9.43442 18.8694 -8.94943
344 1 1.57232 11.007 1.57232 -8.94964
345 1 4.71689 11.007 1.57202 -8.94968
346 1 7.86182 11.007 1.57235 -8.94819
347 1 11.0064 11.007 1.57126 -8.94755
348 1 14.1532 11.007 1.57023 -8.94961
349 1 17.2972 11.007 1.57201 -8.94952
350 1 20.4416 11.007 1.57233 -8.94962
351 1 22.0139 12.5794 1.77676e-15 -8.94964
352 1 1.57234 14.1518 1.57234 -8.94954
353 1 3.14467 12.5794 1.74311e-15 -8.94957
354 1 4.71707 14.1516 1.57219 -8.94964
355 1 6.28943 12.5793 1.77445e-15 -8.94943
356 1 7.86179 14.152 1.57118 -8.952
357 1 9.4342 12.5794 1.3188e-15 -8.94911
358 1 11.0064 14.1525 1.57091 -8.95035
359 1 12.5794 12.5795 -9.12563e-16 -8.95281
360 1 14.1528 14.1529 1.57028 -8.95174
361 1 15.7249 12.5796 5.63335e-16 -8.94921
362 1 17.2972 14.152 1.57203 -8.94938
363 1 18.8693 12.5794 1.60532e-15 -8.94963
364 1 20.4416 14.1518 1.57234 -8.94959
365 1 22.0139 15.7242 1.81621e-15 -8.94961
366 1 1.57236 17.2967 1.57235 -8.94977
367 1 3.14476 15.7242 1.89421e-15 -8.94971
368 1 4.71682 17.2971 1.57183 -8.94972
369 1 6.28937 15.7245 1.44765e-15 -8.95065
370 1 7.86198 17.2971 1.57198 -8.94922
371 1 9.43429 15.7248 1.14704e-15 -8.94952
372 1 11.0069 17.2971 1.57199 -8.94946
373 1 12.5793 15.7247 1.37178e-15 -8.94952
374 1 14.1519 17.2971 1.57206 -8.9498
375 1 15.7249 15.7249 9.16894e-16 -8.94998
376 1 17.2972 17.2972 1.57199 -8.94858
377 1 18.8692 15.7243 1.80684e-15 -8.94968
378 1 20.4416 17.2967 1.57235 -8.94962
379 1 22.0139 18.8691 1.69461e-15 -8.94965
380 1 1.57232 20.4416 1.57234 -8.9494
381 1 3.14468 18.8692 1.60206e-15 -8.94951
382 1 4.71724 20.4416 1.57235 -8.9497
383 1 6.28965 18.8692 1.20367e-15 -8.94952
384 1 7.86209 20.4416 1.57233 -8.94961
385 1 9.43452 18.8693 1.00256e-15 -8.94961
386 1 11.007 20.4416 1.57232 -8.94963
387 1 12.5794 18.8692 1.60158e-15 -8.94956
388 1 14.1518 20.4416 1.57235 -8.94958
389 1 15.7243 18.8692 1.39911e-15 -8.9498
390 1 17.2967 20.4416 1.57233 -8.9496
391 1 18.8692 18.8692 1.52632e-15 -8.94924
392 1 20.4415 20.4415 1.57241 -8.94958
393 1 1.57198 11.007 4.7168 -8.94951
394 1 4.71598 11.007 4.71566 -8.94681
395 1 7.86428 11.007 4.71997 -8.94548
396 1 11.0108 11.007 4.71689 -8.9955
397 1 14.1604 11.007 4.70792 -8.94237
398 1 17.2993 11.007 4.71582 -8.94918
399 1 20.4419 11.007 4.71698 -8.94978
400 1 -1.35248e-06 12.5794 3.1447 -8.9496
401 1 1.57209 14.1518 4.71699 -8.94956
402 1 3.14444 12.5794 3.1444 -8.94919
403 1 4.71613 14.1513 4.71624 -8.95093
404 1 6.28936 12.5786 3.14426 -8.94946
405 1 7.85851 14.1551 4.70901 -8.95711
406 1 9.4344 12.5792 3.14366 -8.94899
407 1 11.0059 14.1551 4.71001 -8.95186
408 1 12.5811 12.5806 3.13705 -8.95955
409 1 14.1626 14.1625 4.70544 -8.93247
410 1 15.7263 12.5801 3.14261 -8.94786
411 1 17.2994 14.153 4.71591 -8.95046
412 1 18.8697 12.5795 3.14445 -8.94943
413 1 20.4419 14.1519 4.71705 -8.9499
414 1 22.0139 15.7243 3.14474 -8.94969
415 1 1.57181 17.297 4.71687 -8.94978
416 1 3.14451 15.7242 3.14451 -8.95009
417 1 4.71463 17.2992 4.71433 -8.94523
418 1 6.28825 15.7255 3.14203 -8.95088
419 1 7.8618 17.2985 4.71565 -8.94872
420 1 9.43409 15.7257 3.14281 -8.94806
421 1 11.0072 17.2986 4.71567 -8.94801
422 1 12.5795 15.7256 3.14291 -8.94955
423 1 14.1534 17.2996 4.71552 -8.95017
424 1 15.7269 15.7269 3.14209 -8.94531
425 1 17.2974 17.2974 4.7168 -8.94904
426 1 18.8697 15.7246 3.14447 -8.94968
427 1 20.4415 17.2968 4.71716 -8.9497
428 1 22.0138 18.8691 3.14475 -8.94961
429 1 1.57225 20.4416 4.71714 -8.94945
430 1 3.14431 18.8696 3.14429 -8.94861
431 1 4.71694 20.442 4.71688 -8.94992
432 1 6.28958 18.8695 3.14445 -8.94968
433 1 7.8621 20.4419 4.71693 -8.9495
434 1 9.43451 18.8696 3.14439 -8.94952
435 1 11.0071 20.4419 4.71689 -8.94954
436 1 12.5794 18.8696 3.14445 -8.94929
437 1 14.152 20.442 4.71704 -8.95015
438 1 15.7246 18.8698 3.1444 -8.94959
439 1 17.2968 20.4416 4.71719 -8.94958
440 1 18.8692 18.8692 3.14476 -8.94954
441 1 20.4415 20.4415 4.71725 -8.94963
442 1 1.57158 11.007 7.86146 -8.94818
443 1 4.71728 11.007 7.86114 -8.93987
444 1 7.88021 11.007 7.87641 -8.85516
445 1 11.1062 11.007 7.66024 -8.20425
446 1 14.1697 11.007 7.84984 -8.96642
447 1 17.3012 11.007 7.86165 -8.95164
448 1 20.4422 11.007 7.86201 -8.95013
449 1 22.0138 12.5794 6.28943 -8.94981
450 1 1.57074 14.1519 7.86178 -8.95127
451 1 3.14353 12.5789 6.28887 -8.94914
452 1 4.70856 14.1536 7.85955 -8.95879
453 1 6.28718 12.5758 6.28872 -8.95049
454 1 7.82182 14.1871 7.82548 -8.86374
455 1 9.42513 12.5949 6.28862 -8.91556
456 1 11.0192 14.163 7.83664 -8.90215
457 1 12.6176 12.6113 6.24916 -8.87463
458 1 14.165 14.1629 7.85428 -8.93366
459 1 15.7337 12.5819 6.28583 -8.95516
460 1 17.2998 14.153 7.86195 -8.95153
461 1 18.871 12.5796 6.28928 -8.95096
462 1 20.4418 14.152 7.86205 -8.95027
463 1 22.0136 15.7244 6.2895 -8.95007
464 1 1.57132 17.2973 7.86167 -8.9494
465 1 3.14226 15.7252 6.28834 -8.95112
466 1 4.71308 17.3008 7.85894 -8.94305
467 1 6.27878 15.7348 6.27777 -8.93226
468 1 7.86049 17.3042 7.86015 -8.95779
469 1 9.43414 15.731 6.28503 -8.94804
470 1 11.0069 17.3 7.86107 -8.95031
471 1 12.584 15.7336 6.28378 -8.95356
472 1 14.1538 17.3002 7.86113 -8.94918
473 1 15.7278 15.7275 6.28759 -8.9463
474 1 17.2973 17.2972 7.86212 -8.94973
475 1 18.8699 15.7247 6.28948 -8.94986
476 1 20.4415 17.2968 7.86204 -8.94965
477 1 -0.000189771 18.8692 6.28959 -8.94953
478 1 1.57223 20.4416 7.86205 -8.94964
479 1 3.14398 18.8699 6.28902 -8.94842
480 1 4.7166 20.4424 7.86166 -8.94961
481 1 6.28882 18.8714 6.28852 -8.95136
482 1 7.8621 20.4428 7.8618 -8.95093
483 1 9.43479 18.871 6.28873 -8.94978
484 1 11.0072 20.4423 7.86182 -8.94956
485 1 12.5797 18.8709 6.28922 -8.95147
486 1 14.1521 20.4421 7.86198 -8.9501
487 1 15.7248 18.87 6.2894 -8.94941
488 1 17.2968 20.4416 7.86211 -8.94963
489 1 18.8692 18.8692 6.28966 -8.94969
490 1 20.4415 20.4415 7.8621 -8.94962
491 1 22.0133 12.5793 9.43442 -8.9499
492 1 3.14158 12.5783 9.43401 -8.95054
493 1 6.27979 12.5826 9.43455 -8.96901
494 1 9.35441 12.8333 9.44424 -8.05669
495 1 12.5973 12.6066 9.38767 -8.82213
496 1 15.7289 12.5801 9.4336 -8.95292
497 1 18.8703 12.5796 9.4347 -8.94997
498 1 22.0131 15.7246 9.43439 -8.95017
499 1 3.14005 15.7264 9.43335 -8.94997
500 1 6.27209 15.7415 9.42409 -8.92184
501 1 9.4312 15.7267 9.43266 -9.00523
502 1 12.5833 15.7327 9.42919 -8.9496
503 1 15.7264 15.726 9.43496 -8.94848
504 1 18.8697 15.7247 9.43458 -8.94947
505 1 22.0137 18.8692 9.4345 -8.94957
506 1 3.14397 18.8699 9.43432 -8.94941
507 1 6.28772 18.8734 9.43358 -8.95087
508 1 9.4351 18.8715 9.43392 -8.94702
509 1 12.5799 18.871 9.43434 -8.95122
510 1 15.7247 18.8697 9.43466 -8.94953
511 1 18.8692 18.8692 9.43452 -8.94956
688 3 10.1205 11.007 9.39596 2.39139
512 1 1.57145 11.007 11.007 -8.94698
513 1 4.71919 11.007 11.007 -8.9363
514 1 7.8882 11.007 11.007 -8.74506
515 1 11.2873 11.007 11.007 -7.32703
516 1 14.1466 11.007 11.007 -9.0164
517 1 17.2975 11.007 11.007 -8.94664
518 1 20.4417 11.007 11.007 -8.94902
519 1 1.56943 14.152 11.007 -8.95323
520 1 4.70056 14.1563 11.007 -8.96454
521 1 7.78431 14.218 11.007 -8.75073
522 1 11.0453 14.1662 11.007 -8.84959
523 1 14.157 14.152 11.007 -8.96374
524 1 17.2985 14.1526 11.007 -8.9497
525 1 20.4415 14.152 11.007 -8.95019
526 1 1.57133 17.2973 11.007 -8.94923
527 1 4.71347 17.3005 11.007 -8.94664
528 1 7.85883 17.31 11.007 -8.96548
529 1 11.0069 17.3 11.007 -8.9532
530 1 14.1526 17.2978 11.007 -8.94822
531 1 17.2973 17.2973 11.007 -8.94892
532 1 20.4415 17.2969 11.007 -8.94957
533 1 1.57222 20.4416 11.007 -8.94962
534 1 4.71657 20.4424 11.007 -8.94928
535 1 7.86206 20.4436 11.007 -8.95282
536 1 11.0072 20.4424 11.007 -8.94967
537 1 14.1521 20.4419 11.007 -8.9493
538 1 17.2968 20.4416 11.007 -8.94958
539 1 20.4415 20.4415 11.007 -8.94964
540 1 1.57158 11.007 14.1524 -8.94818
541 1 4.71728 11.007 14.1528 -8.93987
542 1 7.88021 11.007 14.1375 -8.85516
543 1 11.1062 11.007 14.3537 -8.20425
544 1 14.1697 11.007 14.1641 -8.96642
545 1 17.3012 11.007 14.1522 -8.95164
546 1 20.4422 11.007 14.1519 -8.95013
547 1 22.0133 12.5793 12.5795 -8.9499
548 1 1.57074 14.1519 14.1521 -8.95127
549 1 3.14158 12.5783 12.5799 -8.95054
550 1 4.70856 14.1536 14.1544 -8.95879
551 1 6.27979 12.5826 12.5794 -8.96901
552 1 7.82182 14.1871 14.1884 -8.86374
553 1 9.35441 12.8333 12.5697 -8.05669
554 1 11.0192 14.163 14.1773 -8.90215
555 1 12.5973 12.6066 12.6262 -8.82213
556 1 14.165 14.1629 14.1596 -8.93366
557 1 15.7289 12.5801 12.5803 -8.95292
558 1 17.2998 14.153 14.1519 -8.95153
559 1 18.8703 12.5796 12.5792 -8.94997
560 1 20.4418 14.152 14.1518 -8.95027
561 1 22.0131 15.7246 12.5795 -8.95017
562 1 1.57132 17.2973 14.1522 -8.9494
563 1 3.14005 15.7264 12.5806 -8.94997
564 1 4.71308 17.3008 14.155 -8.94305
565 1 6.27209 15.7415 12.5898 -8.92184
566 1 7.86049 17.3042 14.1538 -8.95779
567 1 9.4312 15.7267 12.5812 -9.00523
568 1 11.0069 17.3 14.1528 -8.95031
569 1 12.5833 15.7327 12.5847 -8.9496
570 1 14.1538 17.3002 14.1528 -8.94918
571 1 15.7264 15.726 12.5789 -8.94848
572 1 17.2973 17.2972 14.1518 -8.94973
573 1 18.8697 15.7247 12.5793 -8.94947
574 1 20.4415 17.2968 14.1519 -8.94965
575 1 22.0137 18.8692 12.5794 -8.94957
576 1 1.57223 20.4416 14.1519 -8.94964
577 1 3.14397 18.8699 12.5796 -8.94941
578 1 4.7166 20.4424 14.1522 -8.94961
579 1 6.28772 18.8734 12.5803 -8.95087
580 1 7.8621 20.4428 14.1521 -8.95093
581 1 9.4351 18.8715 12.58 -8.94702
582 1 11.0072 20.4423 14.1521 -8.94956
583 1 12.5799 18.871 12.5796 -8.95122
584 1 14.1521 20.4421 14.1519 -8.9501
585 1 15.7247 18.8697 12.5792 -8.94953
586 1 17.2968 20.4416 14.1518 -8.94963
587 1 18.8692 18.8692 12.5794 -8.94956
588 1 20.4415 20.4415 14.1518 -8.94962
589 1 1.57198 11.007 17.2971 -8.94951
590 1 4.71598 11.007 17.2982 -8.94681
591 1 7.86428 11.007 17.2939 -8.94548
592 1 11.0108 11.007 17.297 -8.9955
593 1 14.1604 11.007 17.306 -8.94237
594 1 17.2993 11.007 17.2981 -8.94918
595 1 20.4419 11.007 17.2969 -8.94978
596 1 22.0138 12.5794 15.7245 -8.94981
597 1 1.57209 14.1518 17.2969 -8.94956
598 1 3.14353 12.5789 15.725 -8.94914
599 1 4.71613 14.1513 17.2977 -8.95093
600 1 6.28718 12.5758 15.7252 -8.95049
601 1 7.85851 14.1551 17.3049 -8.95711
602 1 9.42513 12.5949 15.7253 -8.91556
603 1 11.0059 14.1551 17.3039 -8.95186
604 1 12.6176 12.6113 15.7647 -8.87463
605 1 14.1626 14.1625 17.3085 -8.93247
606 1 15.7337 12.5819 15.7281 -8.95516
607 1 17.2994 14.153 17.298 -8.95046
608 1 18.871 12.5796 15.7246 -8.95096
609 1 20.4419 14.1519 17.2969 -8.9499
610 1 22.0136 15.7244 15.7244 -8.95007
611 1 1.57181 17.297 17.297 -8.94978
612 1 3.14226 15.7252 15.7256 -8.95112
613 1 4.71463 17.2992 17.2996 -8.94523
614 1 6.27878 15.7348 15.7361 -8.93226
615 1 7.8618 17.2985 17.2982 -8.94872
616 1 9.43414 15.731 15.7289 -8.94804
617 1 11.0072 17.2986 17.2982 -8.94801
618 1 12.584 15.7336 15.7301 -8.95356
619 1 14.1534 17.2996 17.2984 -8.95017
620 1 15.7278 15.7275 15.7263 -8.9463
621 1 17.2974 17.2974 17.2971 -8.94904
622 1 18.8699 15.7247 15.7244 -8.94986
623 1 20.4415 17.2968 17.2967 -8.9497
624 1 -0.000189771 18.8692 15.7243 -8.94953
625 1 1.57225 20.4416 17.2968 -8.94945
626 1 3.14398 18.8699 15.7249 -8.94842
627 1 4.71694 20.442 17.297 -8.94992
628 1 6.28882 18.8714 15.7254 -8.95136
629 1 7.8621 20.4419 17.297 -8.9495
630 1 9.43479 18.871 15.7252 -8.94978
631 1 11.0071 20.4419 17.297 -8.94954
632 1 12.5797 18.8709 15.7247 -8.95147
633 1 14.152 20.442 17.2969 -8.95015
634 1 15.7248 18.87 15.7245 -8.94941
635 1 17.2968 20.4416 17.2967 -8.94958
636 1 18.8692 18.8692 15.7242 -8.94969
637 1 20.4415 20.4415 17.2967 -8.94963
638 1 1.57232 11.007 20.4416 -8.94964
639 1 4.71689 11.007 20.4419 -8.94968
640 1 7.86182 11.007 20.4415 -8.94819
641 1 11.0064 11.007 20.4426 -8.94755
642 1 14.1532 11.007 20.4437 -8.94961
643 1 17.2972 11.007 20.4419 -8.94952
644 1 20.4416 11.007 20.4416 -8.94962
645 1 -1.35248e-06 12.5794 18.8692 -8.9496
646 1 1.57234 14.1518 20.4416 -8.94954
647 1 3.14444 12.5794 18.8695 -8.94919
648 1 4.71707 14.1516 20.4417 -8.94964
649 1 6.28936 12.5786 18.8696 -8.94946
650 1 7.86179 14.152 20.4427 -8.952
651 1 9.4344 12.5792 18.8702 -8.94899
652 1 11.0064 14.1525 20.443 -8.95035
653 1 12.5811 12.5806 18.8769 -8.95955
654 1 14.1528 14.1529 20.4436 -8.95174
655 1 15.7263 12.5801 18.8713 -8.94786
656 1 17.2972 14.152 20.4419 -8.94938
657 1 18.8697 12.5795 18.8694 -8.94943
658 1 20.4416 14.1518 20.4416 -8.94959
659 1 22.0139 15.7243 18.8692 -8.94969
660 1 1.57236 17.2967 20.4416 -8.94977
661 1 3.14451 15.7242 18.8694 -8.95009
662 1 4.71682 17.2971 20.4421 -8.94972
663 1 6.28825 15.7255 18.8719 -8.95088
664 1 7.86198 17.2971 20.4419 -8.94922
665 1 9.43409 15.7257 18.8711 -8.94806
666 1 11.0069 17.2971 20.4419 -8.94946
667 1 12.5795 15.7256 18.871 -8.94955
668 1 14.1519 17.2971 20.4418 -8.9498
669 1 15.7269 15.7269 18.8718 -8.94531
670 1 17.2972 17.2972 20.4419 -8.94858
671 1 18.8697 15.7246 18.8694 -8.94968
672 1 20.4416 17.2967 20.4416 -8.94962
673 1 22.0138 18.8691 18.8691 -8.94961
674 1 1.57232 20.4416 20.4416 -8.9494
675 1 3.14431 18.8696 18.8696 -8.94861
676 1 4.71724 20.4416 20.4416 -8.9497
677 1 6.28958 18.8695 18.8695 -8.94968
678 1 7.86209 20.4416 20.4416 -8.94961
679 1 9.43451 18.8696 18.8695 -8.94952
680 1 11.007 20.4416 20.4416 -8.94963
681 1 12.5794 18.8696 18.8694 -8.94929
682 1 14.1518 20.4416 20.4416 -8.94958
683 1 15.7246 18.8698 18.8695 -8.94959
684 1 17.2967 20.4416 20.4416 -8.9496
685 1 18.8692 18.8692 18.8691 -8.94954
686 1 20.4415 20.4415 20.4415 -8.94958
687 3 10.1205 11.007 12.6179 2.39139
