ITEM: TIMESTEP
78
ITEM: NUMBER OF ATOMS
688
ITEM: BOX BOUNDS pp pp pp
0.0000000000000000e+00 2.2013900999999997e+01
0.0000000000000000e+00 2.2013900999999997e+01
0.0000000000000000e+00 2.2013900999999997e+01
ITEM: ATOMS id type x y z c_pot
1 1 22.0137 8.82645e-16 9.26692e-16 -8.94907
2 1 1.57185 1.57202 1.57201 -8.94907
3 1 3.1445 1.64352e-15 6.23626e-16 -8.94964
4 1 4.71685 1.57198 1.57195 -8.94956
5 1 6.28949 1.76167e-15 5.12999e-16 -8.94948
6 1 7.86193 1.57191 1.57195 -8.94944
7 1 9.43448 1.59194e-15 3.00931e-16 -8.94953
8 1 11.007 1.57187 1.57196 -8.94948
9 1 12.5795 1.84498e-15 1.00333e-15 -8.9495
10 1 14.1521 1.57186 1.57204 -8.94945
11 1 15.7245 1.78786e-15 -5.93074e-16 -8.94957
12 1 17.2972 1.57179 1.57202 -8.9495
13 1 18.8694 1.20125e-15 1.40029e-15 -8.94927
14 1 20.4416 1.57213 1.57226 -8.94932
15 1 22.0139 3.14456 1.72584e-15 -8.9496
16 1 1.57208 4.71704 1.572 -8.94992
17 1 3.14409 3.14416 1.76306e-15 -8.94948
18 1 4.71599 4.71618 1.57097 -8.95005
19 1 6.28927 3.14413 1.19353e-15 -8.94935
20 1 7.86147 4.71601 1.57125 -8.94907
21 1 9.43436 3.14394 8.35114e-16 -8.94945
22 1 11.0068 4.71577 1.57129 -8.94929
23 1 12.5795 3.14392 1.29962e-15 -8.94935
24 1 14.1525 4.71557 1.5712 -8.94978
25 1 15.7248 3.14384 2.25383e-17 -8.94971
26 1 17.2985 4.71539 1.5713 -8.9482
27 1 18.8699 3.14402 1.40368e-15 -8.94881
28 1 20.4421 4.71675 1.57208 -8.94951
29 1 22.0141 6.28951 1.83617e-15 -8.94947
30 1 1.57221 7.86206 1.57208 -8.94937
31 1 3.14449 6.28976 1.73044e-15 -8.94986
32 1 4.71684 7.86255 1.57193 -8.94969
33 1 6.28892 6.28925 1.50894e-15 -8.95143
34 1 7.86164 7.86208 1.57083 -8.95261
35 1 9.43383 6.28847 8.96549e-16 -8.94965
36 1 11.0062 7.86094 1.57007 -8.95105
37 1 12.5794 6.28836 7.58921e-16 -8.94985
38 1 14.1539 7.86001 1.56891 -8.95221
39 1 15.726 6.2878 1.0455e-15 -8.95023
40 1 17.2987 7.86101 1.5712 -8.94897
41 1 18.8702 6.28899 1.56055e-15 -8.94937
42 1 20.4422 7.86179 1.57201 -8.94942
43 1 22.0141 9.43445 1.81266e-15 -8.94953
44 1 3.14438 9.43455 1.67025e-15 -8.94952
45 1 6.2893 9.43493 1.72383e-15 -8.94918
46 1 9.43407 9.43479 1.48728e-15 -8.9484
47 1 12.5796 9.43429 6.02334e-16 -8.95332
48 1 15.7264 9.43376 1.58169e-15 -8.94911
49 1 18.8703 9.43427 1.66918e-15 -8.94939
50 1 -0.000339417 1.52431e-15 3.14454 -8.94929
51 1 1.57146 1.57185 4.71647 -8.94905
52 1 3.14412 1.28338e-15 3.14407 -8.94959
53 1 4.71615 1.57114 4.71588 -8.95005
54 1 6.28939 1.77067e-15 3.1441 -8.94946
55 1 7.86188 1.57122 4.71606 -8.94945
56 1 9.43455 1.76319e-15 3.14408 -8.94949
57 1 11.0073 1.57124 4.71613 -8.94946
58 1 12.5797 1.91112e-15 3.14418 -8.94944
59 1 14.1525 1.57115 4.71651 -8.9505
60 1 15.7247 1.57553e-15 3.14434 -8.94997
61 1 17.2974 1.57169 4.71682 -8.9495
62 1 18.8694 6.30702e-16 3.14459 -8.94948
63 1 20.4414 1.57209 4.71701 -8.94952
64 1 22.0135 3.14436 3.14431 -8.94957
65 1 1.57074 4.71629 4.71593 -8.94996
66 1 3.14322 3.14343 3.14315 -8.94818
67 1 4.71229 4.71268 4.71181 -8.94463
68 1 6.28892 3.14342 3.14335 -8.94938
69 1 7.8606 4.71342 4.7137 -8.94809
70 1 9.43437 3.1433 3.14348 -8.94932
71 1 11.0073 4.71346 4.71392 -8.94755
72 1 12.5798 3.1432 3.14362 -8.94906
73 1 14.1553 4.71162 4.71328 -8.94971
74 1 15.7256 3.14276 3.14346 -8.94943
75 1 17.299 4.71495 4.71581 -8.94885
76 1 18.8698 3.14398 3.14436 -8.94938
77 1 20.4418 4.71656 4.71674 -8.94984
78 1 22.014 6.28942 3.14432 -8.94972
79 1 1.57175 7.86222 4.71648 -8.94961
80 1 3.14383 6.28957 3.14371 -8.95042
81 1 4.71532 7.86275 4.71552 -8.95144
82 1 6.28707 6.28752 3.14025 -8.95155
83 1 7.85757 7.85757 4.7077 -8.95805
84 1 9.43355 6.28701 3.14127 -8.94797
85 1 11.0069 7.85718 4.70714 -8.95304
86 1 12.5804 6.28665 3.1406 -8.9498
87 1 14.1656 7.84928 4.70191 -8.93331
88 1 15.7291 6.28485 3.14001 -8.94514
89 1 17.302 7.85947 4.71428 -8.95013
90 1 18.871 6.28845 3.14371 -8.94953
91 1 20.4428 7.8616 4.71649 -8.94995
92 1 0.000240707 9.43441 3.14419 -8.9495
93 1 3.14413 9.43464 3.14393 -8.94896
94 1 6.28963 9.43579 3.14468 -8.94929
95 1 9.43489 9.43482 3.14462 -8.94842
96 1 12.5825 9.43305 3.13518 -8.96008
97 1 15.729 9.43281 3.14022 -8.94743
98 1 18.8712 9.43406 3.14358 -8.94924
99 1 22.0134 1.34559e-15 6.28938 -8.9495
100 1 1.57125 1.57172 7.86159 -8.94938
101 1 3.14358 1.62739e-15 6.28869 -8.94933
102 1 4.7153 1.57025 7.86072 -8.94975
103 1 6.28912 1.29847e-15 6.28867 -8.95048
104 1 7.86188 1.57009 7.86128 -8.95116
105 1 9.43477 1.82073e-15 6.28872 -8.95008
106 1 11.0073 1.57095 7.86151 -8.94959
107 1 12.5798 1.38789e-15 6.28915 -8.95021
108 1 14.1527 1.57103 7.86179 -8.9505
109 1 15.7249 1.77572e-15 6.28935 -8.94993
110 1 17.2972 1.57189 7.8621 -8.94958
111 1 18.8693 1.17244e-15 6.28959 -8.94962
112 1 20.4413 1.57207 7.86196 -8.94949
113 1 -0.000866622 3.14408 6.28909 -8.9494
114 1 1.56938 4.71547 7.86076 -8.94935
115 1 3.14215 3.14248 6.28755 -8.94762
116 1 4.70929 4.70969 7.8564 -8.94146
117 1 6.28755 3.14046 6.28707 -8.9516
118 1 7.85848 4.70678 7.85876 -8.95824
119 1 9.43456 3.14122 6.28761 -8.94998
120 1 11.0068 4.71205 7.85967 -8.95123
121 1 12.5801 3.14143 6.28842 -8.95188
122 1 14.1557 4.71132 7.85946 -8.94821
123 1 15.7259 3.1424 6.28869 -8.94919
124 1 17.2984 4.71565 7.86191 -8.94978
125 1 18.8696 3.14405 6.28945 -8.94967
126 1 20.4413 4.71644 7.86183 -8.94975
127 1 22.0131 6.28918 6.28904 -8.95042
128 1 1.56952 7.86202 7.86143 -8.95186
129 1 3.14001 6.28773 6.28689 -8.95165
130 1 4.70579 7.8591 7.85875 -8.96018
131 1 6.27488 6.27573 6.27425 -8.93123
132 1 7.81726 7.82163 7.8227 -8.85833
133 1 9.43278 6.27974 6.28232 -8.94697
134 1 11.0238 7.84508 7.82994 -8.89593
135 1 12.5871 6.2769 6.27916 -8.95146
136 1 14.168 7.84933 7.85084 -8.93565
137 1 15.7307 6.284 6.28553 -8.94637
138 1 17.3015 7.86031 7.86146 -8.95216
139 1 18.8711 6.28846 6.28906 -8.9502
140 1 20.4421 7.86174 7.86195 -8.95052
141 1 22.014 9.43453 6.28898 -8.94976
142 1 3.14332 9.43547 6.28859 -8.94903
143 1 6.28806 9.43861 6.29004 -8.95071
144 1 9.42649 9.41651 6.29109 -8.91668
145 1 12.6197 9.4033 6.2463 -8.8829
146 1 15.7373 9.43076 6.28268 -8.95438
147 1 18.8728 9.43393 6.28856 -8.95112
148 1 -0.000544698 1.37822e-15 9.43441 -8.94951
149 1 3.14341 1.13732e-15 9.43415 -8.94932
150 1 6.28859 1.7217e-15 9.434 -8.95134
151 1 9.43499 1.44736e-15 9.43411 -8.94901
152 1 12.5799 1.59647e-15 9.43449 -8.95026
153 1 15.7249 1.27108e-15 9.43457 -8.94947
154 1 18.8693 1.12169e-15 9.43449 -8.94952
155 1 22.0129 3.14397 9.4343 -8.9494
156 1 3.1419 3.14226 9.43369 -8.94899
157 1 6.28564 3.13752 9.43281 -8.95145
158 1 9.4347 3.14147 9.43355 -8.94693
159 1 12.5803 3.14188 9.43411 -8.95185
160 1 15.7253 3.14346 9.43468 -8.9494
161 1 18.8695 3.14407 9.43449 -8.9494
162 1 22.0119 6.28878 9.43419 -8.95055
163 1 3.13629 6.2855 9.43244 -8.95025
164 1 6.26586 6.26672 9.42158 -8.91831
165 1 9.42995 6.28498 9.43179 -9.00872
166 1 12.5866 6.27831 9.4259 -8.94556
167 1 15.7279 6.287 9.43452 -8.94887
168 1 18.8702 6.28864 9.43463 -8.94972
169 1 22.0131 9.4348 9.43434 -8.94948
170 1 3.14156 9.43587 9.43404 -8.95011
171 1 6.28243 9.4297 9.43533 -8.96848
172 1 9.35899 9.15768 9.44529 -8.05789
173 1 12.595 9.40808 9.38478 -8.83113
174 1 15.7284 9.43422 9.43239 -8.95259
175 1 18.8706 9.43443 9.43471 -8.94971
176 1 1.57119 1.57169 11.007 -8.94939
177 1 4.71511 1.57015 11.007 -8.94923
178 1 7.86178 1.56923 11.007 -8.95335
179 1 11.0072 1.57122 11.007 -8.94953
180 1 14.1526 1.57162 11.007 -8.94904
181 1 17.2973 1.57189 11.007 -8.94948
182 1 20.4413 1.57204 11.007 -8.94952
183 1 1.5692 4.71535 11.007 -8.94905
184 1 4.70944 4.70982 11.007 -8.9455
185 1 7.85603 4.7006 11.007 -8.96657
186 1 11.0069 4.71297 11.007 -8.95479
187 1 14.1534 4.7154 11.007 -8.94714
188 1 17.298 4.71582 11.007 -8.94862
189 1 20.4412 4.71632 11.007 -8.94954
190 1 1.56753 7.86165 11.007 -8.95416
191 1 4.69641 7.8552 11.007 -8.96664
192 1 7.77526 7.78826 11.007 -8.73717
193 1 11.0558 7.84086 11.007 -8.83307
194 1 14.1588 7.86249 11.007 -8.96679
195 1 17.299 7.86138 11.007 -8.95061
196 1 20.4413 7.86172 11.007 -8.95036
197 1 -0.000544698 1.24376e-15 12.5795 -8.94951
198 1 1.57125 1.57172 14.1523 -8.94938
199 1 3.14341 1.21867e-15 12.5798 -8.94932
200 1 4.7153 1.57025 14.1532 -8.94975
201 1 6.28859 1.76268e-15 12.5799 -8.95134
202 1 7.86188 1.57009 14.1526 -8.95116
203 1 9.43499 1.17992e-15 12.5798 -8.94901
204 1 11.0073 1.57095 14.1524 -8.94959
205 1 12.5799 1.73423e-15 12.5794 -8.95026
206 1 14.1527 1.57103 14.1521 -8.9505
207 1 15.7249 1.41286e-15 12.5793 -8.94947
208 1 17.2972 1.57189 14.1518 -8.94958
209 1 18.8693 1.73805e-15 12.5794 -8.94952
210 1 20.4413 1.57207 14.1519 -8.94949
211 1 22.0129 3.14397 12.5796 -8.9494
212 1 1.56938 4.71547 14.1531 -8.94935
213 1 3.1419 3.14226 12.5802 -8.94899
214 1 4.70929 4.70969 14.1575 -8.94146
215 1 6.28564 3.13752 12.5811 -8.95145
216 1 7.85848 4.70678 14.1551 -8.95824
217 1 9.4347 3.14147 12.5803 -8.94693
218 1 11.0068 4.71205 14.1542 -8.95123
219 1 12.5803 3.14188 12.5798 -8.95185
220 1 14.1557 4.71132 14.1544 -8.94821
221 1 15.7253 3.14346 12.5792 -8.9494
222 1 17.2984 4.71565 14.152 -8.94978
223 1 18.8695 3.14407 12.5794 -8.9494
224 1 20.4413 4.71644 14.1521 -8.94975
225 1 22.0119 6.28878 12.5797 -8.95055
226 1 1.56952 7.86202 14.1525 -8.95186
227 1 3.13629 6.2855 12.5815 -8.95025
228 1 4.70579 7.8591 14.1552 -8.96018
229 1 6.26586 6.26672 12.5923 -8.91831
230 1 7.81726 7.82163 14.1912 -8.85833
231 1 9.42995 6.28498 12.5821 -9.00872
232 1 11.0238 7.84508 14.184 -8.89593
233 1 12.5866 6.27831 12.588 -8.94556
234 1 14.168 7.84933 14.1631 -8.93565
235 1 15.7279 6.287 12.5794 -8.94887
236 1 17.3015 7.86031 14.1524 -8.95216
237 1 18.8702 6.28864 12.5793 -8.94972
238 1 20.4421 7.86174 14.152 -8.95052
239 1 22.0131 9.4348 12.5796 -8.94948
240 1 3.14156 9.43587 12.5799 -8.95011
241 1 6.28243 9.4297 12.5786 -8.96848
242 1 9.35899 9.15768 12.5686 -8.05789
243 1 12.595 9.40808 12.6291 -8.83113
244 1 15.7284 9.43422 12.5815 -8.95259
245 1 18.8706 9.43443 12.5792 -8.94971
246 1 22.0134 1.41272e-15 15.7245 -8.9495
247 1 1.57146 1.57185 17.2974 -8.94905
248 1 3.14358 1.5754e-15 15.7252 -8.94933
249 1 4.71615 1.57114 17.298 -8.95005
250 1 6.28912 1.64697e-15 15.7252 -8.95048
251 1 7.86188 1.57122 17.2978 -8.94945
252 1 9.43477 1.6886e-15 15.7252 -8.95008
253 1 11.0073 1.57124 17.2978 -8.94946
254 1 12.5798 1.05781e-15 15.7248 -8.95021
255 1 14.1525 1.57115 17.2974 -8.9505
256 1 15.7249 1.7674e-15 15.7246 -8.94993
257 1 17.2974 1.57169 17.2971 -8.9495
258 1 18.8693 1.72076e-15 15.7243 -8.94962
259 1 20.4414 1.57209 17.2969 -8.94952
260 1 -0.000866622 3.14408 15.7248 -8.9494
261 1 1.57074 4.71629 17.298 -8.94996
262 1 3.14215 3.14248 15.7264 -8.94762
263 1 4.71229 4.71268 17.3021 -8.94463
264 1 6.28755 3.14046 15.7268 -8.9516
265 1 7.8606 4.71342 17.3002 -8.94809
266 1 9.43456 3.14122 15.7263 -8.94998
267 1 11.0073 4.71346 17.3 -8.94755
268 1 12.5801 3.14143 15.7255 -8.95188
269 1 14.1553 4.71162 17.3006 -8.94971
270 1 15.7259 3.1424 15.7252 -8.94919
271 1 17.299 4.71495 17.2981 -8.94885
272 1 18.8696 3.14405 15.7244 -8.94967
273 1 20.4418 4.71656 17.2972 -8.94984
274 1 22.0131 6.28918 15.7249 -8.95042
275 1 1.57175 7.86222 17.2974 -8.94961
276 1 3.14001 6.28773 15.727 -8.95165
277 1 4.71532 7.86275 17.2984 -8.95144
278 1 6.27488 6.27573 15.7396 -8.93123
279 1 7.85757 7.85757 17.3062 -8.95805
280 1 9.43278 6.27974 15.7316 -8.94697
281 1 11.0069 7.85718 17.3068 -8.95304
282 1 12.5871 6.2769 15.7347 -8.95146
283 1 14.1656 7.84928 17.312 -8.93331
284 1 15.7307 6.284 15.7284 -8.94637
285 1 17.302 7.85947 17.2996 -8.95013
286 1 18.8711 6.28846 15.7248 -8.9502
287 1 20.4428 7.8616 17.2974 -8.94995
288 1 22.014 9.43453 15.7249 -8.94976
289 1 3.14332 9.43547 15.7253 -8.94903
290 1 6.28806 9.43861 15.7239 -8.95071
291 1 9.42649 9.41651 15.7228 -8.91668
292 1 12.6197 9.4033 15.7676 -8.8829
293 1 15.7373 9.43076 15.7312 -8.95438
294 1 18.8728 9.43393 15.7253 -8.95112
295 1 -0.000339417 1.72697e-15 18.8694 -8.94929
296 1 1.57185 1.57202 20.4419 -8.94907
297 1 3.14412 1.76143e-15 18.8698 -8.94959
298 1 4.71685 1.57198 20.442 -8.94956
299 1 6.28939 1.84777e-15 18.8698 -8.94946
300 1 7.86193 1.57191 20.442 -8.94944
301 1 9.43455 1.81279e-15 18.8698 -8.94949
302 1 11.007 1.57187 20.4419 -8.94948
303 1 12.5797 1.83815e-15 18.8697 -8.94944
304 1 14.1521 1.57186 20.4419 -8.94945
305 1 15.7247 1.62145e-15 18.8696 -8.94997
306 1 17.2972 1.57179 20.4419 -8.9495
307 1 18.8694 6.66969e-16 18.8693 -8.94948
308 1 20.4416 1.57213 20.4416 -8.94932
309 1 22.0135 3.14436 18.8696 -8.94957
310 1 1.57208 4.71704 20.4419 -8.94992
311 1 3.14322 3.14343 18.8708 -8.94818
312 1 4.71599 4.71618 20.4429 -8.95005
313 1 6.28892 3.14342 18.8705 -8.94938
314 1 7.86147 4.71601 20.4427 -8.94907
315 1 9.43437 3.1433 18.8704 -8.94932
316 1 11.0068 4.71577 20.4426 -8.94929
317 1 12.5798 3.1432 18.8703 -8.94906
318 1 14.1525 4.71557 20.4427 -8.94978
319 1 15.7256 3.14276 18.8704 -8.94943
320 1 17.2985 4.71539 20.4426 -8.9482
321 1 18.8698 3.14398 18.8695 -8.94938
322 1 20.4421 4.71675 20.4418 -8.94951
323 1 22.014 6.28942 18.8696 -8.94972
324 1 1.57221 7.86206 20.4418 -8.94937
325 1 3.14383 6.28957 18.8702 -8.95042
326 1 4.71684 7.86255 20.442 -8.94969
327 1 6.28707 6.28752 18.8736 -8.95155
328 1 7.86164 7.86208 20.4431 -8.95261
329 1 9.43355 6.28701 18.8726 -8.94797
330 1 11.0062 7.86094 20.4438 -8.95105
331 1 12.5804 6.28665 18.8733 -8.9498
332 1 14.1539 7.86001 20.445 -8.95221
333 1 15.7291 6.28485 18.8739 -8.94514
334 1 17.2987 7.86101 20.4427 -8.94897
335 1 18.871 6.28845 18.8702 -8.94953
336 1 20.4422 7.86179 20.4419 -8.94942
337 1 0.000240707 9.43441 18.8697 -8.9495
338 1 3.14413 9.43464 18.87 -8.94896
339 1 6.28963 9.43579 18.8692 -8.94929
340 1 9.43489 9.43482 18.8693 -8.94842
341 1 12.5825 9.43305 18.8787 -8.96008
342 1 15.729 9.43281 18.8737 -8.94743
343 1 18.8712 9.43406 18.8703 -8.94924
344 1 1.57218 11.007 1.57202 -8.94956
345 1 4.71664 11.007 1.57189 -8.94971
346 1 7.86193 11.007 1.57303 -8.94722
347 1 11.0065 11.007 1.5716 -8.94649
348 1 14.1547 11.007 1.56874 -8.95001
349 1 17.2988 11.007 1.57118 -8.94927
350 1 20.4423 11.007 1.57199 -8.94948
351 1 22.0141 12.5795 1.72983e-15 -8.94953
352 1 1.57221 14.1518 1.57208 -8.94937
353 1 3.14438 12.5794 1.60681e-15 -8.94952
354 1 4.71684 14.1514 1.57193 -8.94969
355 1 6.2893 12.579 1.73771e-15 -8.94918
356 1 7.86164 14.1518 1.57083 -8.95261
357 1 9.43407 12.5791 1.57115e-15 -8.9484
358 1 11.0062 14.153 1.57007 -8.95105
359 1 12.5796 12.5796 6.83406e-16 -8.95332
360 1 14.1539 14.1539 1.56891 -8.95221
361 1 15.7264 12.5801 1.67376e-15 -8.94911
362 1 17.2987 14.1529 1.5712 -8.94897
363 1 18.8703 12.5796 1.71656e-15 -8.94939
364 1 20.4422 14.1521 1.57201 -8.94942
365 1 22.0141 15.7244 1.87104e-15 -8.94947
366 1 1.57208 17.2969 1.572 -8.94992
367 1 3.14449 15.7241 1.73483e-15 -8.94986
368 1 4.71599 17.2977 1.57097 -8.95005
369 1 6.28892 15.7247 1.63566e-15 -8.95143
370 1 7.86147 17.2979 1.57125 -8.94907
371 1 9.43383 15.7254 6.87818e-16 -8.94965
372 1 11.0068 17.2981 1.57129 -8.94929
373 1 12.5794 15.7255 5.66156e-16 -8.94985
374 1 14.1525 17.2983 1.5712 -8.94978
375 1 15.726 15.7261 1.41608e-15 -8.95023
376 1 17.2985 17.2985 1.5713 -8.9482
377 1 18.8702 15.7249 1.70723e-15 -8.94937
378 1 20.4421 17.2972 1.57208 -8.94951
379 1 22.0139 18.8693 1.28794e-15 -8.9496
380 1 1.57185 20.4419 1.57201 -8.94907
381 1 3.14409 18.8697 1.57675e-15 -8.94948
382 1 4.71685 20.4419 1.57195 -8.94956
383 1 6.28927 18.8698 1.12101e-15 -8.94935
384 1 7.86193 20.442 1.57195 -8.94944
385 1 9.43436 18.87 3.95353e-16 -8.94945
386 1 11.007 20.442 1.57196 -8.94948
387 1 12.5795 18.87 1.49011e-15 -8.94935
388 1 14.1521 20.442 1.57204 -8.94945
389 1 15.7248 18.8701 1.60546e-15 -8.94971
390 1 17.2972 20.4421 1.57202 -8.9495
391 1 18.8699 18.8699 1.60108e-15 -8.94881
392 1 20.4416 20.4418 1.57226 -8.94932
393 1 1.57181 11.007 4.71617 -8.94944
394 1 4.71604 11.007 4.7156 -8.94626
395 1 7.86611 11.007 4.72327 -8.94375
396 1 11.0121 11.007 4.71838 -8.99291
397 1 14.1643 11.007 4.70396 -8.94188
398 1 17.3022 11.007 4.71397 -8.94904
399 1 20.4429 11.007 4.71631 -8.94983
400 1 0.000240707 12.5795 3.14419 -8.9495
401 1 1.57175 14.1517 4.71648 -8.94961
402 1 3.14413 12.5793 3.14393 -8.94896
403 1 4.71532 14.1512 4.71552 -8.95144
404 1 6.28963 12.5781 3.14468 -8.94929
405 1 7.85757 14.1563 4.7077 -8.95805
406 1 9.43489 12.5791 3.14462 -8.94842
407 1 11.0069 14.1567 4.70714 -8.95304
408 1 12.5825 12.5809 3.13518 -8.96008
409 1 14.1656 14.1646 4.70191 -8.93331
410 1 15.729 12.5811 3.14022 -8.94743
411 1 17.302 14.1544 4.71428 -8.95013
412 1 18.8712 12.5798 3.14358 -8.94924
413 1 20.4428 14.1523 4.71649 -8.94995
414 1 22.014 15.7245 3.14432 -8.94972
415 1 1.57074 17.2976 4.71593 -8.94996
416 1 3.14383 15.7243 3.14371 -8.95042
417 1 4.71229 17.3012 4.71181 -8.94463
418 1 6.28707 15.7264 3.14025 -8.95155
419 1 7.8606 17.3005 4.7137 -8.94809
420 1 9.43355 15.7269 3.14127 -8.94797
421 1 11.0073 17.3004 4.71392 -8.94755
422 1 12.5804 15.7272 3.1406 -8.9498
423 1 14.1553 17.3023 4.71328 -8.94971
424 1 15.7291 15.7291 3.14001 -8.94514
425 1 17.299 17.2989 4.71581 -8.94885
426 1 18.871 15.7254 3.14371 -8.94953
427 1 20.4418 17.2973 4.71674 -8.94984
428 1 22.0135 18.8695 3.14431 -8.94957
429 1 1.57146 20.4421 4.71647 -8.94905
430 1 3.14322 18.8705 3.14315 -8.94818
431 1 4.71615 20.4428 4.71588 -8.95005
432 1 6.28892 18.8705 3.14335 -8.94938
433 1 7.86188 20.4427 4.71606 -8.94945
434 1 9.43437 18.8706 3.14348 -8.94932
435 1 11.0073 20.4427 4.71613 -8.94946
436 1 12.5798 18.8707 3.14362 -8.94906
437 1 14.1525 20.4428 4.71651 -8.9505
438 1 15.7256 18.8711 3.14346 -8.94943
439 1 17.2974 20.4422 4.71682 -8.9495
440 1 18.8698 18.8699 3.14436 -8.94938
441 1 20.4414 20.4418 4.71701 -8.94952
442 1 1.57165 11.007 7.86115 -8.94744
443 1 4.71949 11.007 7.86222 -8.93796
444 1 7.88773 11.007 7.88335 -8.84267
445 1 11.1026 11.007 7.6735 -8.22811
446 1 14.1723 11.007 7.84543 -8.96501
447 1 17.3031 11.007 7.8605 -8.95195
448 1 20.4428 11.007 7.86176 -8.95002
449 1 22.014 12.5794 6.28898 -8.94976
450 1 1.56952 14.1519 7.86143 -8.95186
451 1 3.14332 12.5784 6.28859 -8.94903
452 1 4.70579 14.1548 7.85875 -8.96018
453 1 6.28806 12.5753 6.29004 -8.95071
454 1 7.81726 14.1923 7.8227 -8.85833
455 1 9.42649 12.5974 6.29109 -8.91668
456 1 11.0238 14.1688 7.82994 -8.89593
457 1 12.6197 12.6106 6.2463 -8.8829
458 1 14.168 14.1646 7.85084 -8.93565
459 1 15.7373 12.5831 6.28268 -8.95438
460 1 17.3015 14.1536 7.86146 -8.95216
461 1 18.8728 12.58 6.28856 -8.95112
462 1 20.4421 14.1522 7.86195 -8.95052
463 1 22.0131 15.7247 6.28904 -8.95042
464 1 1.56938 17.2984 7.86076 -8.94935
465 1 3.14001 15.7262 6.28689 -8.95165
466 1 4.70929 17.3042 7.8564 -8.94146
467 1 6.27488 15.7382 6.27425 -8.93123
468 1 7.85848 17.3071 7.85876 -8.95824
469 1 9.43278 15.7342 6.28232 -8.94697
470 1 11.0068 17.3019 7.85967 -8.95123
471 1 12.5871 15.737 6.27916 -8.95146
472 1 14.1557 17.3026 7.85946 -8.94821
473 1 15.7307 15.7299 6.28553 -8.94637
474 1 17.2984 17.2983 7.86191 -8.94978
475 1 18.8711 15.7254 6.28906 -8.9502
476 1 20.4413 17.2975 7.86183 -8.94975
477 1 -0.000866622 18.8698 6.28909 -8.9494
478 1 1.57125 20.4422 7.86159 -8.94938
479 1 3.14215 18.8714 6.28755 -8.94762
480 1 4.7153 20.4436 7.86072 -8.94975
481 1 6.28755 18.8734 6.28707 -8.9516
482 1 7.86188 20.4438 7.86128 -8.95116
483 1 9.43456 18.8727 6.28761 -8.94998
484 1 11.0073 20.4429 7.86151 -8.94959
485 1 12.5801 18.8725 6.28842 -8.95188
486 1 14.1527 20.4429 7.86179 -8.9505
487 1 15.7259 18.8715 6.28869 -8.94919
488 1 17.2972 20.442 7.8621 -8.94958
489 1 18.8696 18.8699 6.28945 -8.94967
490 1 20.4413 20.4418 7.86196 -8.94949
491 1 22.0131 12.5791 9.43434 -8.94948
492 1 3.14156 12.578 9.43404 -8.95011
493 1 6.28243 12.5842 9.43533 -8.96848
494 1 9.35899 12.8562 9.44529 -8.05789
495 1 12.595 12.6058 9.38478 -8.83113
496 1 15.7284 12.5797 9.43239 -8.95259
497 1 18.8706 12.5795 9.43471 -8.94971
498 1 22.0119 15.7251 9.43419 -8.95055
499 1 3.13629 15.7284 9.43244 -8.95025
500 1 6.26586 15.7472 9.42158 -8.91831
501 1 9.42995 15.7289 9.43179 -9.00872
502 1 12.5866 15.7356 9.4259 -8.94556
503 1 15.7279 15.7269 9.43452 -8.94887
504 1 18.8702 15.7253 9.43463 -8.94972
505 1 22.0129 18.8699 9.4343 -8.9494
506 1 3.1419 18.8716 9.43369 -8.94899
507 1 6.28564 18.8764 9.43281 -8.95145
508 1 9.4347 18.8724 9.43355 -8.94693
509 1 12.5803 18.872 9.43411 -8.95185
510 1 15.7253 18.8704 9.43468 -8.9494
511 1 18.8695 18.8698 9.43449 -8.9494
688 3 10.0874 11.007 9.39655 2.3624
512 1 1.57173 11.007 11.007 -8.94541
513 1 4.72341 11.007 11.007 -8.93381
514 1 7.90007 11.007 11.007 -8.72505
515 1 11.2736 11.007 11.007 -7.39338
516 1 14.1405 11.007 11.007 -9.01502
517 1 17.296 11.007 11.007 -8.94523
518 1 20.4415 11.007 11.007 -8.94796
519 1 1.56753 14.1523 11.007 -8.95416
520 1 4.69641 14.1587 11.007 -8.96664
521 1 7.77526 14.2256 11.007 -8.73717
522 1 11.0558 14.173 11.007 -8.83307
523 1 14.1588 14.1514 11.007 -8.96679
524 1 17.299 14.1525 11.007 -8.95061
525 1 20.4413 14.1522 11.007 -8.95036
526 1 1.5692 17.2985 11.007 -8.94905
527 1 4.70944 17.3041 11.007 -8.9455
528 1 7.85603 17.3133 11.007 -8.96657
529 1 11.0069 17.3009 11.007 -8.95479
530 1 14.1534 17.2985 11.007 -8.94714
531 1 17.298 17.2981 11.007 -8.94862
532 1 20.4412 17.2976 11.007 -8.94954
533 1 1.57119 20.4422 11.007 -8.94939
534 1 4.71511 20.4438 11.007 -8.94923
535 1 7.86178 20.4447 11.007 -8.95335
536 1 11.0072 20.4427 11.007 -8.94953
537 1 14.1526 20.4423 11.007 -8.94904
538 1 17.2973 20.442 11.007 -8.94948
539 1 20.4413 20.4419 11.007 -8.94952
540 1 1.57165 11.007 14.1528 -8.94744
541 1 4.71949 11.007 14.1517 -8.93796
542 1 7.88773 11.007 14.1306 -8.84267
543 1 11.1026 11.007 14.3404 -8.22811
544 1 14.1723 11.007 14.1685 -8.96501
545 1 17.3031 11.007 14.1534 -8.95195
546 1 20.4428 11.007 14.1521 -8.95002
547 1 22.0131 12.5791 12.5796 -8.94948
548 1 1.56952 14.1519 14.1525 -8.95186
549 1 3.14156 12.578 12.5799 -8.95011
550 1 4.70579 14.1548 14.1552 -8.96018
551 1 6.28243 12.5842 12.5786 -8.96848
552 1 7.81726 14.1923 14.1912 -8.85833
553 1 9.35899 12.8562 12.5686 -8.05789
554 1 11.0238 14.1688 14.184 -8.89593
555 1 12.595 12.6058 12.6291 -8.83113
556 1 14.168 14.1646 14.1631 -8.93565
557 1 15.7284 12.5797 12.5815 -8.95259
558 1 17.3015 14.1536 14.1524 -8.95216
559 1 18.8706 12.5795 12.5792 -8.94971
560 1 20.4421 14.1522 14.152 -8.95052
561 1 22.0119 15.7251 12.5797 -8.95055
562 1 1.56938 17.2984 14.1531 -8.94935
563 1 3.13629 15.7284 12.5815 -8.95025
564 1 4.70929 17.3042 14.1575 -8.94146
565 1 6.26586 15.7472 12.5923 -8.91831
566 1 7.85848 17.3071 14.1551 -8.95824
567 1 9.42995 15.7289 12.5821 -9.00872
568 1 11.0068 17.3019 14.1542 -8.95123
569 1 12.5866 15.7356 12.588 -8.94556
570 1 14.1557 17.3026 14.1544 -8.94821
571 1 15.7279 15.7269 12.5794 -8.94887
572 1 17.2984 17.2983 14.152 -8.94978
573 1 18.8702 15.7253 12.5793 -8.94972
574 1 20.4413 17.2975 14.1521 -8.94975
575 1 22.0129 18.8699 12.5796 -8.9494
576 1 1.57125 20.4422 14.1523 -8.94938
577 1 3.1419 18.8716 12.5802 -8.94899
578 1 4.7153 20.4436 14.1532 -8.94975
579 1 6.28564 18.8764 12.5811 -8.95145
580 1 7.86188 20.4438 14.1526 -8.95116
581 1 9.4347 18.8724 12.5803 -8.94693
582 1 11.0073 20.4429 14.1524 -8.94959
583 1 12.5803 18.872 12.5798 -8.95185
584 1 14.1527 20.4429 14.1521 -8.9505
585 1 15.7253 18.8704 12.5792 -8.9494
586 1 17.2972 20.442 14.1518 -8.94958
587 1 18.8695 18.8698 12.5794 -8.9494
588 1 20.4413 20.4418 14.1519 -8.94949
589 1 1.57181 11.007 17.2977 -8.94944
590 1 4.71604 11.007 17.2983 -8.94626
591 1 7.86611 11.007 17.2906 -8.94375
592 1 11.0121 11.007 17.2955 -8.99291
593 1 14.1643 11.007 17.3099 -8.94188
594 1 17.3022 11.007 17.2999 -8.94904
595 1 20.4429 11.007 17.2976 -8.94983
596 1 22.014 12.5794 15.7249 -8.94976
597 1 1.57175 14.1517 17.2974 -8.94961
598 1 3.14332 12.5784 15.7253 -8.94903
599 1 4.71532 14.1512 17.2984 -8.95144
600 1 6.28806 12.5753 15.7239 -8.95071
601 1 7.85757 14.1563 17.3062 -8.95805
602 1 9.42649 12.5974 15.7228 -8.91668
603 1 11.0069 14.1567 17.3068 -8.95304
604 1 12.6197 12.6106 15.7676 -8.8829
605 1 14.1656 14.1646 17.312 -8.93331
606 1 15.7373 12.5831 15.7312 -8.95438
607 1 17.302 14.1544 17.2996 -8.95013
608 1 18.8728 12.58 15.7253 -8.95112
609 1 20.4428 14.1523 17.2974 -8.94995
610 1 22.0131 15.7247 15.7249 -8.95042
611 1 1.57074 17.2976 17.298 -8.94996
612 1 3.14001 15.7262 15.727 -8.95165
613 1 4.71229 17.3012 17.3021 -8.94463
614 1 6.27488 15.7382 15.7396 -8.93123
615 1 7.8606 17.3005 17.3002 -8.94809
616 1 9.43278 15.7342 15.7316 -8.94697
617 1 11.0073 17.3004 17.3 -8.94755
618 1 12.5871 15.737 15.7347 -8.95146
619 1 14.1553 17.3023 17.3006 -8.94971
620 1 15.7307 15.7299 15.7284 -8.94637
621 1 17.299 17.2989 17.2981 -8.94885
622 1 18.8711 15.7254 15.7248 -8.9502
623 1 20.4418 17.2973 17.2972 -8.94984
624 1 -0.000866622 18.8698 15.7248 -8.9494
625 1 1.57146 20.4421 17.2974 -8.94905
626 1 3.14215 18.8714 15.7264 -8.94762
627 1 4.71615 20.4428 17.298 -8.95005
628 1 6.28755 18.8734 15.7268 -8.9516
629 1 7.86188 20.4427 17.2978 -8.94945
630 1 9.43456 18.8727 15.7263 -8.94998
631 1 11.0073 20.4427 17.2978 -8.94946
632 1 12.5801 18.8725 15.7255 -8.95188
633 1 14.1525 20.4428 17.2974 -8.9505
634 1 15.7259 18.8715 15.7252 -8.94919
635 1 17.2974 20.4422 17.2971 -8.9495
636 1 18.8696 18.8699 15.7244 -8.94967
637 1 20.4414 20.4418 17.2969 -8.94952
638 1 1.57218 11.007 20.4419 -8.94956
639 1 4.71664 11.007 20.442 -8.94971
640 1 7.86193 11.007 20.4409 -8.94722
641 1 11.0065 11.007 20.4423 -8.94649
642 1 14.1547 11.007 20.4452 -8.95001
643 1 17.2988 11.007 20.4427 -8.94927
644 1 20.4423 11.007 20.4419 -8.94948
645 1 0.000240707 12.5795 18.8697 -8.9495
646 1 1.57221 14.1518 20.4418 -8.94937
647 1 3.14413 12.5793 18.87 -8.94896
648 1 4.71684 14.1514 20.442 -8.94969
649 1 6.28963 12.5781 18.8692 -8.94929
650 1 7.86164 14.1518 20.4431 -8.95261
651 1 9.43489 12.5791 18.8693 -8.94842
652 1 11.0062 14.153 20.4438 -8.95105
653 1 12.5825 12.5809 18.8787 -8.96008
654 1 14.1539 14.1539 20.445 -8.95221
655 1 15.729 12.5811 18.8737 -8.94743
656 1 17.2987 14.1529 20.4427 -8.94897
657 1 18.8712 12.5798 18.8703 -8.94924
658 1 20.4422 14.1521 20.4419 -8.94942
659 1 22.014 15.7245 18.8696 -8.94972
660 1 1.57208 17.2969 20.4419 -8.94992
661 1 3.14383 15.7243 18.8702 -8.95042
662 1 4.71599 17.2977 20.4429 -8.95005
663 1 6.28707 15.7264 18.8736 -8.95155
664 1 7.86147 17.2979 20.4427 -8.94907
665 1 9.43355 15.7269 18.8726 -8.94797
666 1 11.0068 17.2981 20.4426 -8.94929
667 1 12.5804 15.7272 18.8733 -8.9498
668 1 14.1525 17.2983 20.4427 -8.94978
669 1 15.7291 15.7291 18.8739 -8.94514
670 1 17.2985 17.2985 20.4426 -8.9482
671 1 18.871 15.7254 18.8702 -8.94953
672 1 20.4421 17.2972 20.4418 -8.94951
673 1 22.0135 18.8695 18.8696 -8.94957
674 1 1.57185 20.4419 20.4419 -8.94907
675 1 3.14322 18.8705 18.8708 -8.94818
676 1 4.71685 20.4419 20.442 -8.94956
677 1 6.28892 18.8705 18.8705 -8.94938
678 1 7.86193 20.442 20.442 -8.94944
679 1 9.43437 18.8706 18.8704 -8.94932
680 1 11.007 20.442 20.4419 -8.94948
681 1 12.5798 18.8707 18.8703 -8.94906
682 1 14.1521 20.442 20.4419 -8.94945
683 1 15.7256 18.8711 18.8704 -8.94943
684 1 17.2972 20.4421 20.4419 -8.9495
685 1 18.8698 18.8699 18.8695 -8.94938
686 1 20.4416 20.4418 20.4416 -8.94932
687 3 10.0874 11.007 12.6173 2.3624
