ITEM: TIMESTEP
70
ITEM: NUMBER OF ATOMS
688
ITEM: BOX BOUNDS pp pp pp
0.0000000000000000e+00 2.2013900999999997e+01
0.0000000000000000e+00 2.2013900999999997e+01
0.0000000000000000e+00 2.2013900999999997e+01
ITEM: ATOMS id type x y z c_pot
1 1 22.0137 8.76795e-16 9.03372e-16 -8.94916
2 1 1.57195 1.57209 1.57208 -8.94912
3 1 3.1446 1.80431e-15 8.67649e-16 -8.94967
4 1 4.71696 1.57205 1.57203 -8.94959
5 1 6.28954 1.27229e-15 5.81257e-16 -8.94951
6 1 7.86198 1.57199 1.57203 -8.94947
7 1 9.4345 1.15492e-15 1.12467e-16 -8.94955
8 1 11.007 1.57195 1.57203 -8.94951
9 1 12.5795 1.32221e-15 5.95873e-16 -8.94953
10 1 14.152 1.57196 1.5721 -8.94947
11 1 15.7244 1.58612e-15 -5.91155e-16 -8.94958
12 1 17.2971 1.5719 1.57208 -8.94953
13 1 18.8694 5.20967e-16 1.42165e-15 -8.94933
14 1 20.4416 1.57219 1.5723 -8.94937
15 1 22.0139 3.14462 1.57781e-15 -8.94962
16 1 1.57213 4.71709 1.57207 -8.9499
17 1 3.14421 3.14425 1.54234e-15 -8.94948
18 1 4.71613 4.71628 1.5711 -8.95
19 1 6.28936 3.14423 6.84855e-16 -8.94937
20 1 7.86157 4.71614 1.57136 -8.94907
21 1 9.4344 3.14407 8.0221e-16 -8.94947
22 1 11.0069 4.71594 1.5714 -8.9493
23 1 12.5795 3.14406 9.82453e-16 -8.94938
24 1 14.1524 4.7158 1.57135 -8.94977
25 1 15.7247 3.14403 2.24386e-16 -8.94973
26 1 17.2983 4.71562 1.57141 -8.94822
27 1 18.8698 3.14416 1.75563e-15 -8.94886
28 1 20.442 4.71685 1.57213 -8.94954
29 1 22.014 6.28956 1.74327e-15 -8.94949
30 1 1.5722 7.86206 1.57212 -8.94939
31 1 3.14453 6.28975 1.65808e-15 -8.94983
32 1 4.71686 7.8625 1.57196 -8.94967
33 1 6.28899 6.28926 1.30494e-15 -8.95135
34 1 7.86166 7.86207 1.57085 -8.95257
35 1 9.43389 6.28856 9.97547e-16 -8.94961
36 1 11.0062 7.861 1.57015 -8.95097
37 1 12.5794 6.28851 1.07107e-15 -8.94978
38 1 14.1537 7.86016 1.56909 -8.9522
39 1 15.7258 6.28802 1.34207e-15 -8.95023
40 1 17.2984 7.86119 1.57134 -8.94901
41 1 18.87 6.28914 1.74092e-15 -8.94942
42 1 20.4421 7.86186 1.57208 -8.94945
43 1 22.014 9.43447 1.68817e-15 -8.94956
44 1 3.14439 9.43453 1.74179e-15 -8.94953
45 1 6.28928 9.43488 1.78124e-15 -8.94921
46 1 9.43407 9.43476 1.6504e-15 -8.94848
47 1 12.5795 9.43432 2.25666e-16 -8.9533
48 1 15.7261 9.43386 1.09427e-15 -8.94912
49 1 18.87 9.43433 1.51836e-15 -8.94943
50 1 -0.00026575 1.09506e-15 3.14462 -8.94935
51 1 1.57163 1.57194 4.71663 -8.94911
52 1 3.14426 1.25891e-15 3.14421 -8.94961
53 1 4.71632 1.57127 4.71608 -8.95005
54 1 6.28947 1.86056e-15 3.14423 -8.94948
55 1 7.86195 1.57134 4.71623 -8.94945
56 1 9.43455 1.48214e-15 3.1442 -8.94951
57 1 11.0072 1.57135 4.71627 -8.94947
58 1 12.5796 1.55309e-15 3.14428 -8.94946
59 1 14.1523 1.57128 4.71662 -8.95047
60 1 15.7246 1.4322e-15 3.14443 -8.94996
61 1 17.2972 1.5718 4.7169 -8.94952
62 1 18.8693 8.98374e-16 3.14465 -8.94951
63 1 20.4414 1.57216 4.71708 -8.94955
64 1 22.0136 3.14445 3.14441 -8.94958
65 1 1.57092 4.7164 4.71611 -8.94993
66 1 3.14341 3.14358 3.14335 -8.94822
67 1 4.71265 4.71296 4.71217 -8.94469
68 1 6.28907 3.14359 3.14355 -8.94942
69 1 7.86081 4.71372 4.71399 -8.94816
70 1 9.43442 3.14347 3.14364 -8.94935
71 1 11.0073 4.71373 4.71422 -8.9476
72 1 12.5797 3.14339 3.14377 -8.94908
73 1 14.155 4.71199 4.71364 -8.94981
74 1 15.7254 3.143 3.14363 -8.94946
75 1 17.2987 4.71521 4.71599 -8.94884
76 1 18.8697 3.14413 3.14445 -8.9494
77 1 20.4418 4.71668 4.71683 -8.94982
78 1 22.014 6.28948 3.14441 -8.94972
79 1 1.57177 7.86221 4.71656 -8.9496
80 1 3.14393 6.28959 3.14384 -8.95037
81 1 4.7154 7.86275 4.71558 -8.95138
82 1 6.28723 6.28763 3.14046 -8.95147
83 1 7.85762 7.85773 4.70779 -8.9579
84 1 9.43361 6.28719 3.14147 -8.94795
85 1 11.0067 7.85739 4.70745 -8.95285
86 1 12.5802 6.2869 3.14094 -8.94972
87 1 14.1653 7.84943 4.70226 -8.93306
88 1 15.7288 6.28513 3.14027 -8.94509
89 1 17.3016 7.85968 4.71454 -8.95019
90 1 18.8708 6.28862 3.14385 -8.94956
91 1 20.4426 7.86167 4.71659 -8.94995
92 1 0.000157561 9.43443 3.14428 -8.94952
93 1 3.14413 9.43462 3.14397 -8.94898
94 1 6.28956 9.43573 3.14455 -8.9493
95 1 9.43482 9.43485 3.14446 -8.94857
96 1 12.5823 9.43311 3.13536 -8.96015
97 1 15.7286 9.43295 3.14055 -8.94743
98 1 18.8709 9.43413 3.14374 -8.94927
99 1 22.0135 1.34159e-15 6.28946 -8.94954
100 1 1.57147 1.57183 7.8617 -8.94943
101 1 3.14379 1.72199e-15 6.28887 -8.94935
102 1 4.71556 1.57044 7.8609 -8.94974
103 1 6.28923 1.17873e-15 6.28882 -8.95046
104 1 7.86197 1.57023 7.86139 -8.95112
105 1 9.43477 1.69643e-15 6.28884 -8.95006
106 1 11.0073 1.57105 7.86158 -8.94956
107 1 12.5797 1.5065e-15 6.28922 -8.95018
108 1 14.1526 1.57114 7.86184 -8.95046
109 1 15.7248 1.7156e-15 6.2894 -8.94991
110 1 17.2971 1.57196 7.86211 -8.94959
111 1 18.8692 1.00686e-15 6.28962 -8.94963
112 1 20.4414 1.57213 7.862 -8.94951
113 1 -0.000732537 3.1442 6.2892 -8.94942
114 1 1.5697 4.71566 7.86092 -8.94935
115 1 3.14248 3.14273 6.28781 -8.9477
116 1 4.70986 4.71016 7.85674 -8.94163
117 1 6.28782 3.14077 6.28733 -8.95159
118 1 7.85884 4.70726 7.85902 -8.95823
119 1 9.43463 3.14146 6.28781 -8.94997
120 1 11.0067 4.7124 7.85998 -8.95115
121 1 12.58 3.14167 6.28861 -8.95187
122 1 14.1554 4.71163 7.85977 -8.94839
123 1 15.7257 3.14264 6.28884 -8.94923
124 1 17.2982 4.71581 7.86199 -8.94976
125 1 18.8695 3.14418 6.28951 -8.94968
126 1 20.4413 4.71656 7.86188 -8.94973
127 1 22.0132 6.28924 6.28912 -8.95037
128 1 1.56966 7.86204 7.86148 -8.95178
129 1 3.14033 6.28789 6.2871 -8.95158
130 1 4.70609 7.8593 7.85881 -8.95999
131 1 6.27539 6.27619 6.27468 -8.93143
132 1 7.81779 7.82247 7.8231 -8.85925
133 1 9.43291 6.2802 6.28269 -8.94713
134 1 11.0231 7.84602 7.83069 -8.89673
135 1 12.5866 6.27733 6.27983 -8.95182
136 1 14.1678 7.84939 7.85122 -8.93512
137 1 15.7303 6.28428 6.28585 -8.94627
138 1 17.3013 7.86037 7.86158 -8.95211
139 1 18.8709 6.28859 6.28915 -8.95015
140 1 20.4421 7.86176 7.86197 -8.9505
141 1 22.014 9.43453 6.28904 -8.94977
142 1 3.14328 9.43543 6.28859 -8.94905
143 1 6.28783 9.43857 6.28977 -8.95068
144 1 9.42613 9.41679 6.29065 -8.91627
145 1 12.6197 9.40294 6.24636 -8.88151
146 1 15.7369 9.43087 6.28312 -8.95451
147 1 18.8725 9.43399 6.2887 -8.95112
148 1 -0.000417445 1.43693e-15 9.43444 -8.94954
149 1 3.14365 1.57061e-15 9.43422 -8.94934
150 1 6.28874 1.60678e-15 9.43406 -8.95127
151 1 9.435 1.43004e-15 9.43414 -8.94902
152 1 12.5799 1.63203e-15 9.43449 -8.95023
153 1 15.7248 1.68925e-15 9.43457 -8.94949
154 1 18.8693 1.31381e-15 9.4345 -8.94954
155 1 22.0131 3.14411 9.43435 -8.94942
156 1 3.14229 3.14255 9.43381 -8.94904
157 1 6.28603 3.13793 9.43294 -8.95141
158 1 9.4348 3.14166 9.43362 -8.94681
159 1 12.5802 3.14203 9.43419 -8.9518
160 1 15.7252 3.14357 9.43471 -8.94942
161 1 18.8694 3.14417 9.4345 -8.94942
162 1 22.0121 6.28887 9.43422 -8.95049
163 1 3.1368 6.2858 9.43256 -8.95021
164 1 6.26666 6.2675 9.4219 -8.91885
165 1 9.43008 6.2858 9.43195 -9.00827
166 1 12.5861 6.27876 9.42636 -8.94621
167 1 15.7276 6.28711 9.43464 -8.94879
168 1 18.8701 6.28871 9.43464 -8.94966
169 1 22.0131 9.43478 9.43435 -8.94955
170 1 3.14145 9.43587 9.43401 -8.95017
171 1 6.28192 9.42993 9.43517 -8.96845
172 1 9.35846 9.16126 9.44512 -8.05717
173 1 12.5957 9.40785 9.38466 -8.82932
174 1 15.7286 9.43415 9.43256 -8.95273
175 1 18.8706 9.4344 9.43473 -8.94976
176 1 1.57142 1.5718 11.007 -8.94943
177 1 4.71541 1.57036 11.007 -8.94924
178 1 7.86189 1.56938 11.007 -8.95327
179 1 11.0072 1.57128 11.007 -8.9495
180 1 14.1525 1.57168 11.007 -8.94907
181 1 17.2972 1.57195 11.007 -8.9495
182 1 20.4414 1.57211 11.007 -8.94955
183 1 1.56958 4.71557 11.007 -8.94906
184 1 4.71008 4.71033 11.007 -8.94561
185 1 7.85653 4.70116 11.007 -8.96657
186 1 11.0068 4.71329 11.007 -8.95467
187 1 14.1532 4.71553 11.007 -8.94728
188 1 17.2979 4.71592 11.007 -8.94864
189 1 20.4413 4.71644 11.007 -8.94953
190 1 1.56775 7.86171 11.007 -8.95407
191 1 4.69685 7.85556 11.007 -8.96636
192 1 7.77642 7.78956 11.007 -8.73934
193 1 11.0545 7.84221 11.007 -8.83542
194 1 14.1585 7.86247 11.007 -8.96642
195 1 17.2989 7.86135 11.007 -8.95048
196 1 20.4413 7.86173 11.007 -8.95033
197 1 -0.000417445 1.5015e-15 12.5795 -8.94954
198 1 1.57147 1.57183 14.1522 -8.94943
199 1 3.14365 1.4826e-15 12.5797 -8.94934
200 1 4.71556 1.57044 14.153 -8.94974
201 1 6.28874 1.76641e-15 12.5798 -8.95127
202 1 7.86197 1.57023 14.1525 -8.95112
203 1 9.435 1.35585e-15 12.5798 -8.94902
204 1 11.0073 1.57105 14.1523 -8.94956
205 1 12.5799 1.71268e-15 12.5794 -8.95023
206 1 14.1526 1.57114 14.1521 -8.95046
207 1 15.7248 1.69706e-15 12.5793 -8.94949
208 1 17.2971 1.57196 14.1518 -8.94959
209 1 18.8693 1.57114e-15 12.5794 -8.94954
210 1 20.4414 1.57213 14.1519 -8.94951
211 1 22.0131 3.14411 12.5796 -8.94942
212 1 1.5697 4.71566 14.153 -8.94935
213 1 3.14229 3.14255 12.5801 -8.94904
214 1 4.70986 4.71016 14.1572 -8.94163
215 1 6.28603 3.13793 12.581 -8.95141
216 1 7.85884 4.70726 14.1549 -8.95823
217 1 9.4348 3.14166 12.5803 -8.94681
218 1 11.0067 4.7124 14.1539 -8.95115
219 1 12.5802 3.14203 12.5797 -8.9518
220 1 14.1554 4.71163 14.1541 -8.94839
221 1 15.7252 3.14357 12.5792 -8.94942
222 1 17.2982 4.71581 14.1519 -8.94976
223 1 18.8694 3.14417 12.5794 -8.94942
224 1 20.4413 4.71656 14.152 -8.94973
225 1 22.0121 6.28887 12.5797 -8.95049
226 1 1.56966 7.86204 14.1524 -8.95178
227 1 3.1368 6.2858 12.5813 -8.95021
228 1 4.70609 7.8593 14.1551 -8.95999
229 1 6.26666 6.2675 12.592 -8.91885
230 1 7.81779 7.82247 14.1908 -8.85925
231 1 9.43008 6.2858 12.582 -9.00827
232 1 11.0231 7.84602 14.1832 -8.89673
233 1 12.5861 6.27876 12.5875 -8.94621
234 1 14.1678 7.84939 14.1627 -8.93512
235 1 15.7276 6.28711 12.5793 -8.94879
236 1 17.3013 7.86037 14.1523 -8.95211
237 1 18.8701 6.28871 12.5793 -8.94966
238 1 20.4421 7.86176 14.1519 -8.9505
239 1 22.0131 9.43478 12.5796 -8.94955
240 1 3.14145 9.43587 12.5799 -8.95017
241 1 6.28192 9.42993 12.5787 -8.96845
242 1 9.35846 9.16126 12.5688 -8.05717
243 1 12.5957 9.40785 12.6292 -8.82932
244 1 15.7286 9.43415 12.5813 -8.95273
245 1 18.8706 9.4344 12.5792 -8.94976
246 1 22.0135 1.74502e-15 15.7244 -8.94954
247 1 1.57163 1.57194 17.2973 -8.94911
248 1 3.14379 1.65388e-15 15.725 -8.94935
249 1 4.71632 1.57127 17.2978 -8.95005
250 1 6.28923 1.29811e-15 15.7251 -8.95046
251 1 7.86195 1.57134 17.2977 -8.94945
252 1 9.43477 1.52819e-15 15.7251 -8.95006
253 1 11.0072 1.57135 17.2976 -8.94947
254 1 12.5797 1.37404e-15 15.7247 -8.95018
255 1 14.1523 1.57128 17.2973 -8.95047
256 1 15.7248 1.69957e-15 15.7245 -8.94991
257 1 17.2972 1.5718 17.297 -8.94952
258 1 18.8692 1.15394e-15 15.7243 -8.94963
259 1 20.4414 1.57216 17.2968 -8.94955
260 1 -0.000732537 3.1442 15.7247 -8.94942
261 1 1.57092 4.7164 17.2978 -8.94993
262 1 3.14248 3.14273 15.7261 -8.9477
263 1 4.71265 4.71296 17.3017 -8.94469
264 1 6.28782 3.14077 15.7266 -8.95159
265 1 7.86081 4.71372 17.2999 -8.94816
266 1 9.43463 3.14146 15.7261 -8.94997
267 1 11.0073 4.71373 17.2997 -8.9476
268 1 12.58 3.14167 15.7253 -8.95187
269 1 14.155 4.71199 17.3003 -8.94981
270 1 15.7257 3.14264 15.7251 -8.94923
271 1 17.2987 4.71521 17.2979 -8.94884
272 1 18.8695 3.14418 15.7244 -8.94968
273 1 20.4418 4.71668 17.2971 -8.94982
274 1 22.0132 6.28924 15.7248 -8.95037
275 1 1.57177 7.86221 17.2973 -8.9496
276 1 3.14033 6.28789 15.7268 -8.95158
277 1 4.7154 7.86275 17.2983 -8.95138
278 1 6.27539 6.27619 15.7392 -8.93143
279 1 7.85762 7.85773 17.3061 -8.9579
280 1 9.43291 6.2802 15.7312 -8.94713
281 1 11.0067 7.85739 17.3064 -8.95285
282 1 12.5866 6.27733 15.7341 -8.95182
283 1 14.1653 7.84943 17.3116 -8.93306
284 1 15.7303 6.28428 15.7281 -8.94627
285 1 17.3016 7.85968 17.2994 -8.95019
286 1 18.8709 6.28859 15.7248 -8.95015
287 1 20.4426 7.86167 17.2973 -8.94995
288 1 22.014 9.43453 15.7249 -8.94977
289 1 3.14328 9.43543 15.7253 -8.94905
290 1 6.28783 9.43857 15.7241 -8.95068
291 1 9.42613 9.41679 15.7233 -8.91627
292 1 12.6197 9.40294 15.7675 -8.88151
293 1 15.7369 9.43087 15.7308 -8.95451
294 1 18.8725 9.43399 15.7252 -8.95112
295 1 -0.00026575 1.6614e-15 18.8693 -8.94935
296 1 1.57195 1.57209 20.4418 -8.94912
297 1 3.14426 1.56433e-15 18.8697 -8.94961
298 1 4.71696 1.57205 20.4419 -8.94959
299 1 6.28947 1.82375e-15 18.8697 -8.94948
300 1 7.86198 1.57199 20.4419 -8.94947
301 1 9.43455 1.80423e-15 18.8697 -8.94951
302 1 11.007 1.57195 20.4419 -8.94951
303 1 12.5796 1.45719e-15 18.8696 -8.94946
304 1 14.152 1.57196 20.4418 -8.94947
305 1 15.7246 1.61609e-15 18.8695 -8.94996
306 1 17.2971 1.5719 20.4418 -8.94953
307 1 18.8693 7.26149e-16 18.8693 -8.94951
308 1 20.4416 1.57219 20.4416 -8.94937
309 1 22.0136 3.14445 18.8695 -8.94958
310 1 1.57213 4.71709 20.4418 -8.9499
311 1 3.14341 3.14358 18.8705 -8.94822
312 1 4.71613 4.71628 20.4428 -8.95
313 1 6.28907 3.14359 18.8704 -8.94942
314 1 7.86157 4.71614 20.4425 -8.94907
315 1 9.43442 3.14347 18.8703 -8.94935
316 1 11.0069 4.71594 20.4425 -8.9493
317 1 12.5797 3.14339 18.8701 -8.94908
318 1 14.1524 4.7158 20.4426 -8.94977
319 1 15.7254 3.143 18.8703 -8.94946
320 1 17.2983 4.71562 20.4425 -8.94822
321 1 18.8697 3.14413 18.8694 -8.9494
322 1 20.442 4.71685 20.4418 -8.94954
323 1 22.014 6.28948 18.8695 -8.94972
324 1 1.5722 7.86206 20.4418 -8.94939
325 1 3.14393 6.28959 18.8701 -8.95037
326 1 4.71686 7.8625 20.4419 -8.94967
327 1 6.28723 6.28763 18.8734 -8.95147
328 1 7.86166 7.86207 20.4431 -8.95257
329 1 9.43361 6.28719 18.8724 -8.94795
330 1 11.0062 7.861 20.4437 -8.95097
331 1 12.5802 6.2869 18.873 -8.94972
332 1 14.1537 7.86016 20.4448 -8.9522
333 1 15.7288 6.28513 18.8736 -8.94509
334 1 17.2984 7.86119 20.4426 -8.94901
335 1 18.8708 6.28862 18.8701 -8.94956
336 1 20.4421 7.86186 20.4418 -8.94945
337 1 0.000157561 9.43443 18.8696 -8.94952
338 1 3.14413 9.43462 18.8699 -8.94898
339 1 6.28956 9.43573 18.8693 -8.9493
340 1 9.43482 9.43485 18.8694 -8.94857
341 1 12.5823 9.43311 18.8785 -8.96015
342 1 15.7286 9.43295 18.8734 -8.94743
343 1 18.8709 9.43413 18.8702 -8.94927
344 1 1.57216 11.007 1.57206 -8.94958
345 1 4.71664 11.007 1.57188 -8.94971
346 1 7.86188 11.007 1.57289 -8.94736
347 1 11.0064 11.007 1.57156 -8.94648
348 1 14.1545 11.007 1.56892 -8.94995
349 1 17.2985 11.007 1.57132 -8.9493
350 1 20.4421 11.007 1.57205 -8.94951
351 1 22.014 12.5794 1.65053e-15 -8.94956
352 1 1.5722 14.1518 1.57212 -8.94939
353 1 3.14439 12.5794 1.65662e-15 -8.94953
354 1 4.71686 14.1514 1.57196 -8.94967
355 1 6.28928 12.579 1.7444e-15 -8.94921
356 1 7.86166 14.1518 1.57085 -8.95257
357 1 9.43407 12.5791 1.78666e-15 -8.94848
358 1 11.0062 14.1529 1.57015 -8.95097
359 1 12.5795 12.5796 2.19366e-16 -8.9533
360 1 14.1537 14.1537 1.56909 -8.9522
361 1 15.7261 12.58 1.23182e-15 -8.94912
362 1 17.2984 14.1527 1.57134 -8.94901
363 1 18.87 12.5796 1.56561e-15 -8.94943
364 1 20.4421 14.152 1.57208 -8.94945
365 1 22.014 15.7243 1.76181e-15 -8.94949
366 1 1.57213 17.2968 1.57207 -8.9499
367 1 3.14453 15.7241 1.7779e-15 -8.94983
368 1 4.71613 17.2976 1.5711 -8.95
369 1 6.28899 15.7246 1.60177e-15 -8.95135
370 1 7.86157 17.2978 1.57136 -8.94907
371 1 9.43389 15.7253 8.67869e-16 -8.94961
372 1 11.0069 17.298 1.5714 -8.9493
373 1 12.5794 15.7254 8.0213e-16 -8.94978
374 1 14.1524 17.2981 1.57135 -8.94977
375 1 15.7258 15.7259 1.54273e-15 -8.95023
376 1 17.2983 17.2983 1.57141 -8.94822
377 1 18.87 15.7248 1.72135e-15 -8.94942
378 1 20.442 17.2971 1.57213 -8.94954
379 1 22.0139 18.8693 1.65865e-15 -8.94962
380 1 1.57195 20.4418 1.57208 -8.94912
381 1 3.14421 18.8696 1.5752e-15 -8.94948
382 1 4.71696 20.4419 1.57203 -8.94959
383 1 6.28936 18.8697 7.04541e-16 -8.94937
384 1 7.86198 20.4419 1.57203 -8.94947
385 1 9.4344 18.8698 5.9475e-16 -8.94947
386 1 11.007 20.4419 1.57203 -8.94951
387 1 12.5795 18.8698 1.26065e-15 -8.94938
388 1 14.152 20.4419 1.5721 -8.94947
389 1 15.7247 18.8699 1.63827e-15 -8.94973
390 1 17.2971 20.442 1.57208 -8.94953
391 1 18.8698 18.8697 1.75874e-15 -8.94886
392 1 20.4416 20.4417 1.5723 -8.94937
393 1 1.57178 11.007 4.71625 -8.94945
394 1 4.71595 11.007 4.71552 -8.94632
395 1 7.86582 11.007 4.72273 -8.94395
396 1 11.012 11.007 4.71844 -8.99346
397 1 14.1638 11.007 4.70438 -8.94188
398 1 17.3018 11.007 4.71428 -8.94907
399 1 20.4428 11.007 4.71643 -8.94982
400 1 0.000157561 12.5795 3.14428 -8.94952
401 1 1.57177 14.1517 4.71656 -8.9496
402 1 3.14413 12.5793 3.14397 -8.94898
403 1 4.7154 14.1512 4.71558 -8.95138
404 1 6.28956 12.5782 3.14455 -8.9493
405 1 7.85762 14.1562 4.70779 -8.9579
406 1 9.43482 12.5791 3.14446 -8.94857
407 1 11.0067 14.1565 4.70745 -8.95285
408 1 12.5823 12.5808 3.13536 -8.96015
409 1 14.1653 14.1645 4.70226 -8.93306
410 1 15.7286 12.581 3.14055 -8.94743
411 1 17.3016 14.1542 4.71454 -8.95019
412 1 18.8709 12.5798 3.14374 -8.94927
413 1 20.4426 14.1522 4.71659 -8.94995
414 1 22.014 15.7244 3.14441 -8.94972
415 1 1.57092 17.2975 4.71611 -8.94993
416 1 3.14393 15.7243 3.14384 -8.95037
417 1 4.71265 17.3009 4.71217 -8.94469
418 1 6.28723 15.7263 3.14046 -8.95147
419 1 7.86081 17.3002 4.71399 -8.94816
420 1 9.43361 15.7267 3.14147 -8.94795
421 1 11.0073 17.3002 4.71422 -8.9476
422 1 12.5802 15.727 3.14094 -8.94972
423 1 14.155 17.3019 4.71364 -8.94981
424 1 15.7288 15.7288 3.14027 -8.94509
425 1 17.2987 17.2987 4.71599 -8.94884
426 1 18.8708 15.7253 3.14385 -8.94956
427 1 20.4418 17.2972 4.71683 -8.94982
428 1 22.0136 18.8695 3.14441 -8.94958
429 1 1.57163 20.442 4.71663 -8.94911
430 1 3.14341 18.8703 3.14335 -8.94822
431 1 4.71632 20.4426 4.71608 -8.95005
432 1 6.28907 18.8703 3.14355 -8.94942
433 1 7.86195 20.4426 4.71623 -8.94945
434 1 9.43442 18.8704 3.14364 -8.94935
435 1 11.0072 20.4426 4.71627 -8.94947
436 1 12.5797 18.8705 3.14377 -8.94908
437 1 14.1523 20.4426 4.71662 -8.95047
438 1 15.7254 18.8709 3.14363 -8.94946
439 1 17.2972 20.4421 4.7169 -8.94952
440 1 18.8697 18.8698 3.14445 -8.9494
441 1 20.4414 20.4417 4.71708 -8.94955
442 1 1.57155 11.007 7.86116 -8.94752
443 1 4.71909 11.007 7.86201 -8.93822
444 1 7.88652 11.007 7.88225 -8.84448
445 1 11.1033 11.007 7.67089 -8.22538
446 1 14.1721 11.007 7.84581 -8.96504
447 1 17.3029 11.007 7.86072 -8.95193
448 1 20.4427 11.007 7.86181 -8.95004
449 1 22.014 12.5794 6.28904 -8.94977
450 1 1.56966 14.1519 7.86148 -8.95178
451 1 3.14328 12.5785 6.28859 -8.94905
452 1 4.70609 14.1546 7.85881 -8.95999
453 1 6.28783 12.5753 6.28977 -8.95068
454 1 7.81779 14.1914 7.8231 -8.85925
455 1 9.42613 12.5971 6.29065 -8.91627
456 1 11.0231 14.1679 7.83069 -8.89673
457 1 12.6197 12.611 6.24636 -8.88151
458 1 14.1678 14.1645 7.85122 -8.93512
459 1 15.7369 12.583 6.28312 -8.95451
460 1 17.3013 14.1535 7.86158 -8.95211
461 1 18.8725 12.5799 6.2887 -8.95112
462 1 20.4421 14.1521 7.86197 -8.9505
463 1 22.0132 15.7247 6.28912 -8.95037
464 1 1.5697 17.2982 7.86092 -8.94935
465 1 3.14033 15.726 6.2871 -8.95158
466 1 4.70986 17.3037 7.85674 -8.94163
467 1 6.27539 15.7377 6.27468 -8.93143
468 1 7.85884 17.3066 7.85902 -8.95823
469 1 9.43291 15.7337 6.28269 -8.94713
470 1 11.0067 17.3015 7.85998 -8.95115
471 1 12.5866 15.7366 6.27983 -8.95182
472 1 14.1554 17.3023 7.85977 -8.94839
473 1 15.7303 15.7296 6.28585 -8.94627
474 1 17.2982 17.2981 7.86199 -8.94976
475 1 18.8709 15.7253 6.28915 -8.95015
476 1 20.4413 17.2973 7.86188 -8.94973
477 1 -0.000732537 18.8697 6.2892 -8.94942
478 1 1.57147 20.4421 7.8617 -8.94943
479 1 3.14248 18.8712 6.28781 -8.9477
480 1 4.71556 20.4435 7.8609 -8.94974
481 1 6.28782 18.8731 6.28733 -8.95159
482 1 7.86197 20.4437 7.86139 -8.95112
483 1 9.43463 18.8724 6.28781 -8.94997
484 1 11.0073 20.4429 7.86158 -8.94956
485 1 12.58 18.8722 6.28861 -8.95187
486 1 14.1526 20.4428 7.86184 -8.95046
487 1 15.7257 18.8713 6.28884 -8.94923
488 1 17.2971 20.4419 7.86211 -8.94959
489 1 18.8695 18.8697 6.28951 -8.94968
490 1 20.4414 20.4418 7.862 -8.94951
491 1 22.0131 12.5791 9.43435 -8.94955
492 1 3.14145 12.578 9.43401 -8.95017
493 1 6.28192 12.584 9.43517 -8.96845
494 1 9.35846 12.8526 9.44512 -8.05717
495 1 12.5957 12.6061 9.38466 -8.82932
496 1 15.7286 12.5798 9.43256 -8.95273
497 1 18.8706 12.5795 9.43473 -8.94976
498 1 22.0121 15.725 9.43422 -8.95049
499 1 3.1368 15.7281 9.43256 -8.95021
500 1 6.26666 15.7464 9.4219 -8.91885
501 1 9.43008 15.7281 9.43195 -9.00827
502 1 12.5861 15.7351 9.42636 -8.94621
503 1 15.7276 15.7268 9.43464 -8.94879
504 1 18.8701 15.7252 9.43464 -8.94966
505 1 22.0131 18.8698 9.43435 -8.94942
506 1 3.14229 18.8714 9.43381 -8.94904
507 1 6.28603 18.876 9.43294 -8.95141
508 1 9.4348 18.8722 9.43362 -8.94681
509 1 12.5802 18.8719 9.43419 -8.9518
510 1 15.7252 18.8703 9.43471 -8.94942
511 1 18.8694 18.8697 9.4345 -8.94942
688 3 10.0921 11.007 9.39622 2.36469
512 1 1.57161 11.007 11.007 -8.94562
513 1 4.72268 11.007 11.007 -8.93424
514 1 7.89805 11.007 11.007 -8.72764
515 1 11.2773 11.007 11.007 -7.38563
516 1 14.1415 11.007 11.007 -9.01549
517 1 17.2963 11.007 11.007 -8.94546
518 1 20.4416 11.007 11.007 -8.9481
519 1 1.56775 14.1522 11.007 -8.95407
520 1 4.69685 14.1583 11.007 -8.96636
521 1 7.77642 14.2243 11.007 -8.73934
522 1 11.0545 14.1717 11.007 -8.83542
523 1 14.1585 14.1514 11.007 -8.96642
524 1 17.2989 14.1526 11.007 -8.95048
525 1 20.4413 14.1522 11.007 -8.95033
526 1 1.56958 17.2983 11.007 -8.94906
527 1 4.71008 17.3036 11.007 -8.94561
528 1 7.85653 17.3127 11.007 -8.96657
529 1 11.0068 17.3006 11.007 -8.95467
530 1 14.1532 17.2984 11.007 -8.94728
531 1 17.2979 17.298 11.007 -8.94864
532 1 20.4413 17.2975 11.007 -8.94953
533 1 1.57142 20.4421 11.007 -8.94943
534 1 4.71541 20.4435 11.007 -8.94924
535 1 7.86189 20.4445 11.007 -8.95327
536 1 11.0072 20.4426 11.007 -8.9495
537 1 14.1525 20.4422 11.007 -8.94907
538 1 17.2972 20.442 11.007 -8.9495
539 1 20.4414 20.4418 11.007 -8.94955
540 1 1.57155 11.007 14.1527 -8.94752
541 1 4.71909 11.007 14.1519 -8.93822
542 1 7.88652 11.007 14.1317 -8.84448
543 1 11.1033 11.007 14.343 -8.22538
544 1 14.1721 11.007 14.1681 -8.96504
545 1 17.3029 11.007 14.1532 -8.95193
546 1 20.4427 11.007 14.1521 -8.95004
547 1 22.0131 12.5791 12.5796 -8.94955
548 1 1.56966 14.1519 14.1524 -8.95178
549 1 3.14145 12.578 12.5799 -8.95017
550 1 4.70609 14.1546 14.1551 -8.95999
551 1 6.28192 12.584 12.5787 -8.96845
552 1 7.81779 14.1914 14.1908 -8.85925
553 1 9.35846 12.8526 12.5688 -8.05717
554 1 11.0231 14.1679 14.1832 -8.89673
555 1 12.5957 12.6061 12.6292 -8.82932
556 1 14.1678 14.1645 14.1627 -8.93512
557 1 15.7286 12.5798 12.5813 -8.95273
558 1 17.3013 14.1535 14.1523 -8.95211
559 1 18.8706 12.5795 12.5792 -8.94976
560 1 20.4421 14.1521 14.1519 -8.9505
561 1 22.0121 15.725 12.5797 -8.95049
562 1 1.5697 17.2982 14.153 -8.94935
563 1 3.1368 15.7281 12.5813 -8.95021
564 1 4.70986 17.3037 14.1572 -8.94163
565 1 6.26666 15.7464 12.592 -8.91885
566 1 7.85884 17.3066 14.1549 -8.95823
567 1 9.43008 15.7281 12.582 -9.00827
568 1 11.0067 17.3015 14.1539 -8.95115
569 1 12.5861 15.7351 12.5875 -8.94621
570 1 14.1554 17.3023 14.1541 -8.94839
571 1 15.7276 15.7268 12.5793 -8.94879
572 1 17.2982 17.2981 14.1519 -8.94976
573 1 18.8701 15.7252 12.5793 -8.94966
574 1 20.4413 17.2973 14.152 -8.94973
575 1 22.0131 18.8698 12.5796 -8.94942
576 1 1.57147 20.4421 14.1522 -8.94943
577 1 3.14229 18.8714 12.5801 -8.94904
578 1 4.71556 20.4435 14.153 -8.94974
579 1 6.28603 18.876 12.581 -8.95141
580 1 7.86197 20.4437 14.1525 -8.95112
581 1 9.4348 18.8722 12.5803 -8.94681
582 1 11.0073 20.4429 14.1523 -8.94956
583 1 12.5802 18.8719 12.5797 -8.9518
584 1 14.1526 20.4428 14.1521 -8.95046
585 1 15.7252 18.8703 12.5792 -8.94942
586 1 17.2971 20.4419 14.1518 -8.94959
587 1 18.8694 18.8697 12.5794 -8.94942
588 1 20.4414 20.4418 14.1519 -8.94951
589 1 1.57178 11.007 17.2977 -8.94945
590 1 4.71595 11.007 17.2984 -8.94632
591 1 7.86582 11.007 17.2912 -8.94395
592 1 11.012 11.007 17.2955 -8.99346
593 1 14.1638 11.007 17.3095 -8.94188
594 1 17.3018 11.007 17.2996 -8.94907
595 1 20.4428 11.007 17.2975 -8.94982
596 1 22.014 12.5794 15.7249 -8.94977
597 1 1.57177 14.1517 17.2973 -8.9496
598 1 3.14328 12.5785 15.7253 -8.94905
599 1 4.7154 14.1512 17.2983 -8.95138
600 1 6.28783 12.5753 15.7241 -8.95068
601 1 7.85762 14.1562 17.3061 -8.9579
602 1 9.42613 12.5971 15.7233 -8.91627
603 1 11.0067 14.1565 17.3064 -8.95285
604 1 12.6197 12.611 15.7675 -8.88151
605 1 14.1653 14.1645 17.3116 -8.93306
606 1 15.7369 12.583 15.7308 -8.95451
607 1 17.3016 14.1542 17.2994 -8.95019
608 1 18.8725 12.5799 15.7252 -8.95112
609 1 20.4426 14.1522 17.2973 -8.94995
610 1 22.0132 15.7247 15.7248 -8.95037
611 1 1.57092 17.2975 17.2978 -8.94993
612 1 3.14033 15.726 15.7268 -8.95158
613 1 4.71265 17.3009 17.3017 -8.94469
614 1 6.27539 15.7377 15.7392 -8.93143
615 1 7.86081 17.3002 17.2999 -8.94816
616 1 9.43291 15.7337 15.7312 -8.94713
617 1 11.0073 17.3002 17.2997 -8.9476
618 1 12.5866 15.7366 15.7341 -8.95182
619 1 14.155 17.3019 17.3003 -8.94981
620 1 15.7303 15.7296 15.7281 -8.94627
621 1 17.2987 17.2987 17.2979 -8.94884
622 1 18.8709 15.7253 15.7248 -8.95015
623 1 20.4418 17.2972 17.2971 -8.94982
624 1 -0.000732537 18.8697 15.7247 -8.94942
625 1 1.57163 20.442 17.2973 -8.94911
626 1 3.14248 18.8712 15.7261 -8.9477
627 1 4.71632 20.4426 17.2978 -8.95005
628 1 6.28782 18.8731 15.7266 -8.95159
629 1 7.86195 20.4426 17.2977 -8.94945
630 1 9.43463 18.8724 15.7261 -8.94997
631 1 11.0072 20.4426 17.2976 -8.94947
632 1 12.58 18.8722 15.7253 -8.95187
633 1 14.1523 20.4426 17.2973 -8.95047
634 1 15.7257 18.8713 15.7251 -8.94923
635 1 17.2972 20.4421 17.297 -8.94952
636 1 18.8695 18.8697 15.7244 -8.94968
637 1 20.4414 20.4417 17.2968 -8.94955
638 1 1.57216 11.007 20.4418 -8.94958
639 1 4.71664 11.007 20.442 -8.94971
640 1 7.86188 11.007 20.441 -8.94736
641 1 11.0064 11.007 20.4423 -8.94648
642 1 14.1545 11.007 20.445 -8.94995
643 1 17.2985 11.007 20.4426 -8.9493
644 1 20.4421 11.007 20.4418 -8.94951
645 1 0.000157561 12.5795 18.8696 -8.94952
646 1 1.5722 14.1518 20.4418 -8.94939
647 1 3.14413 12.5793 18.8699 -8.94898
648 1 4.71686 14.1514 20.4419 -8.94967
649 1 6.28956 12.5782 18.8693 -8.9493
650 1 7.86166 14.1518 20.4431 -8.95257
651 1 9.43482 12.5791 18.8694 -8.94857
652 1 11.0062 14.1529 20.4437 -8.95097
653 1 12.5823 12.5808 18.8785 -8.96015
654 1 14.1537 14.1537 20.4448 -8.9522
655 1 15.7286 12.581 18.8734 -8.94743
656 1 17.2984 14.1527 20.4426 -8.94901
657 1 18.8709 12.5798 18.8702 -8.94927
658 1 20.4421 14.152 20.4418 -8.94945
659 1 22.014 15.7244 18.8695 -8.94972
660 1 1.57213 17.2968 20.4418 -8.9499
661 1 3.14393 15.7243 18.8701 -8.95037
662 1 4.71613 17.2976 20.4428 -8.95
663 1 6.28723 15.7263 18.8734 -8.95147
664 1 7.86157 17.2978 20.4425 -8.94907
665 1 9.43361 15.7267 18.8724 -8.94795
666 1 11.0069 17.298 20.4425 -8.9493
667 1 12.5802 15.727 18.873 -8.94972
668 1 14.1524 17.2981 20.4426 -8.94977
669 1 15.7288 15.7288 18.8736 -8.94509
670 1 17.2983 17.2983 20.4425 -8.94822
671 1 18.8708 15.7253 18.8701 -8.94956
672 1 20.442 17.2971 20.4418 -8.94954
673 1 22.0136 18.8695 18.8695 -8.94958
674 1 1.57195 20.4418 20.4418 -8.94912
675 1 3.14341 18.8703 18.8705 -8.94822
676 1 4.71696 20.4419 20.4419 -8.94959
677 1 6.28907 18.8703 18.8704 -8.94942
678 1 7.86198 20.4419 20.4419 -8.94947
679 1 9.43442 18.8704 18.8703 -8.94935
680 1 11.007 20.4419 20.4419 -8.94951
681 1 12.5797 18.8705 18.8701 -8.94908
682 1 14.152 20.4419 20.4418 -8.94947
683 1 15.7254 18.8709 18.8703 -8.94946
684 1 17.2971 20.442 20.4418 -8.94953
685 1 18.8697 18.8698 18.8694 -8.9494
686 1 20.4416 20.4417 20.4416 -8.94937
687 3 10.0921 11.007 12.6177 2.36469
