ITEM: TIMESTEP
89
ITEM: NUMBER OF ATOMS
688
ITEM: BOX BOUNDS pp pp pp
0.0000000000000000e+00 2.2013900999999997e+01
0.0000000000000000e+00 2.2013900999999997e+01
0.0000000000000000e+00 2.2013900999999997e+01
ITEM: ATOMS id type x y z c_pot
1 1 22.0136 1.44135e-15 5.22612e-16 -8.94898
2 1 1.57171 1.57195 1.57191 -8.94901
3 1 3.14437 1.80985e-15 4.84028e-16 -8.9496
4 1 4.71671 1.57189 1.57183 -8.94953
5 1 6.2894 1.8139e-15 4.92431e-16 -8.94944
6 1 7.86186 1.57183 1.57185 -8.9494
7 1 9.43446 1.89809e-15 -3.49857e-17 -8.94949
8 1 11.007 1.57177 1.57187 -8.94944
9 1 12.5795 1.73425e-15 3.95081e-17 -8.94947
10 1 14.1522 1.57174 1.57196 -8.94942
11 1 15.7246 1.43464e-15 -4.85955e-16 -8.94955
12 1 17.2974 1.57166 1.57195 -8.94946
13 1 18.8696 1.14768e-15 1.31134e-15 -8.9492
14 1 20.4417 1.57205 1.5722 -8.94925
15 1 22.0139 3.14447 1.60159e-15 -8.94958
16 1 1.57203 4.71698 1.57191 -8.94994
17 1 3.14395 3.14406 1.705e-15 -8.94949
18 1 4.71583 4.71609 1.57082 -8.95011
19 1 6.28914 3.14401 1.83135e-15 -8.94934
20 1 7.86134 4.71587 1.57112 -8.94908
21 1 9.4343 3.1438 3.5504e-16 -8.94942
22 1 11.0068 4.71558 1.57115 -8.94928
23 1 12.5796 3.14374 1.26074e-15 -8.94932
24 1 14.1527 4.71529 1.57102 -8.9498
25 1 15.725 3.14361 1.4685e-17 -8.94969
26 1 17.2988 4.71512 1.57119 -8.94819
27 1 18.8701 3.14384 2.00238e-16 -8.94877
28 1 20.4423 4.71661 1.57201 -8.94948
29 1 22.0142 6.28945 1.67258e-15 -8.94944
30 1 1.57225 7.86206 1.57203 -8.94935
31 1 3.14445 6.28978 1.80142e-15 -8.94989
32 1 4.71684 7.86261 1.57191 -8.94971
33 1 6.28883 6.28924 1.53254e-15 -8.95151
34 1 7.86163 7.86209 1.57083 -8.95265
35 1 9.43376 6.28838 1.36074e-15 -8.94969
36 1 11.0063 7.86087 1.56999 -8.95114
37 1 12.5795 6.28818 8.35334e-16 -8.94992
38 1 14.1542 7.85983 1.56872 -8.95221
39 1 15.7263 6.28753 1.68199e-15 -8.95022
40 1 17.2991 7.86079 1.57105 -8.94892
41 1 18.8704 6.28879 1.80093e-15 -8.94931
42 1 20.4424 7.86169 1.57194 -8.94938
43 1 22.0142 9.43442 1.61186e-15 -8.94951
44 1 3.1444 9.43457 1.85677e-15 -8.94951
45 1 6.28934 9.435 1.6107e-15 -8.94914
46 1 9.43409 9.43482 8.31805e-16 -8.94834
47 1 12.5797 9.43425 2.51427e-15 -8.95332
48 1 15.7267 9.43363 2.23776e-15 -8.9491
49 1 18.8706 9.43418 1.52503e-15 -8.94935
50 1 -0.000436092 1.41481e-15 3.14443 -8.94922
51 1 1.57123 1.57175 4.71626 -8.94898
52 1 3.14393 1.59968e-15 3.14388 -8.94956
53 1 4.71591 1.57098 4.71561 -8.95004
54 1 6.28928 1.77777e-15 3.14391 -8.94943
55 1 7.86178 1.57108 4.71585 -8.94944
56 1 9.43453 1.78629e-15 3.14393 -8.94947
57 1 11.0073 1.57111 4.71596 -8.94945
58 1 12.5797 1.70909e-15 3.14405 -8.94942
59 1 14.1526 1.57099 4.71636 -8.95052
60 1 15.7249 1.54335e-15 3.14423 -8.94998
61 1 17.2975 1.57156 4.7167 -8.94949
62 1 18.8695 4.54112e-16 3.14451 -8.94944
63 1 20.4414 1.572 4.71691 -8.94949
64 1 22.0135 3.14425 3.14418 -8.94955
65 1 1.57053 4.71616 4.71572 -8.94999
66 1 3.14298 3.14326 3.1429 -8.94814
67 1 4.71188 4.71237 4.7114 -8.94455
68 1 6.28872 3.14323 3.14311 -8.94935
69 1 7.86034 4.71308 4.71336 -8.94802
70 1 9.43431 3.14311 3.14328 -8.94929
71 1 11.0074 4.71314 4.71356 -8.9475
72 1 12.5799 3.14298 3.14342 -8.94903
73 1 14.1557 4.71122 4.71284 -8.94958
74 1 15.7259 3.14247 3.14325 -8.94939
75 1 17.2993 4.71466 4.71559 -8.94888
76 1 18.87 3.14379 3.14425 -8.94936
77 1 20.4419 4.71641 4.71662 -8.94987
78 1 22.0141 6.28936 3.14422 -8.94972
79 1 1.57175 7.86222 4.71639 -8.94962
80 1 3.14373 6.28954 3.14356 -8.95047
81 1 4.71526 7.86274 4.71548 -8.95151
82 1 6.28689 6.28739 3.14004 -8.95165
83 1 7.85756 7.85738 4.70764 -8.95825
84 1 9.4335 6.2868 3.14106 -8.948
85 1 11.0072 7.85695 4.70683 -8.95327
86 1 12.5806 6.28638 3.14022 -8.94989
87 1 14.1659 7.8492 4.70158 -8.93366
88 1 15.7295 6.28455 3.13972 -8.94522
89 1 17.3024 7.85925 4.71397 -8.95006
90 1 18.8713 6.28824 3.14355 -8.94949
91 1 20.443 7.86152 4.71636 -8.94994
92 1 0.000374224 9.43439 3.14409 -8.94948
93 1 3.14417 9.43467 3.1439 -8.94895
94 1 6.28974 9.43585 3.14486 -8.94927
95 1 9.43499 9.43476 3.1448 -8.9482
96 1 12.5828 9.43299 3.13501 -8.95995
97 1 15.7295 9.43265 3.13986 -8.94744
98 1 18.8715 9.43396 3.14339 -8.94921
99 1 22.0132 1.64885e-15 6.28926 -8.94945
100 1 1.57095 1.57159 7.86143 -8.94932
101 1 3.14329 1.19579e-15 6.28845 -8.94929
102 1 4.71494 1.57003 7.86048 -8.94974
103 1 6.28896 1.26193e-15 6.28847 -8.95051
104 1 7.86174 1.5699 7.86113 -8.95121
105 1 9.43475 1.77795e-15 6.28857 -8.95009
106 1 11.0074 1.57083 7.8614 -8.94964
107 1 12.5799 1.5052e-15 6.28905 -8.95024
108 1 14.1528 1.5709 7.86171 -8.95052
109 1 15.7251 1.12275e-15 6.28927 -8.94996
110 1 17.2973 1.5718 7.86207 -8.94957
111 1 18.8693 1.0342e-15 6.28954 -8.94961
112 1 20.4413 1.57199 7.86191 -8.94946
113 1 -0.00103871 3.14394 6.28894 -8.94938
114 1 1.56898 4.71524 7.86056 -8.94935
115 1 3.14173 3.1422 6.28722 -8.94753
116 1 4.70861 4.70915 7.85601 -8.94126
117 1 6.2872 3.14009 6.28674 -8.9516
118 1 7.85803 4.70617 7.85844 -8.95821
119 1 9.43446 3.14093 6.28736 -8.94998
120 1 11.0069 4.71158 7.85929 -8.9513
121 1 12.5803 3.14115 6.28817 -8.95188
122 1 14.1561 4.71098 7.85907 -8.94799
123 1 15.7262 3.14213 6.2885 -8.94914
124 1 17.2986 4.71546 7.86179 -8.9498
125 1 18.8697 3.14388 6.28937 -8.94967
126 1 20.4412 4.71631 7.86176 -8.94978
127 1 22.013 6.2891 6.28893 -8.95048
128 1 1.56939 7.862 7.86139 -8.95193
129 1 3.13965 6.28755 6.28665 -8.95173
130 1 4.7055 7.85886 7.8587 -8.9604
131 1 6.27431 6.27517 6.27378 -8.93096
132 1 7.8167 7.82058 7.82222 -8.85716
133 1 9.43268 6.27919 6.2819 -8.94679
134 1 11.0246 7.84394 7.82919 -8.89505
135 1 12.5876 6.27644 6.2784 -8.95101
136 1 14.1683 7.84934 7.85045 -8.93625
137 1 15.7312 6.28373 6.28518 -8.94651
138 1 17.3017 7.86026 7.86129 -8.95221
139 1 18.8713 6.28831 6.28894 -8.95025
140 1 20.4421 7.86172 7.86191 -8.95055
141 1 22.0141 9.43453 6.28891 -8.94975
142 1 3.14343 9.43551 6.28863 -8.949
143 1 6.28839 9.43865 6.2904 -8.9507
144 1 9.42698 9.41622 6.29164 -8.9173
145 1 12.6195 9.40384 6.24642 -8.88457
146 1 15.7377 9.43067 6.28222 -8.95424
147 1 18.8731 9.43387 6.28837 -8.9511
148 1 -0.000727036 1.50963e-15 9.43436 -8.94946
149 1 3.14307 7.96424e-16 9.43404 -8.94929
150 1 6.28835 1.73101e-15 9.43391 -8.95143
151 1 9.43495 1.62956e-15 9.43405 -8.94902
152 1 12.58 6.52445e-16 9.43447 -8.95029
153 1 15.725 1.12169e-15 9.43456 -8.94945
154 1 18.8693 9.21405e-16 9.43448 -8.94949
155 1 22.0127 3.14381 9.43424 -8.94937
156 1 3.14139 3.14191 9.43355 -8.94894
157 1 6.28514 3.13703 9.43264 -8.95148
158 1 9.43455 3.14117 9.43346 -8.94711
159 1 12.5804 3.14166 9.43399 -8.95187
160 1 15.7254 3.14334 9.43463 -8.94936
161 1 18.8695 3.14395 9.43448 -8.94938
162 1 22.0117 6.28868 9.43415 -8.95061
163 1 3.1357 6.28514 9.43231 -8.95029
164 1 6.26496 6.26577 9.42122 -8.91765
165 1 9.42982 6.28377 9.4316 -9.00922
166 1 12.5873 6.2777 9.42539 -8.94484
167 1 15.7281 6.2869 9.43435 -8.94898
168 1 18.8702 6.28858 9.4346 -8.94979
169 1 22.0131 9.43483 9.43434 -8.94941
170 1 3.14174 9.43586 9.4341 -8.95003
171 1 6.28309 9.42943 9.43554 -8.96859
172 1 9.3595 9.15335 9.44548 -8.05842
173 1 12.5945 9.40814 9.38522 -8.83346
174 1 15.7282 9.43431 9.43223 -8.95252
175 1 18.8705 9.43447 9.43467 -8.94967
176 1 1.57088 1.57155 11.007 -8.94934
177 1 4.71471 1.56991 11.007 -8.94921
178 1 7.86161 1.56903 11.007 -8.95343
179 1 11.0072 1.57113 11.007 -8.94959
180 1 14.1527 1.57156 11.007 -8.94902
181 1 17.2973 1.57183 11.007 -8.94946
182 1 20.4412 1.57196 11.007 -8.94949
183 1 1.56874 4.71508 11.007 -8.94903
184 1 4.70869 4.70923 11.007 -8.94539
185 1 7.85542 4.69986 11.007 -8.96652
186 1 11.0071 4.71246 11.007 -8.9549
187 1 14.1536 4.71522 11.007 -8.94699
188 1 17.2981 4.71572 11.007 -8.94863
189 1 20.4411 4.71619 11.007 -8.94956
190 1 1.5673 7.86158 11.007 -8.95426
191 1 4.69599 7.85476 11.007 -8.96696
192 1 7.77397 7.78656 11.007 -8.7345
193 1 11.0572 7.83909 11.007 -8.83041
194 1 14.1591 7.86243 11.007 -8.967
195 1 17.299 7.86143 11.007 -8.95077
196 1 20.4412 7.86172 11.007 -8.9504
197 1 -0.000727036 1.47125e-15 12.5795 -8.94946
198 1 1.57095 1.57159 14.1525 -8.94932
199 1 3.14307 1.19879e-15 12.5799 -8.94929
200 1 4.71494 1.57003 14.1534 -8.94974
201 1 6.28835 1.70363e-15 12.58 -8.95143
202 1 7.86174 1.5699 14.1528 -8.95121
203 1 9.43495 8.89202e-16 12.5798 -8.94902
204 1 11.0074 1.57083 14.1525 -8.94964
205 1 12.58 1.15604e-15 12.5794 -8.95029
206 1 14.1528 1.5709 14.1522 -8.95052
207 1 15.725 1.61378e-15 12.5793 -8.94945
208 1 17.2973 1.5718 14.1518 -8.94957
209 1 18.8693 1.81415e-15 12.5794 -8.94949
210 1 20.4413 1.57199 14.152 -8.94946
211 1 22.0127 3.14381 12.5797 -8.94937
212 1 1.56898 4.71524 14.1533 -8.94935
213 1 3.14139 3.14191 12.5804 -8.94894
214 1 4.70861 4.70915 14.1579 -8.94126
215 1 6.28514 3.13703 12.5813 -8.95148
216 1 7.85803 4.70617 14.1555 -8.95821
217 1 9.43455 3.14117 12.5804 -8.94711
218 1 11.0069 4.71158 14.1546 -8.9513
219 1 12.5804 3.14166 12.5799 -8.95187
220 1 14.1561 4.71098 14.1548 -8.94799
221 1 15.7254 3.14334 12.5793 -8.94936
222 1 17.2986 4.71546 14.1521 -8.9498
223 1 18.8695 3.14395 12.5794 -8.94938
224 1 20.4412 4.71631 14.1521 -8.94978
225 1 22.0117 6.28868 12.5798 -8.95061
226 1 1.56939 7.862 14.1525 -8.95193
227 1 3.1357 6.28514 12.5816 -8.95029
228 1 4.7055 7.85886 14.1552 -8.9604
229 1 6.26496 6.26577 12.5927 -8.91765
230 1 7.8167 7.82058 14.1917 -8.85716
231 1 9.42982 6.28377 12.5823 -9.00922
232 1 11.0246 7.84394 14.1847 -8.89505
233 1 12.5873 6.2777 12.5885 -8.94484
234 1 14.1683 7.84934 14.1635 -8.93625
235 1 15.7281 6.2869 12.5795 -8.94898
236 1 17.3017 7.86026 14.1526 -8.95221
237 1 18.8702 6.28858 12.5793 -8.94979
238 1 20.4421 7.86172 14.152 -8.95055
239 1 22.0131 9.43483 12.5796 -8.94941
240 1 3.14174 9.43586 12.5798 -8.95003
241 1 6.28309 9.42943 12.5784 -8.96859
242 1 9.3595 9.15335 12.5684 -8.05842
243 1 12.5945 9.40814 12.6287 -8.83346
244 1 15.7282 9.43431 12.5817 -8.95252
245 1 18.8705 9.43447 12.5792 -8.94967
246 1 22.0132 1.41373e-15 15.7246 -8.94945
247 1 1.57123 1.57175 17.2976 -8.94898
248 1 3.14329 1.44378e-15 15.7254 -8.94929
249 1 4.71591 1.57098 17.2983 -8.95004
250 1 6.28896 1.56006e-15 15.7254 -8.95051
251 1 7.86178 1.57108 17.2981 -8.94944
252 1 9.43475 1.76351e-15 15.7253 -8.95009
253 1 11.0073 1.57111 17.2979 -8.94945
254 1 12.5799 1.06699e-15 15.7249 -8.95024
255 1 14.1526 1.57099 17.2975 -8.95052
256 1 15.7251 1.00641e-15 15.7246 -8.94996
257 1 17.2975 1.57156 17.2972 -8.94949
258 1 18.8693 1.65429e-15 15.7244 -8.94961
259 1 20.4414 1.572 17.297 -8.94949
260 1 -0.00103871 3.14394 15.725 -8.94938
261 1 1.57053 4.71616 17.2982 -8.94999
262 1 3.14173 3.1422 15.7267 -8.94753
263 1 4.71188 4.71237 17.3025 -8.94455
264 1 6.2872 3.14009 15.7272 -8.9516
265 1 7.86034 4.71308 17.3005 -8.94802
266 1 9.43446 3.14093 15.7265 -8.94998
267 1 11.0074 4.71314 17.3003 -8.9475
268 1 12.5803 3.14115 15.7257 -8.95188
269 1 14.1557 4.71122 17.3011 -8.94958
270 1 15.7262 3.14213 15.7254 -8.94914
271 1 17.2993 4.71466 17.2983 -8.94888
272 1 18.8697 3.14388 15.7245 -8.94967
273 1 20.4419 4.71641 17.2973 -8.94987
274 1 22.013 6.2891 15.725 -8.95048
275 1 1.57175 7.86222 17.2975 -8.94962
276 1 3.13965 6.28755 15.7272 -8.95173
277 1 4.71526 7.86274 17.2984 -8.95151
278 1 6.27431 6.27517 15.7401 -8.93096
279 1 7.85756 7.85738 17.3063 -8.95825
280 1 9.43268 6.27919 15.732 -8.94679
281 1 11.0072 7.85695 17.3071 -8.95327
282 1 12.5876 6.27644 15.7355 -8.95101
283 1 14.1659 7.8492 17.3123 -8.93366
284 1 15.7312 6.28373 15.7287 -8.94651
285 1 17.3024 7.85925 17.2999 -8.95006
286 1 18.8713 6.28831 15.725 -8.95025
287 1 20.443 7.86152 17.2975 -8.94994
288 1 22.0141 9.43453 15.725 -8.94975
289 1 3.14343 9.43551 15.7253 -8.949
290 1 6.28839 9.43865 15.7235 -8.9507
291 1 9.42698 9.41622 15.7223 -8.9173
292 1 12.6195 9.40384 15.7675 -8.88457
293 1 15.7377 9.43067 15.7317 -8.95424
294 1 18.8731 9.43387 15.7255 -8.9511
295 1 -0.000436092 1.66507e-15 18.8695 -8.94922
296 1 1.57171 1.57195 20.442 -8.94901
297 1 3.14393 1.80841e-15 18.87 -8.94956
298 1 4.71671 1.57189 20.4421 -8.94953
299 1 6.28928 1.72859e-15 18.87 -8.94943
300 1 7.86186 1.57183 20.442 -8.9494
301 1 9.43453 1.7874e-15 18.87 -8.94947
302 1 11.007 1.57177 20.442 -8.94944
303 1 12.5797 1.71085e-15 18.8698 -8.94942
304 1 14.1522 1.57174 20.4419 -8.94942
305 1 15.7249 1.09786e-15 18.8697 -8.94998
306 1 17.2974 1.57166 20.442 -8.94946
307 1 18.8695 5.43512e-16 18.8694 -8.94944
308 1 20.4417 1.57205 20.4417 -8.94925
309 1 22.0135 3.14425 18.8697 -8.94955
310 1 1.57203 4.71698 20.442 -8.94994
311 1 3.14298 3.14326 18.871 -8.94814
312 1 4.71583 4.71609 20.4431 -8.95011
313 1 6.28872 3.14323 18.8708 -8.94935
314 1 7.86134 4.71587 20.4428 -8.94908
315 1 9.43431 3.14311 18.8706 -8.94929
316 1 11.0068 4.71558 20.4428 -8.94928
317 1 12.5799 3.14298 18.8705 -8.94903
318 1 14.1527 4.71529 20.4429 -8.9498
319 1 15.7259 3.14247 18.8707 -8.94939
320 1 17.2988 4.71512 20.4427 -8.94819
321 1 18.87 3.14379 18.8697 -8.94936
322 1 20.4423 4.71661 20.4419 -8.94948
323 1 22.0141 6.28936 18.8697 -8.94972
324 1 1.57225 7.86206 20.4419 -8.94935
325 1 3.14373 6.28954 18.8703 -8.95047
326 1 4.71684 7.86261 20.442 -8.94971
327 1 6.28689 6.28739 18.8739 -8.95165
328 1 7.86163 7.86209 20.4431 -8.95265
329 1 9.4335 6.2868 18.8728 -8.948
330 1 11.0063 7.86087 20.4439 -8.95114
331 1 12.5806 6.28638 18.8737 -8.94989
332 1 14.1542 7.85983 20.4452 -8.95221
333 1 15.7295 6.28455 18.8742 -8.94522
334 1 17.2991 7.86079 20.4429 -8.94892
335 1 18.8713 6.28824 18.8703 -8.94949
336 1 20.4424 7.86169 20.442 -8.94938
337 1 0.000374224 9.43439 18.8698 -8.94948
338 1 3.14417 9.43467 18.87 -8.94895
339 1 6.28974 9.43585 18.869 -8.94927
340 1 9.43499 9.43476 18.8691 -8.9482
341 1 12.5828 9.43299 18.8789 -8.95995
342 1 15.7295 9.43265 18.874 -8.94744
343 1 18.8715 9.43396 18.8705 -8.94921
344 1 1.57224 11.007 1.57198 -8.94954
345 1 4.71669 11.007 1.57193 -8.9497
346 1 7.86203 11.007 1.57322 -8.94705
347 1 11.0066 11.007 1.57163 -8.94657
348 1 14.1551 11.007 1.56855 -8.95006
349 1 17.2992 11.007 1.57101 -8.94924
350 1 20.4425 11.007 1.57191 -8.94945
351 1 22.0142 12.5795 1.56756e-15 -8.94951
352 1 1.57225 14.1518 1.57203 -8.94935
353 1 3.1444 12.5793 1.62602e-15 -8.94951
354 1 4.71684 14.1513 1.57191 -8.94971
355 1 6.28934 12.5789 1.70516e-15 -8.94914
356 1 7.86163 14.1518 1.57083 -8.95265
357 1 9.43409 12.5791 7.29943e-16 -8.94834
358 1 11.0063 14.153 1.56999 -8.95114
359 1 12.5797 12.5797 2.54762e-15 -8.95332
360 1 14.1542 14.1541 1.56872 -8.95221
361 1 15.7267 12.5803 2.2271e-15 -8.9491
362 1 17.2991 14.1531 1.57105 -8.94892
363 1 18.8706 12.5797 1.56595e-15 -8.94935
364 1 20.4424 14.1522 1.57194 -8.94938
365 1 22.0142 15.7245 1.78377e-15 -8.94944
366 1 1.57203 17.2969 1.57191 -8.94994
367 1 3.14445 15.7241 1.74049e-15 -8.94989
368 1 4.71583 17.2978 1.57082 -8.95011
369 1 6.28883 15.7247 1.52335e-15 -8.95151
370 1 7.86134 17.298 1.57112 -8.94908
371 1 9.43376 15.7255 1.16224e-15 -8.94969
372 1 11.0068 17.2983 1.57115 -8.94928
373 1 12.5795 15.7257 9.35075e-16 -8.94992
374 1 14.1527 17.2986 1.57102 -8.9498
375 1 15.7263 15.7264 1.874e-15 -8.95022
376 1 17.2988 17.2988 1.57119 -8.94819
377 1 18.8704 15.7251 1.85637e-15 -8.94931
378 1 20.4423 17.2973 1.57201 -8.94948
379 1 22.0139 18.8694 7.07775e-16 -8.94958
380 1 1.57171 20.442 1.57191 -8.94901
381 1 3.14395 18.8698 1.68261e-15 -8.94949
382 1 4.71671 20.442 1.57183 -8.94953
383 1 6.28914 18.8699 1.73461e-15 -8.94934
384 1 7.86186 20.4421 1.57185 -8.9494
385 1 9.4343 18.8701 -2.95945e-17 -8.94942
386 1 11.007 20.4421 1.57187 -8.94944
387 1 12.5796 18.8702 1.48425e-15 -8.94932
388 1 14.1522 20.4422 1.57196 -8.94942
389 1 15.725 18.8703 1.36958e-15 -8.94969
390 1 17.2974 20.4422 1.57195 -8.94946
391 1 18.8701 18.8701 9.43322e-16 -8.94877
392 1 20.4417 20.4419 1.5722 -8.94925
393 1 1.57191 11.007 4.71611 -8.94943
394 1 4.7162 11.007 4.71574 -8.9462
395 1 7.8665 11.007 4.72392 -8.94356
396 1 11.0123 11.007 4.71818 -8.99219
397 1 14.1647 11.007 4.70355 -8.94192
398 1 17.3027 11.007 4.71362 -8.94902
399 1 20.4432 11.007 4.71616 -8.94983
400 1 0.000374224 12.5795 3.14409 -8.94948
401 1 1.57175 14.1517 4.71639 -8.94962
402 1 3.14417 12.5792 3.1439 -8.94895
403 1 4.71526 14.1512 4.71548 -8.95151
404 1 6.28974 12.5781 3.14486 -8.94927
405 1 7.85756 14.1565 4.70764 -8.95825
406 1 9.43499 12.5791 3.1448 -8.9482
407 1 11.0072 14.157 4.70683 -8.95327
408 1 12.5828 12.5809 3.13501 -8.95995
409 1 14.1659 14.1647 4.70158 -8.93366
410 1 15.7295 12.5812 3.13986 -8.94744
411 1 17.3024 14.1547 4.71397 -8.95006
412 1 18.8715 12.5799 3.14339 -8.94921
413 1 20.443 14.1524 4.71636 -8.94994
414 1 22.0141 15.7245 3.14422 -8.94972
415 1 1.57053 17.2977 4.71572 -8.94999
416 1 3.14373 15.7244 3.14356 -8.95047
417 1 4.71188 17.3015 4.7114 -8.94455
418 1 6.28689 15.7265 3.14004 -8.95165
419 1 7.86034 17.3008 4.71336 -8.94802
420 1 9.4335 15.7271 3.14106 -8.948
421 1 11.0074 17.3008 4.71356 -8.9475
422 1 12.5806 15.7275 3.14022 -8.94989
423 1 14.1557 17.3027 4.71284 -8.94958
424 1 15.7295 15.7293 3.13972 -8.94522
425 1 17.2993 17.2992 4.71559 -8.94888
426 1 18.8713 15.7257 3.14355 -8.94949
427 1 20.4419 17.2975 4.71662 -8.94987
428 1 22.0135 18.8697 3.14418 -8.94955
429 1 1.57123 20.4422 4.71626 -8.94898
430 1 3.14298 18.8706 3.1429 -8.94814
431 1 4.71591 20.4429 4.71561 -8.95004
432 1 6.28872 18.8707 3.14311 -8.94935
433 1 7.86178 20.4428 4.71585 -8.94944
434 1 9.43431 18.8708 3.14328 -8.94929
435 1 11.0073 20.4428 4.71596 -8.94945
436 1 12.5799 18.8709 3.14342 -8.94903
437 1 14.1526 20.4429 4.71636 -8.95052
438 1 15.7259 18.8714 3.14325 -8.94939
439 1 17.2975 20.4423 4.7167 -8.94949
440 1 18.87 18.8701 3.14425 -8.94936
441 1 20.4414 20.4419 4.71691 -8.94949
442 1 1.5718 11.007 7.86116 -8.94735
443 1 4.72001 11.007 7.86248 -8.93769
444 1 7.8891 11.007 7.88462 -8.84036
445 1 11.1017 11.007 7.67691 -8.23207
446 1 14.1724 11.007 7.84515 -8.96501
447 1 17.3032 11.007 7.86024 -8.95196
448 1 20.4429 11.007 7.86169 -8.94999
449 1 22.0141 12.5794 6.28891 -8.94975
450 1 1.56939 14.1519 7.86139 -8.95193
451 1 3.14343 12.5784 6.28863 -8.949
452 1 4.7055 14.155 7.8587 -8.9604
453 1 6.28839 12.5753 6.2904 -8.9507
454 1 7.8167 14.1933 7.82222 -8.85716
455 1 9.42698 12.5977 6.29164 -8.9173
456 1 11.0246 14.17 7.82919 -8.89505
457 1 12.6195 12.6101 6.24642 -8.88457
458 1 14.1683 14.1646 7.85045 -8.93625
459 1 15.7377 12.5832 6.28222 -8.95424
460 1 17.3017 14.1536 7.86129 -8.95221
461 1 18.8731 12.58 6.28837 -8.9511
462 1 20.4421 14.1522 7.86191 -8.95055
463 1 22.013 15.7248 6.28893 -8.95048
464 1 1.56898 17.2987 7.86056 -8.94935
465 1 3.13965 15.7263 6.28665 -8.95173
466 1 4.70861 17.3048 7.85601 -8.94126
467 1 6.27431 15.7387 6.27378 -8.93096
468 1 7.85803 17.3077 7.85844 -8.95821
469 1 9.43268 15.7347 6.2819 -8.94679
470 1 11.0069 17.3023 7.85929 -8.9513
471 1 12.5876 15.7375 6.2784 -8.95101
472 1 14.1561 17.3029 7.85907 -8.94799
473 1 15.7312 15.7302 6.28518 -8.94651
474 1 17.2986 17.2984 7.86179 -8.9498
475 1 18.8713 15.7256 6.28894 -8.95025
476 1 20.4412 17.2976 7.86176 -8.94978
477 1 -0.00103871 18.87 6.28894 -8.94938
478 1 1.57095 20.4423 7.86143 -8.94932
479 1 3.14173 18.8717 6.28722 -8.94753
480 1 4.71494 20.4439 7.86048 -8.94974
481 1 6.2872 18.8738 6.28674 -8.9516
482 1 7.86174 20.444 7.86113 -8.95121
483 1 9.43446 18.873 6.28736 -8.94998
484 1 11.0074 20.4431 7.8614 -8.94964
485 1 12.5803 18.8728 6.28817 -8.95188
486 1 14.1528 20.443 7.86171 -8.95052
487 1 15.7262 18.8718 6.2885 -8.94914
488 1 17.2973 20.4421 7.86207 -8.94957
489 1 18.8697 18.87 6.28937 -8.94967
490 1 20.4413 20.4419 7.86191 -8.94946
491 1 22.0131 12.5791 9.43434 -8.94941
492 1 3.14174 12.578 9.4341 -8.95003
493 1 6.28309 12.5845 9.43554 -8.96859
494 1 9.3595 12.8605 9.44548 -8.05842
495 1 12.5945 12.6058 9.38522 -8.83346
496 1 15.7282 12.5796 9.43223 -8.95252
497 1 18.8705 12.5794 9.43467 -8.94967
498 1 22.0117 15.7252 9.43415 -8.95061
499 1 3.1357 15.7288 9.43231 -8.95029
500 1 6.26496 15.7481 9.42122 -8.91765
501 1 9.42982 15.7301 9.4316 -9.00922
502 1 12.5873 15.7362 9.42539 -8.94484
503 1 15.7281 15.727 9.43435 -8.94898
504 1 18.8702 15.7253 9.4346 -8.94979
505 1 22.0127 18.8701 9.43424 -8.94937
506 1 3.14139 18.872 9.43355 -8.94894
507 1 6.28514 18.8769 9.43264 -8.95148
508 1 9.43455 18.8727 9.43346 -8.94711
509 1 12.5804 18.8722 9.43399 -8.95187
510 1 15.7254 18.8706 9.43463 -8.94936
511 1 18.8695 18.87 9.43448 -8.94938
688 3 10.0813 11.007 9.39745 2.3602
512 1 1.57192 11.007 11.007 -8.94516
513 1 4.72433 11.007 11.007 -8.9332
514 1 7.90272 11.007 11.007 -8.72153
515 1 11.2686 11.007 11.007 -7.40255
516 1 14.1392 11.007 11.007 -9.01425
517 1 17.2957 11.007 11.007 -8.94492
518 1 20.4414 11.007 11.007 -8.9478
519 1 1.5673 14.1523 11.007 -8.95426
520 1 4.69599 14.1591 11.007 -8.96696
521 1 7.77397 14.2273 11.007 -8.7345
522 1 11.0572 14.1748 11.007 -8.83041
523 1 14.1591 14.1515 11.007 -8.967
524 1 17.299 14.1525 11.007 -8.95077
525 1 20.4412 14.1522 11.007 -8.9504
526 1 1.56874 17.2988 11.007 -8.94903
527 1 4.70869 17.3047 11.007 -8.94539
528 1 7.85542 17.314 11.007 -8.96652
529 1 11.0071 17.3014 11.007 -8.9549
530 1 14.1536 17.2987 11.007 -8.94699
531 1 17.2981 17.2982 11.007 -8.94863
532 1 20.4411 17.2977 11.007 -8.94956
533 1 1.57088 20.4423 11.007 -8.94934
534 1 4.71471 20.444 11.007 -8.94921
535 1 7.86161 20.4449 11.007 -8.95343
536 1 11.0072 20.4428 11.007 -8.94959
537 1 14.1527 20.4423 11.007 -8.94902
538 1 17.2973 20.4421 11.007 -8.94946
539 1 20.4412 20.4419 11.007 -8.94949
540 1 1.5718 11.007 14.1527 -8.94735
541 1 4.72001 11.007 14.1514 -8.93769
542 1 7.8891 11.007 14.1293 -8.84036
543 1 11.1017 11.007 14.337 -8.23207
544 1 14.1724 11.007 14.1687 -8.96501
545 1 17.3032 11.007 14.1537 -8.95196
546 1 20.4429 11.007 14.1522 -8.94999
547 1 22.0131 12.5791 12.5796 -8.94941
548 1 1.56939 14.1519 14.1525 -8.95193
549 1 3.14174 12.578 12.5798 -8.95003
550 1 4.7055 14.155 14.1552 -8.9604
551 1 6.28309 12.5845 12.5784 -8.96859
552 1 7.8167 14.1933 14.1917 -8.85716
553 1 9.3595 12.8605 12.5684 -8.05842
554 1 11.0246 14.17 14.1847 -8.89505
555 1 12.5945 12.6058 12.6287 -8.83346
556 1 14.1683 14.1646 14.1635 -8.93625
557 1 15.7282 12.5796 12.5817 -8.95252
558 1 17.3017 14.1536 14.1526 -8.95221
559 1 18.8705 12.5794 12.5792 -8.94967
560 1 20.4421 14.1522 14.152 -8.95055
561 1 22.0117 15.7252 12.5798 -8.95061
562 1 1.56898 17.2987 14.1533 -8.94935
563 1 3.1357 15.7288 12.5816 -8.95029
564 1 4.70861 17.3048 14.1579 -8.94126
565 1 6.26496 15.7481 12.5927 -8.91765
566 1 7.85803 17.3077 14.1555 -8.95821
567 1 9.42982 15.7301 12.5823 -9.00922
568 1 11.0069 17.3023 14.1546 -8.9513
569 1 12.5873 15.7362 12.5885 -8.94484
570 1 14.1561 17.3029 14.1548 -8.94799
571 1 15.7281 15.727 12.5795 -8.94898
572 1 17.2986 17.2984 14.1521 -8.9498
573 1 18.8702 15.7253 12.5793 -8.94979
574 1 20.4412 17.2976 14.1521 -8.94978
575 1 22.0127 18.8701 12.5797 -8.94937
576 1 1.57095 20.4423 14.1525 -8.94932
577 1 3.14139 18.872 12.5804 -8.94894
578 1 4.71494 20.4439 14.1534 -8.94974
579 1 6.28514 18.8769 12.5813 -8.95148
580 1 7.86174 20.444 14.1528 -8.95121
581 1 9.43455 18.8727 12.5804 -8.94711
582 1 11.0074 20.4431 14.1525 -8.94964
583 1 12.5804 18.8722 12.5799 -8.95187
584 1 14.1528 20.443 14.1522 -8.95052
585 1 15.7254 18.8706 12.5793 -8.94936
586 1 17.2973 20.4421 14.1518 -8.94957
587 1 18.8695 18.87 12.5794 -8.94938
588 1 20.4413 20.4419 14.152 -8.94946
589 1 1.57191 11.007 17.2978 -8.94943
590 1 4.7162 11.007 17.2982 -8.9462
591 1 7.8665 11.007 17.29 -8.94356
592 1 11.0123 11.007 17.2957 -8.99219
593 1 14.1647 11.007 17.3104 -8.94192
594 1 17.3027 11.007 17.3003 -8.94902
595 1 20.4432 11.007 17.2977 -8.94983
596 1 22.0141 12.5794 15.725 -8.94975
597 1 1.57175 14.1517 17.2975 -8.94962
598 1 3.14343 12.5784 15.7253 -8.949
599 1 4.71526 14.1512 17.2984 -8.95151
600 1 6.28839 12.5753 15.7235 -8.9507
601 1 7.85756 14.1565 17.3063 -8.95825
602 1 9.42698 12.5977 15.7223 -8.9173
603 1 11.0072 14.157 17.3071 -8.95327
604 1 12.6195 12.6101 15.7675 -8.88457
605 1 14.1659 14.1647 17.3123 -8.93366
606 1 15.7377 12.5832 15.7317 -8.95424
607 1 17.3024 14.1547 17.2999 -8.95006
608 1 18.8731 12.58 15.7255 -8.9511
609 1 20.443 14.1524 17.2975 -8.94994
610 1 22.013 15.7248 15.725 -8.95048
611 1 1.57053 17.2977 17.2982 -8.94999
612 1 3.13965 15.7263 15.7272 -8.95173
613 1 4.71188 17.3015 17.3025 -8.94455
614 1 6.27431 15.7387 15.7401 -8.93096
615 1 7.86034 17.3008 17.3005 -8.94802
616 1 9.43268 15.7347 15.732 -8.94679
617 1 11.0074 17.3008 17.3003 -8.9475
618 1 12.5876 15.7375 15.7355 -8.95101
619 1 14.1557 17.3027 17.3011 -8.94958
620 1 15.7312 15.7302 15.7287 -8.94651
621 1 17.2993 17.2992 17.2983 -8.94888
622 1 18.8713 15.7256 15.725 -8.95025
623 1 20.4419 17.2975 17.2973 -8.94987
624 1 -0.00103871 18.87 15.725 -8.94938
625 1 1.57123 20.4422 17.2976 -8.94898
626 1 3.14173 18.8717 15.7267 -8.94753
627 1 4.71591 20.4429 17.2983 -8.95004
628 1 6.2872 18.8738 15.7272 -8.9516
629 1 7.86178 20.4428 17.2981 -8.94944
630 1 9.43446 18.873 15.7265 -8.94998
631 1 11.0073 20.4428 17.2979 -8.94945
632 1 12.5803 18.8728 15.7257 -8.95188
633 1 14.1526 20.4429 17.2975 -8.95052
634 1 15.7262 18.8718 15.7254 -8.94914
635 1 17.2975 20.4423 17.2972 -8.94949
636 1 18.8697 18.87 15.7245 -8.94967
637 1 20.4414 20.4419 17.297 -8.94949
638 1 1.57224 11.007 20.4419 -8.94954
639 1 4.71669 11.007 20.442 -8.9497
640 1 7.86203 11.007 20.4407 -8.94705
641 1 11.0066 11.007 20.4423 -8.94657
642 1 14.1551 11.007 20.4454 -8.95006
643 1 17.2992 11.007 20.4429 -8.94924
644 1 20.4425 11.007 20.442 -8.94945
645 1 0.000374224 12.5795 18.8698 -8.94948
646 1 1.57225 14.1518 20.4419 -8.94935
647 1 3.14417 12.5792 18.87 -8.94895
648 1 4.71684 14.1513 20.442 -8.94971
649 1 6.28974 12.5781 18.869 -8.94927
650 1 7.86163 14.1518 20.4431 -8.95265
651 1 9.43499 12.5791 18.8691 -8.9482
652 1 11.0063 14.153 20.4439 -8.95114
653 1 12.5828 12.5809 18.8789 -8.95995
654 1 14.1542 14.1541 20.4452 -8.95221
655 1 15.7295 12.5812 18.874 -8.94744
656 1 17.2991 14.1531 20.4429 -8.94892
657 1 18.8715 12.5799 18.8705 -8.94921
658 1 20.4424 14.1522 20.442 -8.94938
659 1 22.0141 15.7245 18.8697 -8.94972
660 1 1.57203 17.2969 20.442 -8.94994
661 1 3.14373 15.7244 18.8703 -8.95047
662 1 4.71583 17.2978 20.4431 -8.95011
663 1 6.28689 15.7265 18.8739 -8.95165
664 1 7.86134 17.298 20.4428 -8.94908
665 1 9.4335 15.7271 18.8728 -8.948
666 1 11.0068 17.2983 20.4428 -8.94928
667 1 12.5806 15.7275 18.8737 -8.94989
668 1 14.1527 17.2986 20.4429 -8.9498
669 1 15.7295 15.7293 18.8742 -8.94522
670 1 17.2988 17.2988 20.4427 -8.94819
671 1 18.8713 15.7257 18.8703 -8.94949
672 1 20.4423 17.2973 20.4419 -8.94948
673 1 22.0135 18.8697 18.8697 -8.94955
674 1 1.57171 20.442 20.442 -8.94901
675 1 3.14298 18.8706 18.871 -8.94814
676 1 4.71671 20.442 20.4421 -8.94953
677 1 6.28872 18.8707 18.8708 -8.94935
678 1 7.86186 20.4421 20.442 -8.9494
679 1 9.43431 18.8708 18.8706 -8.94929
680 1 11.007 20.4421 20.442 -8.94944
681 1 12.5799 18.8709 18.8705 -8.94903
682 1 14.1522 20.4422 20.4419 -8.94942
683 1 15.7259 18.8714 18.8707 -8.94939
684 1 17.2974 20.4422 20.442 -8.94946
685 1 18.87 18.8701 18.8697 -8.94936
686 1 20.4417 20.4419 20.4417 -8.94925
687 3 10.0813 11.007 12.6164 2.3602
