ITEM: TIMESTEP
103
ITEM: NUMBER OF ATOMS
688
ITEM: BOX BOUNDS pp pp pp
0.0000000000000000e+00 2.2013900999999997e+01
0.0000000000000000e+00 2.2013900999999997e+01
0.0000000000000000e+00 2.2013900999999997e+01
ITEM: ATOMS id type x y z c_pot
1 1 22.0136 1.72141e-15 2.90636e-17 -8.94888
2 1 1.57155 1.57187 1.57179 -8.94895
3 1 3.14419 1.55251e-15 1.64036e-16 -8.94955
4 1 4.71651 1.57181 1.57168 -8.94949
5 1 6.28926 1.4663e-15 6.54128e-16 -8.9494
6 1 7.86175 1.57173 1.57173 -8.94936
7 1 9.43442 1.59467e-15 4.40761e-16 -8.94944
8 1 11.007 1.57167 1.57177 -8.9494
9 1 12.5796 1.57692e-15 5.21917e-16 -8.94943
10 1 14.1523 1.5716 1.57185 -8.94939
11 1 15.7247 1.28302e-15 4.36502e-17 -8.94953
12 1 17.2976 1.57151 1.57186 -8.94941
13 1 18.8697 1.53874e-15 1.25288e-15 -8.94911
14 1 20.4417 1.57196 1.57213 -8.94919
15 1 22.0139 3.14437 1.51314e-15 -8.94955
16 1 1.57199 4.71691 1.5718 -8.94996
17 1 3.14377 3.14396 1.60478e-15 -8.94949
18 1 4.71564 4.716 1.57067 -8.95017
19 1 6.28897 3.14389 2.25773e-15 -8.94933
20 1 7.86119 4.71572 1.57098 -8.9491
21 1 9.43423 3.14366 1.27746e-15 -8.9494
22 1 11.0069 4.71537 1.571 -8.94928
23 1 12.5796 3.14353 1.62415e-15 -8.94929
24 1 14.153 4.71498 1.57082 -8.94984
25 1 15.7253 3.14333 1.2927e-15 -8.94968
26 1 17.2991 4.71482 1.57106 -8.94819
27 1 18.8703 3.14364 1.71211e-15 -8.94873
28 1 20.4425 4.71644 1.57193 -8.94944
29 1 22.0143 6.28937 1.68326e-15 -8.94941
30 1 1.57236 7.86207 1.57198 -8.94933
31 1 3.14444 6.28981 1.6399e-15 -8.94993
32 1 4.71688 7.8627 1.57191 -8.94973
33 1 6.28875 6.28925 -6.87069e-15 -8.95157
34 1 7.86164 7.86208 1.57084 -8.95266
35 1 9.43371 6.28829 -6.60023e-15 -8.94975
36 1 11.0064 7.86079 1.56991 -8.95121
37 1 12.5796 6.28798 1.00621e-14 -8.95001
38 1 14.1545 7.85964 1.56855 -8.95216
39 1 15.7267 6.28723 1.64252e-14 -8.95018
40 1 17.2996 7.86053 1.57088 -8.94887
41 1 18.8708 6.28855 2.52018e-15 -8.94925
42 1 20.4427 7.86158 1.57186 -8.94933
43 1 22.0144 9.4344 1.13185e-15 -8.94948
44 1 3.1445 9.43461 1.91376e-15 -8.94949
45 1 6.28945 9.43508 -1.02886e-14 -8.94911
46 1 9.43415 9.43484 -6.52925e-15 -8.94827
47 1 12.58 9.43419 1.39979e-14 -8.9533
48 1 15.7272 9.43349 1.78303e-14 -8.94911
49 1 18.871 9.43407 3.18333e-15 -8.9493
50 1 -0.00055668 1.19744e-15 3.14427 -8.94914
51 1 1.57094 1.57163 4.716 -8.9489
52 1 3.14368 -6.762e-16 3.14363 -8.94951
53 1 4.71558 1.57081 4.71527 -8.95003
54 1 6.2891 3.32698e-15 3.14368 -8.94939
55 1 7.86162 1.57092 4.71558 -8.94942
56 1 9.4345 1.22583e-15 3.14376 -8.94945
57 1 11.0073 1.57097 4.71574 -8.94943
58 1 12.5798 2.2716e-15 3.1439 -8.9494
59 1 14.1528 1.57081 4.71615 -8.95053
60 1 15.7251 7.16444e-16 3.14408 -8.94998
61 1 17.2977 1.57141 4.71656 -8.94947
62 1 18.8696 9.18791e-16 3.14439 -8.94939
63 1 20.4414 1.57191 4.71677 -8.94945
64 1 22.0134 3.14412 3.14401 -8.94954
65 1 1.57029 4.71601 4.71547 -8.95003
66 1 3.14269 3.14308 3.14261 -8.9481
67 1 4.71141 4.71203 4.71097 -8.94447
68 1 6.28847 3.14302 3.14282 -8.94932
69 1 7.86006 4.71271 4.71298 -8.94796
70 1 9.43423 3.1429 3.14305 -8.94927
71 1 11.0075 4.71279 4.71315 -8.94746
72 1 12.58 3.14272 3.14317 -8.94901
73 1 14.1561 4.71082 4.71234 -8.94943
74 1 15.7262 3.14216 3.143 -8.94934
75 1 17.2997 4.71436 4.71534 -8.94893
76 1 18.8702 3.14358 3.1441 -8.94934
77 1 20.442 4.71625 4.71647 -8.9499
78 1 22.0142 6.28928 3.1441 -8.94971
79 1 1.5718 7.86223 4.71631 -8.94963
80 1 3.14364 6.28952 3.14341 -8.95053
81 1 4.71526 7.86273 4.71549 -8.95156
82 1 6.28672 6.28727 3.13984 -8.95176
83 1 7.85764 7.85718 4.70766 -8.95848
84 1 9.43348 6.28656 3.14085 -8.94806
85 1 11.0075 7.85671 4.70657 -8.95351
86 1 12.5809 6.28611 3.13982 -8.95001
87 1 14.1662 7.84923 4.70134 -8.93413
88 1 15.7299 6.28428 3.13945 -8.94534
89 1 17.3029 7.85904 4.71365 -8.95
90 1 18.8717 6.28801 3.14337 -8.94945
91 1 20.4432 7.86143 4.71622 -8.94993
92 1 0.000590668 9.43437 3.14399 -8.94946
93 1 3.14429 9.43471 3.14392 -8.94893
94 1 6.28993 9.43591 3.14512 -8.94927
95 1 9.43512 9.43465 3.145 -8.94791
96 1 12.5832 9.43291 3.13487 -8.95973
97 1 15.73 9.43251 3.13951 -8.94748
98 1 18.872 9.43385 3.14317 -8.94919
99 1 22.013 1.4188e-15 6.28909 -8.9494
100 1 1.57055 1.57144 7.86123 -8.94927
101 1 3.1429 1.80762e-16 6.28815 -8.94924
102 1 4.71446 1.56977 7.86019 -8.94973
103 1 6.28869 -3.79866e-14 6.28819 -8.95052
104 1 7.86151 1.56967 7.86091 -8.95127
105 1 9.4347 -8.29033e-14 6.28836 -8.95011
106 1 11.0074 1.57067 7.86124 -8.94971
107 1 12.58 -2.05604e-14 6.28889 -8.95027
108 1 14.153 1.57076 7.86158 -8.95052
109 1 15.7253 1.65664e-15 6.28916 -8.94997
110 1 17.2974 1.57171 7.86201 -8.94955
111 1 18.8693 1.28127e-15 6.28946 -8.94959
112 1 20.4411 1.5719 7.86183 -8.94942
113 1 -0.00125826 3.14377 6.28875 -8.94936
114 1 1.56852 4.71497 7.86034 -8.94936
115 1 3.14123 3.14189 6.28684 -8.94744
116 1 4.70784 4.70854 7.85558 -8.94105
117 1 6.28675 3.13967 6.28634 -8.95158
118 1 7.85753 4.70539 7.85803 -8.95814
119 1 9.43433 3.14058 6.28703 -8.94996
120 1 11.0071 4.71094 7.85883 -8.95137
121 1 12.5805 3.14083 6.28783 -8.95184
122 1 14.1565 4.71063 7.85861 -8.94772
123 1 15.7265 3.14185 6.28824 -8.94908
124 1 17.2988 4.71528 7.86163 -8.94982
125 1 18.8698 3.1437 6.28924 -8.94966
126 1 20.4411 4.71617 7.86167 -8.94983
127 1 22.0129 6.28903 6.28881 -8.95053
128 1 1.56927 7.86196 7.86135 -8.952
129 1 3.13928 6.28735 6.28641 -8.95181
130 1 4.70528 7.85858 7.85868 -8.96061
131 1 6.27373 6.27455 6.27331 -8.93072
132 1 7.8163 7.8194 7.82184 -8.85655
133 1 9.43263 6.27854 6.28146 -8.94658
134 1 11.0254 7.84261 7.82858 -8.8943
135 1 12.5882 6.27598 6.27761 -8.95051
136 1 14.1684 7.84946 7.85015 -8.93714
137 1 15.7316 6.28352 6.28479 -8.94671
138 1 17.3018 7.86025 7.86108 -8.95226
139 1 18.8715 6.28817 6.28879 -8.95031
140 1 20.4422 7.86172 7.86185 -8.95058
141 1 22.0143 9.43454 6.28885 -8.94973
142 1 3.14363 9.43553 6.28872 -8.94896
143 1 6.28887 9.43866 6.29088 -8.95068
144 1 9.42769 9.41599 6.29234 -8.91828
145 1 12.619 9.40458 6.24682 -8.88678
146 1 15.7379 9.43064 6.28178 -8.95408
147 1 18.8734 9.43382 6.28815 -8.95106
148 1 -0.00100017 1.51196e-15 9.43429 -8.9494
149 1 3.14261 6.26896e-16 9.43391 -8.94925
150 1 6.28799 -1.36034e-13 9.43378 -8.95152
151 1 9.43486 -6.49936e-13 9.43396 -8.94907
152 1 12.58 -5.91392e-14 9.43441 -8.95034
153 1 15.7251 7.79493e-16 9.43454 -8.94943
154 1 18.8693 4.95946e-16 9.43446 -8.94947
155 1 22.0124 3.14363 9.43416 -8.94934
156 1 3.14076 3.14152 9.43338 -8.94889
157 1 6.28452 3.13644 9.43244 -8.9515
158 1 9.43436 3.14071 9.4333 -8.94732
159 1 12.5806 3.14137 9.43382 -8.95186
160 1 15.7256 3.1432 9.43454 -8.94933
161 1 18.8694 3.14383 9.43444 -8.94936
162 1 22.0114 6.28857 9.4341 -8.95069
163 1 3.13507 6.28474 9.43218 -8.95034
164 1 6.26403 6.26468 9.42084 -8.91702
165 1 9.42969 6.28218 9.43136 -9.00947
166 1 12.588 6.27694 9.42487 -8.94398
167 1 15.7284 6.28678 9.43413 -8.94909
168 1 18.8702 6.28853 9.43454 -8.94987
169 1 22.0131 9.43486 9.43435 -8.94934
170 1 3.14204 9.43584 9.43419 -8.94995
171 1 6.28395 9.42907 9.43581 -8.96866
172 1 9.3605 9.14985 9.44572 -8.05835
173 1 12.5933 9.40836 9.38614 -8.83652
174 1 15.7279 9.43442 9.43211 -8.95233
175 1 18.8704 9.43452 9.43461 -8.94962
176 1 1.57044 1.57139 11.007 -8.94929
177 1 4.71417 1.56963 11.007 -8.94918
178 1 7.86133 1.56876 11.007 -8.95354
179 1 11.0072 1.57097 11.007 -8.94972
180 1 14.1528 1.57148 11.007 -8.94901
181 1 17.2974 1.57178 11.007 -8.94943
182 1 20.4411 1.57188 11.007 -8.94946
183 1 1.56819 4.71478 11.007 -8.949
184 1 4.70781 4.70854 11.007 -8.94527
185 1 7.85472 4.69888 11.007 -8.96641
186 1 11.0074 4.71165 11.007 -8.95506
187 1 14.1539 4.71496 11.007 -8.94685
188 1 17.2982 4.71563 11.007 -8.94865
189 1 20.4409 4.71607 11.007 -8.9496
190 1 1.56709 7.86151 11.007 -8.95434
191 1 4.69563 7.85424 11.007 -8.96727
192 1 7.77294 7.78464 11.007 -8.73303
193 1 11.0584 7.8368 11.007 -8.82793
194 1 14.1594 7.86225 11.007 -8.96728
195 1 17.2989 7.86149 11.007 -8.95093
196 1 20.4411 7.86175 11.007 -8.95045
197 1 -0.00100017 1.64405e-15 12.5796 -8.9494
198 1 1.57055 1.57144 14.1527 -8.94927
199 1 3.14261 1.55605e-15 12.58 -8.94925
200 1 4.71446 1.56977 14.1537 -8.94973
201 1 6.28799 -6.0254e-14 12.5801 -8.95152
202 1 7.86151 1.56967 14.153 -8.95127
203 1 9.43486 -2.07807e-13 12.5799 -8.94907
204 1 11.0074 1.57067 14.1527 -8.94971
205 1 12.58 -3.18987e-14 12.5795 -8.95034
206 1 14.153 1.57076 14.1523 -8.95052
207 1 15.7251 1.84929e-15 12.5794 -8.94943
208 1 17.2974 1.57171 14.1519 -8.94955
209 1 18.8693 1.15255e-15 12.5794 -8.94947
210 1 20.4411 1.5719 14.1521 -8.94942
211 1 22.0124 3.14363 12.5797 -8.94934
212 1 1.56852 4.71497 14.1536 -8.94936
213 1 3.14076 3.14152 12.5805 -8.94889
214 1 4.70784 4.70854 14.1583 -8.94105
215 1 6.28452 3.13644 12.5815 -8.9515
216 1 7.85753 4.70539 14.1559 -8.95814
217 1 9.43436 3.14071 12.5806 -8.94732
218 1 11.0071 4.71094 14.1551 -8.95137
219 1 12.5806 3.14137 12.5801 -8.95186
220 1 14.1565 4.71063 14.1553 -8.94772
221 1 15.7256 3.1432 12.5794 -8.94933
222 1 17.2988 4.71528 14.1523 -8.94982
223 1 18.8694 3.14383 12.5795 -8.94936
224 1 20.4411 4.71617 14.1522 -8.94983
225 1 22.0114 6.28857 12.5798 -8.95069
226 1 1.56927 7.86196 14.1526 -8.952
227 1 3.13507 6.28474 12.5817 -8.95034
228 1 4.70528 7.85858 14.1552 -8.96061
229 1 6.26403 6.26468 12.5931 -8.91702
230 1 7.8163 7.8194 14.1921 -8.85655
231 1 9.42969 6.28218 12.5825 -9.00947
232 1 11.0254 7.84261 14.1853 -8.8943
233 1 12.588 6.27694 12.589 -8.94398
234 1 14.1684 7.84946 14.1638 -8.93714
235 1 15.7284 6.28678 12.5798 -8.94909
236 1 17.3018 7.86025 14.1528 -8.95226
237 1 18.8702 6.28853 12.5794 -8.94987
238 1 20.4422 7.86172 14.152 -8.95058
239 1 22.0131 9.43486 12.5796 -8.94934
240 1 3.14204 9.43584 12.5797 -8.94995
241 1 6.28395 9.42907 12.5781 -8.96866
242 1 9.3605 9.14985 12.5682 -8.05834
243 1 12.5933 9.40836 12.6278 -8.83652
244 1 15.7279 9.43442 12.5818 -8.95233
245 1 18.8704 9.43452 12.5793 -8.94962
246 1 22.013 1.13461e-15 15.7248 -8.9494
247 1 1.57094 1.57163 17.2979 -8.9489
248 1 3.1429 -7.16226e-16 15.7258 -8.94924
249 1 4.71558 1.57081 17.2986 -8.95003
250 1 6.28869 -4.43679e-15 15.7257 -8.95052
251 1 7.86162 1.57092 17.2983 -8.94942
252 1 9.4347 -1.29957e-14 15.7255 -8.95011
253 1 11.0073 1.57097 17.2982 -8.94943
254 1 12.58 -3.45401e-15 15.725 -8.95027
255 1 14.1528 1.57081 17.2977 -8.95053
256 1 15.7253 -2.20539e-16 15.7247 -8.94997
257 1 17.2977 1.57141 17.2973 -8.94947
258 1 18.8693 1.56464e-15 15.7244 -8.94959
259 1 20.4414 1.57191 17.2971 -8.94945
260 1 -0.00125826 3.14377 15.7252 -8.94936
261 1 1.57029 4.71601 17.2984 -8.95003
262 1 3.14123 3.14189 15.7271 -8.94744
263 1 4.71141 4.71203 17.3029 -8.94447
264 1 6.28675 3.13967 15.7276 -8.95158
265 1 7.86006 4.71271 17.3009 -8.94796
266 1 9.43433 3.14058 15.7269 -8.94996
267 1 11.0075 4.71279 17.3007 -8.94746
268 1 12.5805 3.14083 15.7261 -8.95184
269 1 14.1561 4.71082 17.3016 -8.94943
270 1 15.7265 3.14185 15.7257 -8.94908
271 1 17.2997 4.71436 17.2986 -8.94893
272 1 18.8698 3.1437 15.7247 -8.94966
273 1 20.442 4.71625 17.2974 -8.9499
274 1 22.0129 6.28903 15.7251 -8.95053
275 1 1.5718 7.86223 17.2976 -8.94963
276 1 3.13928 6.28735 15.7275 -8.95181
277 1 4.71526 7.86273 17.2984 -8.95156
278 1 6.27373 6.27455 15.7406 -8.93072
279 1 7.85764 7.85718 17.3062 -8.95848
280 1 9.43263 6.27854 15.7324 -8.94658
281 1 11.0075 7.85671 17.3073 -8.95351
282 1 12.5882 6.27598 15.7363 -8.95051
283 1 14.1662 7.84923 17.3126 -8.93413
284 1 15.7316 6.28352 15.7291 -8.94671
285 1 17.3029 7.85904 17.3002 -8.95
286 1 18.8715 6.28817 15.7251 -8.95031
287 1 20.4432 7.86143 17.2977 -8.94993
288 1 22.0143 9.43454 15.7251 -8.94973
289 1 3.14363 9.43553 15.7252 -8.94896
290 1 6.28887 9.43866 15.723 -8.95068
291 1 9.42769 9.41599 15.7216 -8.91828
292 1 12.619 9.40458 15.7671 -8.88678
293 1 15.7379 9.43064 15.7321 -8.95408
294 1 18.8734 9.43382 15.7257 -8.95106
295 1 -0.00055668 1.76206e-15 18.8696 -8.94914
296 1 1.57155 1.57187 20.4421 -8.94895
297 1 3.14368 1.34962e-15 18.8703 -8.94951
298 1 4.71651 1.57181 20.4422 -8.94949
299 1 6.2891 1.59099e-15 18.8702 -8.94939
300 1 7.86175 1.57173 20.4422 -8.94936
301 1 9.4345 1.58483e-15 18.8701 -8.94945
302 1 11.007 1.57167 20.4421 -8.9494
303 1 12.5798 1.6155e-15 18.87 -8.9494
304 1 14.1523 1.5716 20.442 -8.94939
305 1 15.7251 5.68882e-16 18.8698 -8.94998
306 1 17.2976 1.57151 20.442 -8.94941
307 1 18.8696 1.03666e-15 18.8695 -8.94939
308 1 20.4417 1.57196 20.4418 -8.94919
309 1 22.0134 3.14412 18.8699 -8.94954
310 1 1.57199 4.71691 20.4421 -8.94996
311 1 3.14269 3.14308 18.8713 -8.9481
312 1 4.71564 4.716 20.4432 -8.95017
313 1 6.28847 3.14302 18.8711 -8.94932
314 1 7.86119 4.71572 20.4429 -8.9491
315 1 9.43423 3.1429 18.8709 -8.94927
316 1 11.0069 4.71537 20.4429 -8.94928
317 1 12.58 3.14272 18.8707 -8.94901
318 1 14.153 4.71498 20.4431 -8.94984
319 1 15.7262 3.14216 18.8709 -8.94934
320 1 17.2991 4.71482 20.4428 -8.94819
321 1 18.8702 3.14358 18.8698 -8.94934
322 1 20.4425 4.71644 20.442 -8.94944
323 1 22.0142 6.28928 18.8698 -8.94971
324 1 1.57236 7.86207 20.4419 -8.94933
325 1 3.14364 6.28952 18.8705 -8.95053
326 1 4.71688 7.8627 20.442 -8.94973
327 1 6.28672 6.28727 18.8741 -8.95176
328 1 7.86164 7.86208 20.4431 -8.95266
329 1 9.43348 6.28656 18.8731 -8.94806
330 1 11.0064 7.86079 20.444 -8.95121
331 1 12.5809 6.28611 18.8741 -8.95001
332 1 14.1545 7.85964 20.4454 -8.95216
333 1 15.7299 6.28428 18.8744 -8.94534
334 1 17.2996 7.86053 20.443 -8.94887
335 1 18.8717 6.28801 18.8705 -8.94945
336 1 20.4427 7.86158 20.442 -8.94933
337 1 0.000590668 9.43437 18.8699 -8.94946
338 1 3.14429 9.43471 18.87 -8.94893
339 1 6.28993 9.43591 18.8688 -8.94927
340 1 9.43512 9.43465 18.8689 -8.94791
341 1 12.5832 9.43291 18.879 -8.95973
342 1 15.73 9.43251 18.8744 -8.94748
343 1 18.872 9.43385 18.8707 -8.94919
344 1 1.57239 11.007 1.57195 -8.94952
345 1 4.71683 11.007 1.57201 -8.94968
346 1 7.86219 11.007 1.57346 -8.94685
347 1 11.0068 11.007 1.57162 -8.94677
348 1 14.1555 11.007 1.56838 -8.95008
349 1 17.2997 11.007 1.57084 -8.94921
350 1 20.4428 11.007 1.57182 -8.94941
351 1 22.0144 12.5795 1.27561e-15 -8.94948
352 1 1.57236 14.1518 1.57198 -8.94933
353 1 3.1445 12.5793 1.05342e-15 -8.94949
354 1 4.71688 14.1512 1.57191 -8.94973
355 1 6.28945 12.5788 9.08221e-15 -8.94911
356 1 7.86164 14.1518 1.57084 -8.95266
357 1 9.43415 12.5791 -3.09988e-14 -8.94827
358 1 11.0064 14.1531 1.56991 -8.95121
359 1 12.58 12.5797 3.08289e-14 -8.9533
360 1 14.1545 14.1543 1.56855 -8.95216
361 1 15.7272 12.5804 1.74709e-14 -8.94911
362 1 17.2996 14.1534 1.57088 -8.94887
363 1 18.871 12.5798 2.80133e-15 -8.9493
364 1 20.4427 14.1523 1.57186 -8.94933
365 1 22.0143 15.7245 1.86214e-15 -8.94941
366 1 1.57199 17.297 1.5718 -8.94996
367 1 3.14444 15.7241 2.76354e-16 -8.94993
368 1 4.71564 17.2979 1.57067 -8.95017
369 1 6.28875 15.7247 1.6299e-14 -8.95157
370 1 7.86119 17.2982 1.57098 -8.9491
371 1 9.43371 15.7256 2.71611e-14 -8.94975
372 1 11.0069 17.2985 1.571 -8.94928
373 1 12.5796 15.7259 1.53111e-14 -8.95001
374 1 14.153 17.2989 1.57082 -8.94984
375 1 15.7267 15.7267 1.76119e-14 -8.95018
376 1 17.2991 17.2991 1.57106 -8.94819
377 1 18.8708 15.7254 2.26434e-15 -8.94925
378 1 20.4425 17.2975 1.57193 -8.94944
379 1 22.0139 18.8695 1.18304e-15 -8.94955
380 1 1.57155 20.442 1.57179 -8.94895
381 1 3.14377 18.8699 3.10448e-15 -8.94949
382 1 4.71651 20.4421 1.57168 -8.94949
383 1 6.28897 18.87 2.40908e-15 -8.94933
384 1 7.86175 20.4422 1.57173 -8.94936
385 1 9.43423 18.8702 2.03093e-15 -8.9494
386 1 11.007 20.4422 1.57177 -8.9494
387 1 12.5796 18.8704 1.75288e-15 -8.94929
388 1 14.1523 20.4423 1.57185 -8.94939
389 1 15.7253 18.8706 2.21596e-15 -8.94968
390 1 17.2976 20.4424 1.57186 -8.94941
391 1 18.8703 18.8703 2.24747e-15 -8.94873
392 1 20.4417 20.4419 1.57213 -8.94919
393 1 1.5721 11.007 4.71608 -8.94942
394 1 4.71649 11.007 4.71599 -8.94616
395 1 7.86701 11.007 4.72469 -8.94343
396 1 11.0124 11.007 4.71771 -8.99121
397 1 14.1651 11.007 4.70324 -8.942
398 1 17.3032 11.007 4.71324 -8.949
399 1 20.4435 11.007 4.71601 -8.94982
400 1 0.000590668 12.5795 3.14399 -8.94946
401 1 1.5718 14.1517 4.71631 -8.94963
402 1 3.14429 12.5792 3.14392 -8.94893
403 1 4.71526 14.1512 4.71549 -8.95156
404 1 6.28993 12.578 3.14512 -8.94927
405 1 7.85764 14.1567 4.70766 -8.95848
406 1 9.43512 12.5792 3.145 -8.94791
407 1 11.0075 14.1572 4.70657 -8.95351
408 1 12.5832 12.581 3.13487 -8.95973
409 1 14.1662 14.1647 4.70134 -8.93413
410 1 15.73 12.5814 3.13951 -8.94748
411 1 17.3029 14.1549 4.71365 -8.95
412 1 18.872 12.58 3.14317 -8.94919
413 1 20.4432 14.1525 4.71622 -8.94993
414 1 22.0142 15.7246 3.1441 -8.94971
415 1 1.57029 17.2979 4.71547 -8.95003
416 1 3.14364 15.7244 3.14341 -8.95053
417 1 4.71141 17.3019 4.71097 -8.94447
418 1 6.28672 15.7266 3.13984 -8.95176
419 1 7.86006 17.3012 4.71298 -8.94796
420 1 9.43348 15.7273 3.14085 -8.94806
421 1 11.0075 17.3011 4.71315 -8.94746
422 1 12.5809 15.7278 3.13982 -8.95001
423 1 14.1561 17.3031 4.71234 -8.94943
424 1 15.7299 15.7296 3.13945 -8.94534
425 1 17.2997 17.2995 4.71534 -8.94893
426 1 18.8717 15.7259 3.14337 -8.94945
427 1 20.442 17.2976 4.71647 -8.9499
428 1 22.0134 18.8698 3.14401 -8.94954
429 1 1.57094 20.4423 4.716 -8.9489
430 1 3.14269 18.8708 3.14261 -8.9481
431 1 4.71558 20.4431 4.71527 -8.95003
432 1 6.28847 18.8709 3.14282 -8.94932
433 1 7.86162 20.443 4.71558 -8.94942
434 1 9.43423 18.871 3.14305 -8.94927
435 1 11.0073 20.4429 4.71574 -8.94943
436 1 12.58 18.8712 3.14317 -8.94901
437 1 14.1528 20.4431 4.71615 -8.95053
438 1 15.7262 18.8717 3.143 -8.94934
439 1 17.2977 20.4425 4.71656 -8.94947
440 1 18.8702 18.8703 3.1441 -8.94934
441 1 20.4414 20.442 4.71677 -8.94945
442 1 1.57204 11.007 7.8612 -8.94725
443 1 4.72071 11.007 7.86283 -8.93745
444 1 7.89064 11.007 7.88598 -8.83743
445 1 11.1006 11.007 7.68174 -8.23695
446 1 14.1722 11.007 7.84511 -8.96521
447 1 17.3033 11.007 7.85994 -8.95197
448 1 20.443 11.007 7.86161 -8.94996
449 1 22.0143 12.5794 6.28885 -8.94973
450 1 1.56927 14.1519 7.86135 -8.952
451 1 3.14363 12.5784 6.28872 -8.94896
452 1 4.70528 14.1553 7.85868 -8.96061
453 1 6.28887 12.5752 6.29088 -8.95068
454 1 7.8163 14.1945 7.82184 -8.85655
455 1 9.42769 12.5979 6.29234 -8.91828
456 1 11.0254 14.1713 7.82858 -8.8943
457 1 12.619 12.6093 6.24682 -8.88678
458 1 14.1684 14.1644 7.85015 -8.93714
459 1 15.7379 12.5833 6.28178 -8.95408
460 1 17.3018 14.1537 7.86108 -8.95226
461 1 18.8734 12.5801 6.28815 -8.95106
462 1 20.4422 14.1522 7.86185 -8.95058
463 1 22.0129 15.7249 6.28881 -8.95053
464 1 1.56852 17.2989 7.86034 -8.94936
465 1 3.13928 15.7265 6.28641 -8.95181
466 1 4.70784 17.3054 7.85558 -8.94105
467 1 6.27373 15.7393 6.27331 -8.93072
468 1 7.85753 17.3085 7.85803 -8.95814
469 1 9.43263 15.7354 6.28146 -8.94658
470 1 11.0071 17.303 7.85883 -8.95137
471 1 12.5882 15.7379 6.27761 -8.95051
472 1 14.1565 17.3033 7.85861 -8.94772
473 1 15.7316 15.7304 6.28479 -8.94671
474 1 17.2988 17.2986 7.86163 -8.94982
475 1 18.8715 15.7257 6.28879 -8.95031
476 1 20.4411 17.2977 7.86167 -8.94983
477 1 -0.00125826 18.8701 6.28875 -8.94936
478 1 1.57055 20.4425 7.86123 -8.94927
479 1 3.14123 18.872 6.28684 -8.94744
480 1 4.71446 20.4441 7.86019 -8.94973
481 1 6.28675 18.8742 6.28634 -8.95158
482 1 7.86151 20.4442 7.86091 -8.95127
483 1 9.43433 18.8733 6.28703 -8.94996
484 1 11.0074 20.4432 7.86124 -8.94971
485 1 12.5805 18.8731 6.28783 -8.95184
486 1 14.153 20.4431 7.86158 -8.95052
487 1 15.7265 18.8721 6.28824 -8.94908
488 1 17.2974 20.4422 7.86201 -8.94955
489 1 18.8698 18.8702 6.28924 -8.94966
490 1 20.4411 20.442 7.86183 -8.94942
491 1 22.0131 12.579 9.43435 -8.94934
492 1 3.14204 12.5781 9.43419 -8.94995
493 1 6.28395 12.5848 9.43581 -8.96866
494 1 9.3605 12.8641 9.44572 -8.05834
495 1 12.5933 12.6055 9.38614 -8.83652
496 1 15.7279 12.5795 9.43211 -8.95233
497 1 18.8704 12.5794 9.43461 -8.94962
498 1 22.0114 15.7253 9.4341 -8.95069
499 1 3.13507 15.7292 9.43218 -8.95034
500 1 6.26403 15.7492 9.42084 -8.91702
501 1 9.42969 15.7317 9.43136 -9.00947
502 1 12.588 15.737 9.42487 -8.94398
503 1 15.7284 15.7271 9.43413 -8.94909
504 1 18.8702 15.7254 9.43454 -8.94987
505 1 22.0124 18.8703 9.43416 -8.94934
506 1 3.14076 18.8724 9.43338 -8.94889
507 1 6.28452 18.8775 9.43244 -8.9515
508 1 9.43436 18.8732 9.4333 -8.94732
509 1 12.5806 18.8725 9.43382 -8.95186
510 1 15.7256 18.8707 9.43454 -8.94933
511 1 18.8694 18.8701 9.43444 -8.94936
688 3 10.0732 11.007 9.39824 2.36443
512 1 1.57221 11.007 11.007 -8.9449
513 1 4.72543 11.007 11.007 -8.93265
514 1 7.90545 11.007 11.007 -8.71712
515 1 11.2626 11.007 11.007 -7.41647
516 1 14.1377 11.007 11.007 -9.0133
517 1 17.2952 11.007 11.007 -8.94453
518 1 20.4414 11.007 11.007 -8.94761
519 1 1.56709 14.1524 11.007 -8.95434
520 1 4.69563 14.1597 11.007 -8.96727
521 1 7.77294 14.2293 11.007 -8.73304
522 1 11.0584 14.1771 11.007 -8.82793
523 1 14.1594 14.1516 11.007 -8.96728
524 1 17.2989 14.1524 11.007 -8.95093
525 1 20.4411 14.1522 11.007 -8.95045
526 1 1.56819 17.2991 11.007 -8.949
527 1 4.70781 17.3054 11.007 -8.94527
528 1 7.85472 17.315 11.007 -8.96641
529 1 11.0074 17.3022 11.007 -8.95506
530 1 14.1539 17.2989 11.007 -8.94685
531 1 17.2982 17.2983 11.007 -8.94865
532 1 20.4409 17.2978 11.007 -8.9496
533 1 1.57044 20.4425 11.007 -8.94929
534 1 4.71417 20.4443 11.007 -8.94918
535 1 7.86133 20.4451 11.007 -8.95354
536 1 11.0072 20.4429 11.007 -8.94972
537 1 14.1528 20.4424 11.007 -8.94901
538 1 17.2974 20.4421 11.007 -8.94943
539 1 20.4411 20.442 11.007 -8.94946
540 1 1.57204 11.007 14.1527 -8.94725
541 1 4.72071 11.007 14.1511 -8.93745
542 1 7.89064 11.007 14.1279 -8.83743
543 1 11.1006 11.007 14.3322 -8.23695
544 1 14.1722 11.007 14.1688 -8.96521
545 1 17.3033 11.007 14.154 -8.95197
546 1 20.443 11.007 14.1523 -8.94996
547 1 22.0131 12.579 12.5796 -8.94934
548 1 1.56927 14.1519 14.1526 -8.952
549 1 3.14204 12.5781 12.5797 -8.94995
550 1 4.70528 14.1553 14.1552 -8.96061
551 1 6.28395 12.5848 12.5781 -8.96866
552 1 7.8163 14.1945 14.1921 -8.85655
553 1 9.3605 12.8641 12.5682 -8.05834
554 1 11.0254 14.1713 14.1853 -8.8943
555 1 12.5933 12.6055 12.6278 -8.83652
556 1 14.1684 14.1644 14.1638 -8.93714
557 1 15.7279 12.5795 12.5818 -8.95233
558 1 17.3018 14.1537 14.1528 -8.95226
559 1 18.8704 12.5794 12.5793 -8.94962
560 1 20.4422 14.1522 14.152 -8.95058
561 1 22.0114 15.7253 12.5798 -8.95069
562 1 1.56852 17.2989 14.1536 -8.94936
563 1 3.13507 15.7292 12.5817 -8.95034
564 1 4.70784 17.3054 14.1583 -8.94105
565 1 6.26403 15.7492 12.5931 -8.91702
566 1 7.85753 17.3085 14.1559 -8.95814
567 1 9.42969 15.7317 12.5825 -9.00947
568 1 11.0071 17.303 14.1551 -8.95137
569 1 12.588 15.737 12.589 -8.94398
570 1 14.1565 17.3033 14.1553 -8.94772
571 1 15.7284 15.7271 12.5798 -8.94909
572 1 17.2988 17.2986 14.1523 -8.94982
573 1 18.8702 15.7254 12.5794 -8.94987
574 1 20.4411 17.2977 14.1522 -8.94983
575 1 22.0124 18.8703 12.5797 -8.94934
576 1 1.57055 20.4425 14.1527 -8.94927
577 1 3.14076 18.8724 12.5805 -8.94889
578 1 4.71446 20.4441 14.1537 -8.94973
579 1 6.28452 18.8775 12.5815 -8.9515
580 1 7.86151 20.4442 14.153 -8.95127
581 1 9.43436 18.8732 12.5806 -8.94732
582 1 11.0074 20.4432 14.1527 -8.94971
583 1 12.5806 18.8725 12.5801 -8.95186
584 1 14.153 20.4431 14.1523 -8.95052
585 1 15.7256 18.8707 12.5794 -8.94933
586 1 17.2974 20.4422 14.1519 -8.94955
587 1 18.8694 18.8701 12.5795 -8.94936
588 1 20.4411 20.442 14.1521 -8.94942
589 1 1.5721 11.007 17.2978 -8.94942
590 1 4.71649 11.007 17.2979 -8.94616
591 1 7.86701 11.007 17.2892 -8.94343
592 1 11.0124 11.007 17.2962 -8.99121
593 1 14.1651 11.007 17.3107 -8.942
594 1 17.3032 11.007 17.3007 -8.949
595 1 20.4435 11.007 17.2979 -8.94982
596 1 22.0143 12.5794 15.7251 -8.94973
597 1 1.5718 14.1517 17.2976 -8.94963
598 1 3.14363 12.5784 15.7252 -8.94896
599 1 4.71526 14.1512 17.2984 -8.95156
600 1 6.28887 12.5752 15.723 -8.95068
601 1 7.85764 14.1567 17.3062 -8.95848
602 1 9.42769 12.5979 15.7216 -8.91828
603 1 11.0075 14.1572 17.3073 -8.95351
604 1 12.619 12.6093 15.7671 -8.88678
605 1 14.1662 14.1647 17.3126 -8.93413
606 1 15.7379 12.5833 15.7321 -8.95408
607 1 17.3029 14.1549 17.3002 -8.95
608 1 18.8734 12.5801 15.7257 -8.95106
609 1 20.4432 14.1525 17.2977 -8.94993
610 1 22.0129 15.7249 15.7251 -8.95053
611 1 1.57029 17.2979 17.2984 -8.95003
612 1 3.13928 15.7265 15.7275 -8.95181
613 1 4.71141 17.3019 17.3029 -8.94447
614 1 6.27373 15.7393 15.7406 -8.93072
615 1 7.86006 17.3012 17.3009 -8.94796
616 1 9.43263 15.7354 15.7324 -8.94658
617 1 11.0075 17.3011 17.3007 -8.94746
618 1 12.5882 15.7379 15.7363 -8.95051
619 1 14.1561 17.3031 17.3016 -8.94943
620 1 15.7316 15.7304 15.7291 -8.94671
621 1 17.2997 17.2995 17.2986 -8.94893
622 1 18.8715 15.7257 15.7251 -8.95031
623 1 20.442 17.2976 17.2974 -8.9499
624 1 -0.00125826 18.8701 15.7252 -8.94936
625 1 1.57094 20.4423 17.2979 -8.9489
626 1 3.14123 18.872 15.7271 -8.94744
627 1 4.71558 20.4431 17.2986 -8.95003
628 1 6.28675 18.8742 15.7276 -8.95158
629 1 7.86162 20.443 17.2983 -8.94942
630 1 9.43433 18.8733 15.7269 -8.94996
631 1 11.0073 20.4429 17.2982 -8.94943
632 1 12.5805 18.8731 15.7261 -8.95184
633 1 14.1528 20.4431 17.2977 -8.95053
634 1 15.7265 18.8721 15.7257 -8.94908
635 1 17.2977 20.4425 17.2973 -8.94947
636 1 18.8698 18.8702 15.7247 -8.94966
637 1 20.4414 20.442 17.2971 -8.94945
638 1 1.57239 11.007 20.442 -8.94952
639 1 4.71683 11.007 20.4419 -8.94968
640 1 7.86219 11.007 20.4404 -8.94685
641 1 11.0068 11.007 20.4423 -8.94677
642 1 14.1555 11.007 20.4455 -8.95008
643 1 17.2997 11.007 20.4431 -8.94921
644 1 20.4428 11.007 20.4421 -8.94941
645 1 0.000590668 12.5795 18.8699 -8.94946
646 1 1.57236 14.1518 20.4419 -8.94933
647 1 3.14429 12.5792 18.87 -8.94893
648 1 4.71688 14.1512 20.442 -8.94973
649 1 6.28993 12.578 18.8688 -8.94927
650 1 7.86164 14.1518 20.4431 -8.95266
651 1 9.43512 12.5792 18.8689 -8.94791
652 1 11.0064 14.1531 20.444 -8.95121
653 1 12.5832 12.581 18.879 -8.95973
654 1 14.1545 14.1543 20.4454 -8.95216
655 1 15.73 12.5814 18.8744 -8.94748
656 1 17.2996 14.1534 20.443 -8.94887
657 1 18.872 12.58 18.8707 -8.94919
658 1 20.4427 14.1523 20.442 -8.94933
659 1 22.0142 15.7246 18.8698 -8.94971
660 1 1.57199 17.297 20.4421 -8.94996
661 1 3.14364 15.7244 18.8705 -8.95053
662 1 4.71564 17.2979 20.4432 -8.95017
663 1 6.28672 15.7266 18.8741 -8.95176
664 1 7.86119 17.2982 20.4429 -8.9491
665 1 9.43348 15.7273 18.8731 -8.94806
666 1 11.0069 17.2985 20.4429 -8.94928
667 1 12.5809 15.7278 18.8741 -8.95001
668 1 14.153 17.2989 20.4431 -8.94984
669 1 15.7299 15.7296 18.8744 -8.94534
670 1 17.2991 17.2991 20.4428 -8.94819
671 1 18.8717 15.7259 18.8705 -8.94945
672 1 20.4425 17.2975 20.442 -8.94944
673 1 22.0134 18.8698 18.8699 -8.94954
674 1 1.57155 20.442 20.4421 -8.94895
675 1 3.14269 18.8708 18.8713 -8.9481
676 1 4.71651 20.4421 20.4422 -8.94949
677 1 6.28847 18.8709 18.8711 -8.94932
678 1 7.86175 20.4422 20.4422 -8.94936
679 1 9.43423 18.871 18.8709 -8.94927
680 1 11.007 20.4422 20.4421 -8.9494
681 1 12.58 18.8712 18.8707 -8.94901
682 1 14.1523 20.4423 20.442 -8.94939
683 1 15.7262 18.8717 18.8709 -8.94934
684 1 17.2976 20.4424 20.442 -8.94941
685 1 18.8702 18.8703 18.8698 -8.94934
686 1 20.4417 20.4419 20.4418 -8.94919
687 3 10.0732 11.007 12.6157 2.36443
