ITEM: TIMESTEP
93
ITEM: NUMBER OF ATOMS
688
ITEM: BOX BOUNDS pp pp pp
0.0000000000000000e+00 2.2013900999999997e+01
0.0000000000000000e+00 2.2013900999999997e+01
0.0000000000000000e+00 2.2013900999999997e+01
ITEM: ATOMS id type x y z c_pot
1 1 22.0136 1.7313e-15 5.96351e-16 -8.94895
2 1 1.57166 1.57193 1.57188 -8.94899
3 1 3.14432 1.8244e-15 2.0768e-16 -8.94959
4 1 4.71665 1.57187 1.57179 -8.94952
5 1 6.28936 1.82949e-15 1.91765e-16 -8.94943
6 1 7.86183 1.5718 1.57182 -8.94939
7 1 9.43445 1.89377e-15 -2.41209e-16 -8.94947
8 1 11.007 1.57174 1.57184 -8.94943
9 1 12.5796 1.58287e-15 -4.54386e-17 -8.94946
10 1 14.1522 1.57169 1.57193 -8.94941
11 1 15.7246 1.43935e-15 -2.45071e-16 -8.94954
12 1 17.2975 1.57161 1.57192 -8.94944
13 1 18.8696 1.12596e-15 1.02951e-15 -8.94917
14 1 20.4417 1.57202 1.57218 -8.94923
15 1 22.0139 3.14444 1.53576e-15 -8.94957
16 1 1.57201 4.71696 1.57188 -8.94995
17 1 3.14389 3.14403 1.68428e-15 -8.94949
18 1 4.71577 4.71605 1.57077 -8.95013
19 1 6.28909 3.14397 1.82088e-15 -8.94933
20 1 7.86129 4.71582 1.57108 -8.94908
21 1 9.43428 3.14376 -1.40533e-16 -8.94941
22 1 11.0068 4.71552 1.5711 -8.94928
23 1 12.5796 3.14367 9.15004e-16 -8.94931
24 1 14.1528 4.71519 1.57096 -8.94981
25 1 15.7251 3.14352 -1.14067e-16 -8.94969
26 1 17.2989 4.71502 1.57115 -8.94819
27 1 18.8702 3.14378 6.30457e-17 -8.94875
28 1 20.4423 4.71656 1.57199 -8.94947
29 1 22.0142 6.28942 1.86313e-15 -8.94943
30 1 1.57228 7.86206 1.57201 -8.94934
31 1 3.14445 6.28979 1.87822e-15 -8.9499
32 1 4.71685 7.86264 1.57191 -8.94971
33 1 6.2888 6.28924 1.84977e-15 -8.95153
34 1 7.86163 7.86209 1.57083 -8.95266
35 1 9.43374 6.28835 2.27094e-15 -8.94971
36 1 11.0063 7.86084 1.56996 -8.95117
37 1 12.5795 6.28812 1.94418e-15 -8.94995
38 1 14.1543 7.85977 1.56866 -8.9522
39 1 15.7264 6.28744 2.26674e-15 -8.95021
40 1 17.2992 7.86071 1.57099 -8.9489
41 1 18.8706 6.28871 1.68703e-15 -8.94929
42 1 20.4425 7.86166 1.57191 -8.94936
43 1 22.0143 9.43442 1.59627e-15 -8.9495
44 1 3.14442 9.43459 1.83713e-15 -8.9495
45 1 6.28937 9.43503 1.66576e-15 -8.94913
46 1 9.4341 9.43482 -1.10253e-15 -8.94832
47 1 12.5798 9.43423 8.62802e-15 -8.95332
48 1 15.7269 9.43359 3.60695e-15 -8.9491
49 1 18.8707 9.43415 1.41232e-15 -8.94933
50 1 -0.000472446 1.32119e-15 3.14438 -8.94919
51 1 1.57115 1.57171 4.71618 -8.94895
52 1 3.14386 1.56379e-15 3.1438 -8.94954
53 1 4.71581 1.57093 4.71551 -8.95004
54 1 6.28923 1.65357e-15 3.14385 -8.94941
55 1 7.86174 1.57103 4.71577 -8.94943
56 1 9.43452 1.64649e-15 3.14388 -8.94946
57 1 11.0073 1.57107 4.7159 -8.94945
58 1 12.5797 1.73083e-15 3.14401 -8.94941
59 1 14.1527 1.57093 4.7163 -8.95053
60 1 15.7249 1.3131e-15 3.14418 -8.94998
61 1 17.2976 1.57151 4.71666 -8.94948
62 1 18.8695 6.43805e-16 3.14447 -8.94943
63 1 20.4414 1.57197 4.71687 -8.94948
64 1 22.0135 3.14421 3.14413 -8.94955
65 1 1.57045 4.71611 4.71564 -8.95001
66 1 3.14289 3.1432 3.14281 -8.94813
67 1 4.71173 4.71226 4.71126 -8.94452
68 1 6.28864 3.14316 3.14302 -8.94934
69 1 7.86025 4.71297 4.71324 -8.948
70 1 9.43429 3.14304 3.14321 -8.94928
71 1 11.0074 4.71303 4.71343 -8.94749
72 1 12.5799 3.1429 3.14334 -8.94902
73 1 14.1558 4.71109 4.71268 -8.94953
74 1 15.726 3.14237 3.14317 -8.94937
75 1 17.2995 4.71456 4.71551 -8.94889
76 1 18.8701 3.14372 3.1442 -8.94935
77 1 20.4419 4.71636 4.71657 -8.94988
78 1 22.0141 6.28933 3.14418 -8.94972
79 1 1.57176 7.86222 4.71637 -8.94963
80 1 3.14369 6.28953 3.14351 -8.95049
81 1 4.71525 7.86274 4.71547 -8.95153
82 1 6.28684 6.28735 3.13997 -8.95168
83 1 7.85757 7.85732 4.70763 -8.95832
84 1 9.43349 6.28672 3.14099 -8.94802
85 1 11.0073 7.85687 4.70674 -8.95335
86 1 12.5807 6.28629 3.14009 -8.94993
87 1 14.166 7.8492 4.70149 -8.9338
88 1 15.7296 6.28446 3.13963 -8.94525
89 1 17.3026 7.85918 4.71387 -8.95004
90 1 18.8714 6.28817 3.1435 -8.94948
91 1 20.4431 7.86149 4.71631 -8.94994
92 1 0.000432999 9.43438 3.14406 -8.94948
93 1 3.14419 9.43468 3.1439 -8.94894
94 1 6.28979 9.43587 3.14494 -8.94927
95 1 9.43503 9.43473 3.14486 -8.94812
96 1 12.583 9.43296 3.13496 -8.95989
97 1 15.7296 9.4326 3.13974 -8.94745
98 1 18.8717 9.43393 3.14332 -8.9492
99 1 22.0132 1.61064e-15 6.28921 -8.94943
100 1 1.57084 1.57155 7.86137 -8.94931
101 1 3.14318 1.06588e-15 6.28836 -8.94928
102 1 4.7148 1.56995 7.86039 -8.94974
103 1 6.28889 1.25341e-15 6.28839 -8.95051
104 1 7.86168 1.56983 7.86107 -8.95123
105 1 9.43474 1.83994e-15 6.28851 -8.9501
106 1 11.0074 1.57079 7.86136 -8.94966
107 1 12.5799 1.42082e-15 6.289 -8.95025
108 1 14.1529 1.57086 7.86168 -8.95052
109 1 15.7251 8.18704e-16 6.28924 -8.94996
110 1 17.2973 1.57177 7.86206 -8.94956
111 1 18.8693 1.24754e-15 6.28951 -8.9496
112 1 20.4412 1.57196 7.86189 -8.94945
113 1 -0.00110383 3.14388 6.28888 -8.94937
114 1 1.56884 4.71515 7.86049 -8.94935
115 1 3.14158 3.1421 6.2871 -8.9475
116 1 4.70837 4.70896 7.85587 -8.94119
117 1 6.28707 3.13996 6.28662 -8.9516
118 1 7.85788 4.70593 7.85832 -8.95819
119 1 9.43442 3.14082 6.28726 -8.94997
120 1 11.0069 4.71139 7.85914 -8.95132
121 1 12.5803 3.14105 6.28807 -8.95187
122 1 14.1562 4.71087 7.85893 -8.94791
123 1 15.7263 3.14204 6.28842 -8.94912
124 1 17.2986 4.7154 7.86175 -8.94981
125 1 18.8697 3.14383 6.28933 -8.94966
126 1 20.4412 4.71626 7.86174 -8.9498
127 1 22.013 6.28908 6.2889 -8.9505
128 1 1.56935 7.86198 7.86137 -8.95196
129 1 3.13953 6.28749 6.28657 -8.95176
130 1 4.70542 7.85877 7.85869 -8.96047
131 1 6.27411 6.27497 6.27362 -8.93087
132 1 7.81653 7.8202 7.82207 -8.85698
133 1 9.43266 6.27899 6.28176 -8.94672
134 1 11.0249 7.84353 7.82897 -8.89481
135 1 12.5878 6.27628 6.27814 -8.95085
136 1 14.1683 7.84936 7.85033 -8.93649
137 1 15.7313 6.28365 6.28505 -8.94656
138 1 17.3018 7.86025 7.86122 -8.95223
139 1 18.8713 6.28826 6.2889 -8.95027
140 1 20.4421 7.86172 7.86189 -8.95056
141 1 22.0142 9.43453 6.28889 -8.94974
142 1 3.14348 9.43552 6.28865 -8.94899
143 1 6.28853 9.43866 6.29055 -8.9507
144 1 9.42718 9.41614 6.29185 -8.91758
145 1 12.6194 9.40406 6.24651 -8.88528
146 1 15.7378 9.43065 6.28207 -8.95419
147 1 18.8732 9.43385 6.28831 -8.95109
148 1 -0.000802906 1.31872e-15 9.43434 -8.94944
149 1 3.14294 7.97298e-16 9.434 -8.94928
150 1 6.28825 1.8871e-15 9.43387 -8.95146
151 1 9.43493 1.72443e-15 9.43403 -8.94903
152 1 12.58 3.02892e-16 9.43445 -8.95031
153 1 15.725 9.27274e-16 9.43456 -8.94945
154 1 18.8693 8.62262e-16 9.43448 -8.94948
155 1 22.0126 3.14375 9.43422 -8.94936
156 1 3.1412 3.14179 9.4335 -8.94892
157 1 6.28495 3.13685 9.43258 -8.95148
158 1 9.4345 3.14104 9.43341 -8.94718
159 1 12.5804 3.14158 9.43394 -8.95188
160 1 15.7255 3.14329 9.43461 -8.94935
161 1 18.8695 3.14391 9.43447 -8.94937
162 1 22.0116 6.28864 9.43413 -8.95064
163 1 3.1355 6.28502 9.43227 -8.95031
164 1 6.26465 6.26543 9.42109 -8.91742
165 1 9.42978 6.28329 9.43152 -9.00931
166 1 12.5875 6.27747 9.42522 -8.94457
167 1 15.7282 6.28686 9.43429 -8.94901
168 1 18.8702 6.28856 9.43458 -8.94982
169 1 22.0131 9.43484 9.43434 -8.94939
170 1 3.14183 9.43586 9.43413 -8.95001
171 1 6.28334 9.42933 9.43562 -8.9686
172 1 9.35984 9.15226 9.44555 -8.05847
173 1 12.5942 9.40818 9.38547 -8.83445
174 1 15.7281 9.43435 9.43219 -8.95249
175 1 18.8705 9.43448 9.43465 -8.94965
176 1 1.57075 1.5715 11.007 -8.94933
177 1 4.71455 1.56982 11.007 -8.9492
178 1 7.86154 1.56895 11.007 -8.95346
179 1 11.0072 1.57109 11.007 -8.94963
180 1 14.1527 1.57154 11.007 -8.94902
181 1 17.2973 1.57181 11.007 -8.94945
182 1 20.4412 1.57193 11.007 -8.94948
183 1 1.56857 4.71499 11.007 -8.94902
184 1 4.70841 4.70901 11.007 -8.94535
185 1 7.8552 4.69957 11.007 -8.96649
186 1 11.0072 4.71223 11.007 -8.95494
187 1 14.1537 4.71515 11.007 -8.94695
188 1 17.2981 4.71569 11.007 -8.94863
189 1 20.441 4.71615 11.007 -8.94957
190 1 1.56723 7.86156 11.007 -8.95429
191 1 4.69586 7.8546 11.007 -8.96706
192 1 7.77358 7.78595 11.007 -8.73405
193 1 11.0576 7.83841 11.007 -8.82961
194 1 14.1593 7.86238 11.007 -8.96707
195 1 17.2989 7.86145 11.007 -8.95082
196 1 20.4411 7.86173 11.007 -8.95041
197 1 -0.000802906 1.46671e-15 12.5796 -8.94944
198 1 1.57084 1.57155 14.1525 -8.94931
199 1 3.14294 1.28012e-15 12.5799 -8.94928
200 1 4.7148 1.56995 14.1535 -8.94974
201 1 6.28825 1.77461e-15 12.58 -8.95146
202 1 7.86168 1.56983 14.1528 -8.95123
203 1 9.43493 9.73788e-16 12.5799 -8.94903
204 1 11.0074 1.57079 14.1525 -8.94966
205 1 12.58 8.87989e-16 12.5794 -8.95031
206 1 14.1529 1.57086 14.1522 -8.95052
207 1 15.725 1.48065e-15 12.5793 -8.94945
208 1 17.2973 1.57177 14.1518 -8.94956
209 1 18.8693 1.63162e-15 12.5794 -8.94948
210 1 20.4412 1.57196 14.152 -8.94945
211 1 22.0126 3.14375 12.5797 -8.94936
212 1 1.56884 4.71515 14.1534 -8.94935
213 1 3.1412 3.14179 12.5804 -8.94892
214 1 4.70837 4.70896 14.158 -8.94119
215 1 6.28495 3.13685 12.5813 -8.95148
216 1 7.85788 4.70593 14.1556 -8.95819
217 1 9.4345 3.14104 12.5805 -8.94718
218 1 11.0069 4.71139 14.1548 -8.95132
219 1 12.5804 3.14158 12.58 -8.95188
220 1 14.1562 4.71087 14.155 -8.94791
221 1 15.7255 3.14329 12.5793 -8.94935
222 1 17.2986 4.7154 14.1522 -8.94981
223 1 18.8695 3.14391 12.5794 -8.94937
224 1 20.4412 4.71626 14.1522 -8.9498
225 1 22.0116 6.28864 12.5798 -8.95064
226 1 1.56935 7.86198 14.1525 -8.95196
227 1 3.1355 6.28502 12.5816 -8.95031
228 1 4.70542 7.85877 14.1552 -8.96047
229 1 6.26465 6.26543 12.5928 -8.91742
230 1 7.81653 7.8202 14.1918 -8.85698
231 1 9.42978 6.28329 12.5824 -9.00931
232 1 11.0249 7.84353 14.1849 -8.89481
233 1 12.5875 6.27747 12.5887 -8.94457
234 1 14.1683 7.84936 14.1636 -8.93649
235 1 15.7282 6.28686 12.5796 -8.94901
236 1 17.3018 7.86025 14.1527 -8.95223
237 1 18.8702 6.28856 12.5793 -8.94982
238 1 20.4421 7.86172 14.152 -8.95056
239 1 22.0131 9.43484 12.5796 -8.94939
240 1 3.14183 9.43586 12.5798 -8.95001
241 1 6.28334 9.42933 12.5783 -8.9686
242 1 9.35984 9.15226 12.5683 -8.05847
243 1 12.5942 9.40818 12.6284 -8.83445
244 1 15.7281 9.43435 12.5817 -8.95249
245 1 18.8705 9.43448 12.5793 -8.94965
246 1 22.0132 1.12636e-15 15.7247 -8.94943
247 1 1.57115 1.57171 17.2977 -8.94895
248 1 3.14318 1.3222e-15 15.7255 -8.94928
249 1 4.71581 1.57093 17.2984 -8.95004
250 1 6.28889 1.44325e-15 15.7255 -8.95051
251 1 7.86174 1.57103 17.2981 -8.94943
252 1 9.43474 1.65625e-15 15.7254 -8.9501
253 1 11.0073 1.57107 17.298 -8.94945
254 1 12.5799 8.22085e-16 15.7249 -8.95025
255 1 14.1527 1.57093 17.2976 -8.95053
256 1 15.7251 7.46765e-16 15.7247 -8.94996
257 1 17.2976 1.57151 17.2972 -8.94948
258 1 18.8693 1.75016e-15 15.7244 -8.9496
259 1 20.4414 1.57197 17.297 -8.94948
260 1 -0.00110383 3.14388 15.725 -8.94937
261 1 1.57045 4.71611 17.2983 -8.95001
262 1 3.14158 3.1421 15.7268 -8.9475
263 1 4.71173 4.71226 17.3026 -8.94452
264 1 6.28707 3.13996 15.7273 -8.9516
265 1 7.86025 4.71297 17.3007 -8.948
266 1 9.43442 3.14082 15.7266 -8.94997
267 1 11.0074 4.71303 17.3005 -8.94749
268 1 12.5803 3.14105 15.7258 -8.95187
269 1 14.1558 4.71109 17.3012 -8.94953
270 1 15.7263 3.14204 15.7255 -8.94912
271 1 17.2995 4.71456 17.2984 -8.94889
272 1 18.8697 3.14383 15.7246 -8.94966
273 1 20.4419 4.71636 17.2973 -8.94988
274 1 22.013 6.28908 15.725 -8.9505
275 1 1.57176 7.86222 17.2975 -8.94963
276 1 3.13953 6.28749 15.7273 -8.95176
277 1 4.71525 7.86274 17.2984 -8.95153
278 1 6.27411 6.27497 15.7403 -8.93087
279 1 7.85757 7.85732 17.3063 -8.95832
280 1 9.43266 6.27899 15.7321 -8.94672
281 1 11.0073 7.85687 17.3072 -8.95335
282 1 12.5878 6.27628 15.7358 -8.95085
283 1 14.166 7.8492 17.3124 -8.9338
284 1 15.7313 6.28365 15.7288 -8.94656
285 1 17.3026 7.85918 17.3 -8.95004
286 1 18.8713 6.28826 15.725 -8.95027
287 1 20.4431 7.86149 17.2976 -8.94994
288 1 22.0142 9.43453 15.725 -8.94974
289 1 3.14348 9.43552 15.7253 -8.94899
290 1 6.28853 9.43866 15.7234 -8.9507
291 1 9.42718 9.41614 15.722 -8.91758
292 1 12.6194 9.40406 15.7674 -8.88528
293 1 15.7378 9.43065 15.7318 -8.95419
294 1 18.8732 9.43385 15.7256 -8.95109
295 1 -0.000472446 1.64876e-15 18.8695 -8.94919
296 1 1.57166 1.57193 20.442 -8.94899
297 1 3.14386 1.56864e-15 18.8701 -8.94954
298 1 4.71665 1.57187 20.4421 -8.94952
299 1 6.28923 1.87385e-15 18.8701 -8.94941
300 1 7.86183 1.5718 20.4421 -8.94939
301 1 9.43452 1.57701e-15 18.87 -8.94946
302 1 11.007 1.57174 20.4421 -8.94943
303 1 12.5797 1.65386e-15 18.8699 -8.94941
304 1 14.1522 1.57169 20.442 -8.94941
305 1 15.7249 7.57167e-16 18.8697 -8.94998
306 1 17.2975 1.57161 20.442 -8.94944
307 1 18.8695 7.03432e-16 18.8694 -8.94943
308 1 20.4417 1.57202 20.4417 -8.94923
309 1 22.0135 3.14421 18.8698 -8.94955
310 1 1.57201 4.71696 20.442 -8.94995
311 1 3.14289 3.1432 18.8711 -8.94813
312 1 4.71577 4.71605 20.4431 -8.95013
313 1 6.28864 3.14316 18.8709 -8.94934
314 1 7.86129 4.71582 20.4428 -8.94908
315 1 9.43429 3.14304 18.8707 -8.94928
316 1 11.0068 4.71552 20.4428 -8.94928
317 1 12.5799 3.1429 18.8706 -8.94902
318 1 14.1528 4.71519 20.4429 -8.94981
319 1 15.726 3.14237 18.8707 -8.94937
320 1 17.2989 4.71502 20.4428 -8.94819
321 1 18.8701 3.14372 18.8697 -8.94935
322 1 20.4423 4.71656 20.4419 -8.94947
323 1 22.0141 6.28933 18.8697 -8.94972
324 1 1.57228 7.86206 20.4419 -8.94934
325 1 3.14369 6.28953 18.8704 -8.95049
326 1 4.71685 7.86264 20.442 -8.94971
327 1 6.28684 6.28735 18.8739 -8.95168
328 1 7.86163 7.86209 20.4431 -8.95266
329 1 9.43349 6.28672 18.8729 -8.94802
330 1 11.0063 7.86084 20.4439 -8.95117
331 1 12.5807 6.28629 18.8738 -8.94993
332 1 14.1543 7.85977 20.4452 -8.9522
333 1 15.7296 6.28446 18.8743 -8.94525
334 1 17.2992 7.86071 20.4429 -8.9489
335 1 18.8714 6.28817 18.8704 -8.94948
336 1 20.4425 7.86166 20.442 -8.94936
337 1 0.000432999 9.43438 18.8698 -8.94948
338 1 3.14419 9.43468 18.87 -8.94894
339 1 6.28979 9.43587 18.869 -8.94927
340 1 9.43503 9.43473 18.869 -8.94812
341 1 12.583 9.43296 18.8789 -8.95989
342 1 15.7296 9.4326 18.8742 -8.94745
343 1 18.8717 9.43393 18.8706 -8.9492
344 1 1.57227 11.007 1.57197 -8.94954
345 1 4.71672 11.007 1.57195 -8.94969
346 1 7.86207 11.007 1.57329 -8.94698
347 1 11.0066 11.007 1.57163 -8.94661
348 1 14.1552 11.007 1.56849 -8.95007
349 1 17.2994 11.007 1.57096 -8.94923
350 1 20.4426 11.007 1.57188 -8.94944
351 1 22.0143 12.5795 1.4051e-15 -8.9495
352 1 1.57228 14.1518 1.57201 -8.94934
353 1 3.14442 12.5793 1.86657e-15 -8.9495
354 1 4.71685 14.1513 1.57191 -8.94971
355 1 6.28937 12.5789 1.75209e-15 -8.94913
356 1 7.86163 14.1518 1.57083 -8.95266
357 1 9.4341 12.5791 -1.18322e-15 -8.94832
358 1 11.0063 14.1531 1.56996 -8.95117
359 1 12.5798 12.5797 8.60928e-15 -8.95332
360 1 14.1543 14.1541 1.56866 -8.9522
361 1 15.7269 12.5803 3.52088e-15 -8.9491
362 1 17.2992 14.1532 1.57099 -8.9489
363 1 18.8707 12.5798 1.36677e-15 -8.94933
364 1 20.4425 14.1522 1.57191 -8.94936
365 1 22.0142 15.7245 1.75418e-15 -8.94943
366 1 1.57201 17.2969 1.57188 -8.94995
367 1 3.14445 15.7241 1.71615e-15 -8.9499
368 1 4.71577 17.2978 1.57077 -8.95013
369 1 6.2888 15.7247 1.94611e-15 -8.95153
370 1 7.86129 17.2981 1.57108 -8.94908
371 1 9.43374 15.7256 2.20782e-15 -8.94971
372 1 11.0068 17.2984 1.5711 -8.94928
373 1 12.5795 15.7258 2.25583e-15 -8.94995
374 1 14.1528 17.2987 1.57096 -8.94981
375 1 15.7264 15.7265 2.88203e-15 -8.95021
376 1 17.2989 17.2989 1.57115 -8.94819
377 1 18.8706 15.7252 1.73032e-15 -8.94929
378 1 20.4423 17.2973 1.57199 -8.94947
379 1 22.0139 18.8695 6.23316e-16 -8.94957
380 1 1.57166 20.442 1.57188 -8.94899
381 1 3.14389 18.8699 1.63057e-15 -8.94949
382 1 4.71665 20.442 1.57179 -8.94952
383 1 6.28909 18.8699 1.82024e-15 -8.94933
384 1 7.86183 20.4421 1.57182 -8.94939
385 1 9.43428 18.8701 -3.73917e-16 -8.94941
386 1 11.007 20.4422 1.57184 -8.94943
387 1 12.5796 18.8702 9.53463e-16 -8.94931
388 1 14.1522 20.4422 1.57193 -8.94941
389 1 15.7251 18.8704 1.09248e-15 -8.94969
390 1 17.2975 20.4423 1.57192 -8.94944
391 1 18.8702 18.8701 1.02897e-15 -8.94875
392 1 20.4417 20.4419 1.57218 -8.94923
393 1 1.57196 11.007 4.7161 -8.94943
394 1 4.71628 11.007 4.71581 -8.94619
395 1 7.86665 11.007 4.72416 -8.9435
396 1 11.0123 11.007 4.71806 -8.99189
397 1 14.1649 11.007 4.70343 -8.94194
398 1 17.3028 11.007 4.7135 -8.94901
399 1 20.4433 11.007 4.71611 -8.94982
400 1 0.000432999 12.5795 3.14406 -8.94948
401 1 1.57176 14.1517 4.71637 -8.94963
402 1 3.14419 12.5792 3.1439 -8.94894
403 1 4.71525 14.1512 4.71547 -8.95153
404 1 6.28979 12.578 3.14494 -8.94927
405 1 7.85757 14.1566 4.70763 -8.95832
406 1 9.43503 12.5792 3.14486 -8.94812
407 1 11.0073 14.157 4.70674 -8.95335
408 1 12.583 12.5809 3.13496 -8.95989
409 1 14.166 14.1647 4.70149 -8.9338
410 1 15.7296 12.5813 3.13974 -8.94745
411 1 17.3026 14.1547 4.71387 -8.95004
412 1 18.8717 12.58 3.14332 -8.9492
413 1 20.4431 14.1524 4.71631 -8.94994
414 1 22.0141 15.7246 3.14418 -8.94972
415 1 1.57045 17.2978 4.71564 -8.95001
416 1 3.14369 15.7244 3.14351 -8.95049
417 1 4.71173 17.3016 4.71126 -8.94452
418 1 6.28684 15.7265 3.13997 -8.95168
419 1 7.86025 17.3009 4.71324 -8.948
420 1 9.43349 15.7272 3.14099 -8.94802
421 1 11.0074 17.3009 4.71343 -8.94749
422 1 12.5807 15.7276 3.14009 -8.94993
423 1 14.1558 17.3028 4.71268 -8.94953
424 1 15.7296 15.7294 3.13963 -8.94525
425 1 17.2995 17.2993 4.71551 -8.94889
426 1 18.8714 15.7257 3.1435 -8.94948
427 1 20.4419 17.2975 4.71657 -8.94988
428 1 22.0135 18.8697 3.14413 -8.94955
429 1 1.57115 20.4422 4.71618 -8.94895
430 1 3.14289 18.8707 3.14281 -8.94813
431 1 4.71581 20.443 4.71551 -8.95004
432 1 6.28864 18.8707 3.14302 -8.94934
433 1 7.86174 20.4429 4.71577 -8.94943
434 1 9.43429 18.8709 3.14321 -8.94928
435 1 11.0073 20.4428 4.7159 -8.94945
436 1 12.5799 18.871 3.14334 -8.94902
437 1 14.1527 20.443 4.7163 -8.95053
438 1 15.726 18.8715 3.14317 -8.94937
439 1 17.2976 20.4424 4.71666 -8.94948
440 1 18.8701 18.8702 3.1442 -8.94935
441 1 20.4414 20.4419 4.71687 -8.94948
442 1 1.57187 11.007 7.86117 -8.94732
443 1 4.72022 11.007 7.86259 -8.9376
444 1 7.88962 11.007 7.88508 -8.83945
445 1 11.1013 11.007 7.67843 -8.23358
446 1 14.1723 11.007 7.8451 -8.96503
447 1 17.3032 11.007 7.86014 -8.95196
448 1 20.443 11.007 7.86167 -8.94998
449 1 22.0142 12.5794 6.28889 -8.94974
450 1 1.56935 14.1519 7.86137 -8.95196
451 1 3.14348 12.5784 6.28865 -8.94899
452 1 4.70542 14.1551 7.85869 -8.96047
453 1 6.28853 12.5752 6.29055 -8.9507
454 1 7.81653 14.1937 7.82207 -8.85698
455 1 9.42718 12.5978 6.29185 -8.91758
456 1 11.0249 14.1704 7.82897 -8.89481
457 1 12.6194 12.6098 6.24651 -8.88528
458 1 14.1683 14.1645 7.85033 -8.93649
459 1 15.7378 12.5832 6.28207 -8.95419
460 1 17.3018 14.1537 7.86122 -8.95223
461 1 18.8732 12.5801 6.28831 -8.95109
462 1 20.4421 14.1522 7.86189 -8.95056
463 1 22.013 15.7248 6.2889 -8.9505
464 1 1.56884 17.2987 7.86049 -8.94935
465 1 3.13953 15.7264 6.28657 -8.95176
466 1 4.70837 17.3049 7.85587 -8.94119
467 1 6.27411 15.7389 6.27362 -8.93087
468 1 7.85788 17.308 7.85832 -8.95819
469 1 9.43266 15.7349 6.28176 -8.94672
470 1 11.0069 17.3025 7.85914 -8.95132
471 1 12.5878 15.7376 6.27814 -8.95085
472 1 14.1562 17.303 7.85893 -8.94791
473 1 15.7313 15.7302 6.28505 -8.94656
474 1 17.2986 17.2985 7.86175 -8.94981
475 1 18.8713 15.7256 6.2889 -8.95027
476 1 20.4412 17.2976 7.86174 -8.9498
477 1 -0.00110383 18.87 6.28888 -8.94937
478 1 1.57084 20.4424 7.86137 -8.94931
479 1 3.14158 18.8718 6.2871 -8.9475
480 1 4.7148 20.444 7.86039 -8.94974
481 1 6.28707 18.8739 6.28662 -8.9516
482 1 7.86168 20.4441 7.86107 -8.95123
483 1 9.43442 18.8731 6.28726 -8.94997
484 1 11.0074 20.4431 7.86136 -8.94966
485 1 12.5803 18.8729 6.28807 -8.95187
486 1 14.1529 20.443 7.86168 -8.95052
487 1 15.7263 18.8719 6.28842 -8.94912
488 1 17.2973 20.4421 7.86206 -8.94956
489 1 18.8697 18.8701 6.28933 -8.94966
490 1 20.4412 20.4419 7.86189 -8.94945
491 1 22.0131 12.5791 9.43434 -8.94939
492 1 3.14183 12.578 9.43413 -8.95001
493 1 6.28334 12.5846 9.43562 -8.9686
494 1 9.35984 12.8616 9.44555 -8.05847
495 1 12.5942 12.6057 9.38547 -8.83445
496 1 15.7281 12.5796 9.43219 -8.95249
497 1 18.8705 12.5794 9.43465 -8.94965
498 1 22.0116 15.7253 9.43413 -8.95064
499 1 3.1355 15.7289 9.43227 -8.95031
500 1 6.26465 15.7485 9.42109 -8.91742
501 1 9.42978 15.7306 9.43152 -9.00931
502 1 12.5875 15.7364 9.42522 -8.94457
503 1 15.7282 15.727 9.43429 -8.94901
504 1 18.8702 15.7253 9.43458 -8.94982
505 1 22.0126 18.8701 9.43422 -8.94936
506 1 3.1412 18.8721 9.4335 -8.94892
507 1 6.28495 18.8771 9.43258 -8.95148
508 1 9.4345 18.8729 9.43341 -8.94718
509 1 12.5804 18.8723 9.43394 -8.95188
510 1 15.7255 18.8706 9.43461 -8.94935
511 1 18.8695 18.87 9.43447 -8.94937
688 3 10.0788 11.007 9.39765 2.36164
512 1 1.572 11.007 11.007 -8.94507
513 1 4.72466 11.007 11.007 -8.93305
514 1 7.9035 11.007 11.007 -8.72025
515 1 11.2667 11.007 11.007 -7.40713
516 1 14.1388 11.007 11.007 -9.01393
517 1 17.2955 11.007 11.007 -8.9448
518 1 20.4414 11.007 11.007 -8.94774
519 1 1.56723 14.1523 11.007 -8.95429
520 1 4.69586 14.1593 11.007 -8.96706
521 1 7.77358 14.228 11.007 -8.73405
522 1 11.0576 14.1755 11.007 -8.82961
523 1 14.1593 14.1515 11.007 -8.96707
524 1 17.2989 14.1525 11.007 -8.95082
525 1 20.4411 14.1522 11.007 -8.95041
526 1 1.56857 17.2989 11.007 -8.94902
527 1 4.70841 17.3049 11.007 -8.94535
528 1 7.8552 17.3143 11.007 -8.96649
529 1 11.0072 17.3017 11.007 -8.95494
530 1 14.1537 17.2988 11.007 -8.94695
531 1 17.2981 17.2982 11.007 -8.94863
532 1 20.441 17.2978 11.007 -8.94957
533 1 1.57075 20.4424 11.007 -8.94933
534 1 4.71455 20.4441 11.007 -8.9492
535 1 7.86154 20.4449 11.007 -8.95346
536 1 11.0072 20.4428 11.007 -8.94963
537 1 14.1527 20.4424 11.007 -8.94902
538 1 17.2973 20.4421 11.007 -8.94945
539 1 20.4412 20.442 11.007 -8.94948
540 1 1.57187 11.007 14.1527 -8.94732
541 1 4.72022 11.007 14.1513 -8.9376
542 1 7.88962 11.007 14.1288 -8.83945
543 1 11.1013 11.007 14.3355 -8.23358
544 1 14.1723 11.007 14.1688 -8.96503
545 1 17.3032 11.007 14.1538 -8.95196
546 1 20.443 11.007 14.1522 -8.94998
547 1 22.0131 12.5791 12.5796 -8.94939
548 1 1.56935 14.1519 14.1525 -8.95196
549 1 3.14183 12.578 12.5798 -8.95001
550 1 4.70542 14.1551 14.1552 -8.96047
551 1 6.28334 12.5846 12.5783 -8.9686
552 1 7.81653 14.1937 14.1918 -8.85698
553 1 9.35984 12.8616 12.5683 -8.05847
554 1 11.0249 14.1704 14.1849 -8.89481
555 1 12.5942 12.6057 12.6284 -8.83445
556 1 14.1683 14.1645 14.1636 -8.93649
557 1 15.7281 12.5796 12.5817 -8.95249
558 1 17.3018 14.1537 14.1527 -8.95223
559 1 18.8705 12.5794 12.5793 -8.94965
560 1 20.4421 14.1522 14.152 -8.95056
561 1 22.0116 15.7253 12.5798 -8.95064
562 1 1.56884 17.2987 14.1534 -8.94935
563 1 3.1355 15.7289 12.5816 -8.95031
564 1 4.70837 17.3049 14.158 -8.94119
565 1 6.26465 15.7485 12.5928 -8.91742
566 1 7.85788 17.308 14.1556 -8.95819
567 1 9.42978 15.7306 12.5824 -9.00931
568 1 11.0069 17.3025 14.1548 -8.95132
569 1 12.5875 15.7364 12.5887 -8.94457
570 1 14.1562 17.303 14.155 -8.94791
571 1 15.7282 15.727 12.5796 -8.94901
572 1 17.2986 17.2985 14.1522 -8.94981
573 1 18.8702 15.7253 12.5793 -8.94982
574 1 20.4412 17.2976 14.1522 -8.9498
575 1 22.0126 18.8701 12.5797 -8.94936
576 1 1.57084 20.4424 14.1525 -8.94931
577 1 3.1412 18.8721 12.5804 -8.94892
578 1 4.7148 20.444 14.1535 -8.94974
579 1 6.28495 18.8771 12.5813 -8.95148
580 1 7.86168 20.4441 14.1528 -8.95123
581 1 9.4345 18.8729 12.5805 -8.94718
582 1 11.0074 20.4431 14.1525 -8.94966
583 1 12.5804 18.8723 12.58 -8.95188
584 1 14.1529 20.443 14.1522 -8.95052
585 1 15.7255 18.8706 12.5793 -8.94935
586 1 17.2973 20.4421 14.1518 -8.94956
587 1 18.8695 18.87 12.5794 -8.94937
588 1 20.4412 20.4419 14.152 -8.94945
589 1 1.57196 11.007 17.2978 -8.94943
590 1 4.71628 11.007 17.2981 -8.94619
591 1 7.86665 11.007 17.2897 -8.9435
592 1 11.0123 11.007 17.2958 -8.99189
593 1 14.1649 11.007 17.3105 -8.94194
594 1 17.3028 11.007 17.3004 -8.94901
595 1 20.4433 11.007 17.2978 -8.94982
596 1 22.0142 12.5794 15.725 -8.94974
597 1 1.57176 14.1517 17.2975 -8.94963
598 1 3.14348 12.5784 15.7253 -8.94899
599 1 4.71525 14.1512 17.2984 -8.95153
600 1 6.28853 12.5752 15.7234 -8.9507
601 1 7.85757 14.1566 17.3063 -8.95832
602 1 9.42718 12.5978 15.722 -8.91758
603 1 11.0073 14.157 17.3072 -8.95335
604 1 12.6194 12.6098 15.7674 -8.88528
605 1 14.166 14.1647 17.3124 -8.9338
606 1 15.7378 12.5832 15.7318 -8.95419
607 1 17.3026 14.1547 17.3 -8.95004
608 1 18.8732 12.5801 15.7256 -8.95109
609 1 20.4431 14.1524 17.2976 -8.94994
610 1 22.013 15.7248 15.725 -8.9505
611 1 1.57045 17.2978 17.2983 -8.95001
612 1 3.13953 15.7264 15.7273 -8.95176
613 1 4.71173 17.3016 17.3026 -8.94452
614 1 6.27411 15.7389 15.7403 -8.93087
615 1 7.86025 17.3009 17.3007 -8.948
616 1 9.43266 15.7349 15.7321 -8.94672
617 1 11.0074 17.3009 17.3005 -8.94749
618 1 12.5878 15.7376 15.7358 -8.95085
619 1 14.1558 17.3028 17.3012 -8.94953
620 1 15.7313 15.7302 15.7288 -8.94656
621 1 17.2995 17.2993 17.2984 -8.94889
622 1 18.8713 15.7256 15.725 -8.95027
623 1 20.4419 17.2975 17.2973 -8.94988
624 1 -0.00110383 18.87 15.725 -8.94937
625 1 1.57115 20.4422 17.2977 -8.94895
626 1 3.14158 18.8718 15.7268 -8.9475
627 1 4.71581 20.443 17.2984 -8.95004
628 1 6.28707 18.8739 15.7273 -8.9516
629 1 7.86174 20.4429 17.2981 -8.94943
630 1 9.43442 18.8731 15.7266 -8.94997
631 1 11.0073 20.4428 17.298 -8.94945
632 1 12.5803 18.8729 15.7258 -8.95187
633 1 14.1527 20.443 17.2976 -8.95053
634 1 15.7263 18.8719 15.7255 -8.94912
635 1 17.2976 20.4424 17.2972 -8.94948
636 1 18.8697 18.8701 15.7246 -8.94966
637 1 20.4414 20.4419 17.297 -8.94948
638 1 1.57227 11.007 20.4419 -8.94954
639 1 4.71672 11.007 20.4419 -8.94969
640 1 7.86207 11.007 20.4406 -8.94698
641 1 11.0066 11.007 20.4423 -8.94661
642 1 14.1552 11.007 20.4454 -8.95007
643 1 17.2994 11.007 20.4429 -8.94923
644 1 20.4426 11.007 20.442 -8.94944
645 1 0.000432999 12.5795 18.8698 -8.94948
646 1 1.57228 14.1518 20.4419 -8.94934
647 1 3.14419 12.5792 18.87 -8.94894
648 1 4.71685 14.1513 20.442 -8.94971
649 1 6.28979 12.578 18.869 -8.94927
650 1 7.86163 14.1518 20.4431 -8.95266
651 1 9.43503 12.5792 18.869 -8.94812
652 1 11.0063 14.1531 20.4439 -8.95117
653 1 12.583 12.5809 18.8789 -8.95989
654 1 14.1543 14.1541 20.4452 -8.9522
655 1 15.7296 12.5813 18.8742 -8.94745
656 1 17.2992 14.1532 20.4429 -8.9489
657 1 18.8717 12.58 18.8706 -8.9492
658 1 20.4425 14.1522 20.442 -8.94936
659 1 22.0141 15.7246 18.8697 -8.94972
660 1 1.57201 17.2969 20.442 -8.94995
661 1 3.14369 15.7244 18.8704 -8.95049
662 1 4.71577 17.2978 20.4431 -8.95013
663 1 6.28684 15.7265 18.8739 -8.95168
664 1 7.86129 17.2981 20.4428 -8.94908
665 1 9.43349 15.7272 18.8729 -8.94802
666 1 11.0068 17.2984 20.4428 -8.94928
667 1 12.5807 15.7276 18.8738 -8.94993
668 1 14.1528 17.2987 20.4429 -8.94981
669 1 15.7296 15.7294 18.8743 -8.94525
670 1 17.2989 17.2989 20.4428 -8.94819
671 1 18.8714 15.7257 18.8704 -8.94948
672 1 20.4423 17.2973 20.4419 -8.94947
673 1 22.0135 18.8697 18.8698 -8.94955
674 1 1.57166 20.442 20.442 -8.94899
675 1 3.14289 18.8707 18.8711 -8.94813
676 1 4.71665 20.442 20.4421 -8.94952
677 1 6.28864 18.8707 18.8709 -8.94934
678 1 7.86183 20.4421 20.4421 -8.94939
679 1 9.43429 18.8709 18.8707 -8.94928
680 1 11.007 20.4422 20.4421 -8.94943
681 1 12.5799 18.871 18.8706 -8.94902
682 1 14.1522 20.4422 20.442 -8.94941
683 1 15.726 18.8715 18.8707 -8.94937
684 1 17.2975 20.4423 20.442 -8.94944
685 1 18.8701 18.8702 18.8697 -8.94935
686 1 20.4417 20.4419 20.4417 -8.94923
687 3 10.0788 11.007 12.6163 2.36164
