ITEM: TIMESTEP
34
ITEM: NUMBER OF ATOMS
688
ITEM: BOX BOUNDS pp pp pp
0.0000000000000000e+00 2.2013900999999997e+01
0.0000000000000000e+00 2.2013900999999997e+01
0.0000000000000000e+00 2.2013900999999997e+01
ITEM: ATOMS id type x y z c_pot
1 1 22.0139 7.65122e-17 3.936e-16 -8.94963
2 1 1.57242 1.57242 1.57242 -8.94963
3 1 3.14484 3.41541e-16 1.82082e-16 -8.94963
4 1 4.71726 1.57242 1.57242 -8.94963
5 1 6.28969 2.13338e-16 4.01748e-16 -8.94963
6 1 7.86211 1.57242 1.57242 -8.94963
7 1 9.43453 4.41892e-16 3.96418e-16 -8.94963
8 1 11.007 1.57242 1.57242 -8.94963
9 1 12.5794 3.94368e-16 2.65693e-16 -8.94963
10 1 14.1518 1.57242 1.57242 -8.94963
11 1 15.7242 -2.02026e-16 8.81865e-18 -8.94963
12 1 17.2966 1.57242 1.57242 -8.94963
13 1 18.8691 3.49467e-16 1.28523e-16 -8.94963
14 1 20.4415 1.57242 1.57242 -8.94963
15 1 22.0139 3.14484 3.21905e-16 -8.94963
16 1 1.57242 4.71726 1.57242 -8.94963
17 1 3.14484 3.14484 3.06128e-16 -8.94963
18 1 4.71726 4.71726 1.57242 -8.94963
19 1 6.28969 3.14484 6.60008e-16 -8.94963
20 1 7.86211 4.71726 1.57242 -8.94963
21 1 9.43453 3.14484 2.51977e-16 -8.94963
22 1 11.007 4.71726 1.57242 -8.94963
23 1 12.5794 3.14484 1.24948e-16 -8.94963
24 1 14.1518 4.71726 1.57242 -8.94963
25 1 15.7242 3.14484 -1.23342e-18 -8.94963
26 1 17.2966 4.71726 1.57242 -8.94963
27 1 18.8691 3.14484 3.61281e-16 -8.94963
28 1 20.4415 4.71726 1.57242 -8.94963
29 1 22.0139 6.28969 4.491e-16 -8.94963
30 1 1.57242 7.86211 1.57242 -8.94963
31 1 3.14484 6.28969 7.35699e-16 -8.94963
32 1 4.71726 7.86211 1.57242 -8.94963
33 1 6.28969 6.28969 4.35651e-16 -8.94963
34 1 7.86211 7.86211 1.57242 -8.94963
35 1 9.43453 6.28969 2.03455e-16 -8.94963
36 1 11.007 7.86211 1.57242 -8.94964
37 1 12.5794 6.28969 1.41031e-16 -8.94963
38 1 14.1518 7.86211 1.57242 -8.94963
39 1 15.7242 6.28969 -7.43295e-17 -8.94963
40 1 17.2966 7.86211 1.57242 -8.94963
41 1 18.8691 6.28969 3.06862e-16 -8.94963
42 1 20.4415 7.86211 1.57242 -8.94963
43 1 22.0139 9.43453 2.16189e-16 -8.94963
44 1 3.14484 9.43453 4.03054e-16 -8.94963
45 1 6.28969 9.43453 2.48687e-16 -8.94963
46 1 9.43453 9.43453 6.34282e-16 -8.94964
47 1 12.5794 9.43453 1.92179e-17 -8.94964
48 1 15.7242 9.43453 -1.19825e-16 -8.94963
49 1 18.8691 9.43453 1.62745e-16 -8.94963
50 1 1.185e-11 1.99958e-16 3.14484 -8.94963
51 1 1.57242 1.57242 4.71726 -8.94963
52 1 3.14484 -2.961e-17 3.14484 -8.94963
53 1 4.71726 1.57242 4.71726 -8.94963
54 1 6.28969 5.70265e-16 3.14484 -8.94963
55 1 7.86211 1.57242 4.71726 -8.94963
56 1 9.43453 5.71596e-16 3.14484 -8.94963
57 1 11.007 1.57242 4.71726 -8.94963
58 1 12.5794 3.20362e-16 3.14484 -8.94963
59 1 14.1518 1.57242 4.71726 -8.94963
60 1 15.7242 1.48398e-16 3.14484 -8.94963
61 1 17.2966 1.57242 4.71726 -8.94963
62 1 18.8691 1.05028e-17 3.14484 -8.94963
63 1 20.4415 1.57242 4.71726 -8.94963
64 1 22.0139 3.14484 3.14484 -8.94963
65 1 1.57242 4.71726 4.71726 -8.94963
66 1 3.14484 3.14484 3.14484 -8.94963
67 1 4.71726 4.71726 4.71726 -8.94962
68 1 6.28969 3.14484 3.14484 -8.94963
69 1 7.86211 4.71727 4.71727 -8.94969
70 1 9.43453 3.14484 3.14484 -8.94963
71 1 11.0069 4.71727 4.71726 -8.94964
72 1 12.5794 3.14484 3.14484 -8.94963
73 1 14.1518 4.71726 4.71726 -8.94963
74 1 15.7242 3.14484 3.14484 -8.94963
75 1 17.2966 4.71726 4.71726 -8.94963
76 1 18.8691 3.14484 3.14484 -8.94963
77 1 20.4415 4.71726 4.71726 -8.94963
78 1 22.0139 6.28969 3.14484 -8.94963
79 1 1.57242 7.86211 4.71726 -8.94963
80 1 3.14484 6.28969 3.14484 -8.94963
81 1 4.71726 7.86211 4.71726 -8.94965
82 1 6.28969 6.28969 3.14484 -8.94963
83 1 7.8621 7.8621 4.71723 -8.94981
84 1 9.43453 6.28969 3.14484 -8.94964
85 1 11.0069 7.86215 4.7173 -8.95076
86 1 12.5794 6.28969 3.14484 -8.94969
87 1 14.1518 7.86207 4.71723 -8.94901
88 1 15.7242 6.28969 3.14484 -8.94962
89 1 17.2966 7.86211 4.71726 -8.94964
90 1 18.8691 6.28969 3.14484 -8.94963
91 1 20.4415 7.86211 4.71726 -8.94963
92 1 2.05672e-09 9.43453 3.14484 -8.94963
93 1 3.14484 9.43453 3.14484 -8.94964
94 1 6.28969 9.43453 3.14484 -8.94965
95 1 9.43451 9.43451 3.14482 -8.94943
96 1 12.5794 9.43451 3.1448 -8.9497
97 1 15.7242 9.43453 3.14484 -8.94969
98 1 18.8691 9.43453 3.14484 -8.94963
99 1 22.0139 1.89306e-16 6.28969 -8.94963
100 1 1.57242 1.57242 7.86211 -8.94963
101 1 3.14484 1.09105e-16 6.28969 -8.94963
102 1 4.71726 1.57242 7.86211 -8.94963
103 1 6.28969 2.23302e-16 6.28969 -8.94963
104 1 7.86211 1.57242 7.86211 -8.94964
105 1 9.43453 4.71989e-16 6.28969 -8.94963
106 1 11.007 1.57242 7.86211 -8.94963
107 1 12.5794 3.02446e-16 6.28969 -8.94963
108 1 14.1518 1.57242 7.86211 -8.94963
109 1 15.7242 3.76809e-16 6.28969 -8.94963
110 1 17.2966 1.57242 7.86211 -8.94963
111 1 18.8691 4.3585e-16 6.28969 -8.94963
112 1 20.4415 1.57242 7.86211 -8.94963
113 1 5.67759e-10 3.14484 6.28969 -8.94963
114 1 1.57242 4.71726 7.86211 -8.94963
115 1 3.14484 3.14484 6.28969 -8.94963
116 1 4.71727 4.71727 7.86211 -8.94967
117 1 6.28969 3.14484 6.28969 -8.94963
118 1 7.86209 4.71723 7.86209 -8.94975
119 1 9.43453 3.14484 6.28969 -8.94964
120 1 11.007 4.71724 7.86209 -8.94944
121 1 12.5794 3.14484 6.28969 -8.94963
122 1 14.1518 4.71726 7.86211 -8.94965
123 1 15.7242 3.14484 6.28969 -8.94963
124 1 17.2966 4.71726 7.86211 -8.94964
125 1 18.8691 3.14484 6.28969 -8.94963
126 1 20.4415 4.71726 7.86211 -8.94963
127 1 22.0139 6.28969 6.28969 -8.94963
128 1 1.57242 7.86211 7.86211 -8.94964
129 1 3.14484 6.28969 6.28969 -8.94964
130 1 4.71724 7.8621 7.8621 -8.9499
131 1 6.28965 6.28965 6.28965 -8.94901
132 1 7.86072 7.86078 7.86069 -8.92516
133 1 9.43454 6.28972 6.28973 -8.95078
134 1 11.0074 7.86182 7.86162 -8.94283
135 1 12.5794 6.28966 6.28968 -8.94987
136 1 14.1519 7.86204 7.86203 -8.94866
137 1 15.7242 6.28969 6.28968 -8.94964
138 1 17.2966 7.86211 7.86211 -8.94964
139 1 18.8691 6.28969 6.28969 -8.94963
140 1 20.4415 7.86211 7.86211 -8.94963
141 1 22.0139 9.43453 6.28969 -8.94963
142 1 3.14484 9.43453 6.28969 -8.94964
143 1 6.28964 9.43448 6.28965 -8.94928
144 1 9.43402 9.43399 6.28933 -8.94211
145 1 12.5808 9.43312 6.28833 -8.92512
146 1 15.7242 9.43452 6.28968 -8.94994
147 1 18.8691 9.43453 6.28969 -8.94964
148 1 1.15553e-10 4.79562e-16 9.43453 -8.94963
149 1 3.14484 1.42934e-16 9.43453 -8.94963
150 1 6.28969 4.58297e-16 9.43453 -8.94963
151 1 9.43453 2.5138e-16 9.43453 -8.94965
152 1 12.5794 5.04955e-16 9.43453 -8.94963
153 1 15.7242 3.05943e-16 9.43453 -8.94963
154 1 18.8691 2.13983e-16 9.43453 -8.94963
155 1 22.0139 3.14484 9.43453 -8.94963
156 1 3.14484 3.14484 9.43453 -8.94963
157 1 6.28969 3.14484 9.43453 -8.94963
158 1 9.43453 3.14481 9.43453 -8.95009
159 1 12.5794 3.14484 9.43453 -8.94965
160 1 15.7242 3.14484 9.43453 -8.94963
161 1 18.8691 3.14484 9.43453 -8.94963
162 1 22.0139 6.28969 9.43453 -8.94963
163 1 3.14484 6.28969 9.43453 -8.94963
164 1 6.2897 6.2897 9.4345 -8.9506
165 1 9.43451 6.288 9.43457 -8.96546
166 1 12.5794 6.28964 9.43452 -8.95087
167 1 15.7242 6.28969 9.43453 -8.94971
168 1 18.8691 6.28969 9.43453 -8.94963
169 1 22.0139 9.43453 9.43453 -8.94964
170 1 3.14483 9.43453 9.43453 -8.94984
171 1 6.28882 9.43437 9.43449 -8.95709
172 1 9.39717 9.35854 9.43431 -7.93261
173 1 12.5836 9.43098 9.4332 -8.89166
174 1 15.7243 9.4345 9.43452 -8.95035
175 1 18.8691 9.43453 9.43453 -8.94965
176 1 1.57242 1.57242 11.007 -8.94963
177 1 4.71726 1.57242 11.007 -8.94963
178 1 7.86211 1.57242 11.007 -8.94964
179 1 11.007 1.57242 11.007 -8.94964
180 1 14.1518 1.57242 11.007 -8.94963
181 1 17.2966 1.57242 11.007 -8.94963
182 1 20.4415 1.57242 11.007 -8.94963
183 1 1.57242 4.71726 11.007 -8.94963
184 1 4.71727 4.71727 11.007 -8.94974
185 1 7.86207 4.71719 11.007 -8.94975
186 1 11.007 4.71722 11.007 -8.94923
187 1 14.1518 4.71726 11.007 -8.94968
188 1 17.2966 4.71726 11.007 -8.94964
189 1 20.4415 4.71726 11.007 -8.94963
190 1 1.57242 7.86211 11.007 -8.94964
191 1 4.71721 7.86209 11.007 -8.95013
192 1 7.85935 7.85948 11.007 -8.90062
193 1 11.008 7.86142 11.007 -8.93497
194 1 14.1519 7.86203 11.007 -8.94926
195 1 17.2966 7.86211 11.007 -8.94965
196 1 20.4415 7.86211 11.007 -8.94963
197 1 1.15553e-10 4.99713e-16 12.5794 -8.94963
198 1 1.57242 1.57242 14.1518 -8.94963
199 1 3.14484 1.43444e-16 12.5794 -8.94963
200 1 4.71726 1.57242 14.1518 -8.94963
201 1 6.28969 4.69469e-16 12.5794 -8.94963
202 1 7.86211 1.57242 14.1518 -8.94964
203 1 9.43453 2.50076e-16 12.5794 -8.94965
204 1 11.007 1.57242 14.1518 -8.94963
205 1 12.5794 5.1721e-16 12.5794 -8.94963
206 1 14.1518 1.57242 14.1518 -8.94963
207 1 15.7242 2.88941e-16 12.5794 -8.94963
208 1 17.2966 1.57242 14.1518 -8.94963
209 1 18.8691 2.07697e-16 12.5794 -8.94963
210 1 20.4415 1.57242 14.1518 -8.94963
211 1 22.0139 3.14484 12.5794 -8.94963
212 1 1.57242 4.71726 14.1518 -8.94963
213 1 3.14484 3.14484 12.5794 -8.94963
214 1 4.71727 4.71727 14.1518 -8.94967
215 1 6.28969 3.14484 12.5794 -8.94963
216 1 7.86209 4.71723 14.1518 -8.94975
217 1 9.43453 3.14481 12.5794 -8.95009
218 1 11.007 4.71724 14.1518 -8.94944
219 1 12.5794 3.14484 12.5794 -8.94965
220 1 14.1518 4.71726 14.1518 -8.94965
221 1 15.7242 3.14484 12.5794 -8.94963
222 1 17.2966 4.71726 14.1518 -8.94964
223 1 18.8691 3.14484 12.5794 -8.94963
224 1 20.4415 4.71726 14.1518 -8.94963
225 1 22.0139 6.28969 12.5794 -8.94963
226 1 1.57242 7.86211 14.1518 -8.94964
227 1 3.14484 6.28969 12.5794 -8.94963
228 1 4.71724 7.8621 14.1518 -8.9499
229 1 6.2897 6.2897 12.5794 -8.9506
230 1 7.86072 7.86078 14.1532 -8.92516
231 1 9.43451 6.288 12.5793 -8.96546
232 1 11.0074 7.86182 14.1523 -8.94283
233 1 12.5794 6.28964 12.5794 -8.95087
234 1 14.1519 7.86204 14.1519 -8.94866
235 1 15.7242 6.28969 12.5794 -8.94971
236 1 17.2966 7.86211 14.1518 -8.94964
237 1 18.8691 6.28969 12.5794 -8.94963
238 1 20.4415 7.86211 14.1518 -8.94963
239 1 22.0139 9.43453 12.5794 -8.94964
240 1 3.14483 9.43453 12.5794 -8.94984
241 1 6.28882 9.43437 12.5794 -8.95709
242 1 9.39717 9.35854 12.5796 -7.93261
243 1 12.5836 9.43098 12.5807 -8.89166
244 1 15.7243 9.4345 12.5794 -8.95035
245 1 18.8691 9.43453 12.5794 -8.94965
246 1 22.0139 1.21334e-16 15.7242 -8.94963
247 1 1.57242 1.57242 17.2966 -8.94963
248 1 3.14484 1.25414e-16 15.7242 -8.94963
249 1 4.71726 1.57242 17.2966 -8.94963
250 1 6.28969 2.24654e-16 15.7242 -8.94963
251 1 7.86211 1.57242 17.2966 -8.94963
252 1 9.43453 4.96786e-16 15.7242 -8.94963
253 1 11.007 1.57242 17.2966 -8.94963
254 1 12.5794 2.29645e-16 15.7242 -8.94963
255 1 14.1518 1.57242 17.2966 -8.94963
256 1 15.7242 3.98378e-16 15.7242 -8.94963
257 1 17.2966 1.57242 17.2966 -8.94963
258 1 18.8691 4.69009e-16 15.7242 -8.94963
259 1 20.4415 1.57242 17.2966 -8.94963
260 1 5.67759e-10 3.14484 15.7242 -8.94963
261 1 1.57242 4.71726 17.2966 -8.94963
262 1 3.14484 3.14484 15.7242 -8.94963
263 1 4.71726 4.71726 17.2966 -8.94962
264 1 6.28969 3.14484 15.7242 -8.94963
265 1 7.86211 4.71727 17.2966 -8.94969
266 1 9.43453 3.14484 15.7242 -8.94964
267 1 11.0069 4.71727 17.2966 -8.94964
268 1 12.5794 3.14484 15.7242 -8.94963
269 1 14.1518 4.71726 17.2966 -8.94963
270 1 15.7242 3.14484 15.7242 -8.94963
271 1 17.2966 4.71726 17.2966 -8.94963
272 1 18.8691 3.14484 15.7242 -8.94963
273 1 20.4415 4.71726 17.2966 -8.94963
274 1 22.0139 6.28969 15.7242 -8.94963
275 1 1.57242 7.86211 17.2966 -8.94963
276 1 3.14484 6.28969 15.7242 -8.94964
277 1 4.71726 7.86211 17.2966 -8.94965
278 1 6.28965 6.28965 15.7242 -8.94901
279 1 7.8621 7.8621 17.2967 -8.94981
280 1 9.43454 6.28972 15.7242 -8.95078
281 1 11.0069 7.86215 17.2966 -8.95076
282 1 12.5794 6.28966 15.7242 -8.94987
283 1 14.1518 7.86207 17.2967 -8.94901
284 1 15.7242 6.28969 15.7242 -8.94964
285 1 17.2966 7.86211 17.2966 -8.94964
286 1 18.8691 6.28969 15.7242 -8.94963
287 1 20.4415 7.86211 17.2966 -8.94963
288 1 22.0139 9.43453 15.7242 -8.94963
289 1 3.14484 9.43453 15.7242 -8.94964
290 1 6.28964 9.43448 15.7243 -8.94928
291 1 9.43402 9.43399 15.7246 -8.94211
292 1 12.5808 9.43312 15.7256 -8.92512
293 1 15.7242 9.43452 15.7242 -8.94994
294 1 18.8691 9.43453 15.7242 -8.94964
295 1 1.18496e-11 1.90772e-16 18.8691 -8.94963
296 1 1.57242 1.57242 20.4415 -8.94963
297 1 3.14484 -3.22124e-17 18.8691 -8.94963
298 1 4.71726 1.57242 20.4415 -8.94963
299 1 6.28969 5.99636e-16 18.8691 -8.94963
300 1 7.86211 1.57242 20.4415 -8.94963
301 1 9.43453 5.53854e-16 18.8691 -8.94963
302 1 11.007 1.57242 20.4415 -8.94963
303 1 12.5794 3.30746e-16 18.8691 -8.94963
304 1 14.1518 1.57242 20.4415 -8.94963
305 1 15.7242 1.12523e-16 18.8691 -8.94963
306 1 17.2966 1.57242 20.4415 -8.94963
307 1 18.8691 -2.40255e-17 18.8691 -8.94963
308 1 20.4415 1.57242 20.4415 -8.94963
309 1 22.0139 3.14484 18.8691 -8.94963
310 1 1.57242 4.71726 20.4415 -8.94963
311 1 3.14484 3.14484 18.8691 -8.94963
312 1 4.71726 4.71726 20.4415 -8.94963
313 1 6.28969 3.14484 18.8691 -8.94963
314 1 7.86211 4.71726 20.4415 -8.94963
315 1 9.43453 3.14484 18.8691 -8.94963
316 1 11.007 4.71726 20.4415 -8.94963
317 1 12.5794 3.14484 18.8691 -8.94963
318 1 14.1518 4.71726 20.4415 -8.94963
319 1 15.7242 3.14484 18.8691 -8.94963
320 1 17.2966 4.71726 20.4415 -8.94963
321 1 18.8691 3.14484 18.8691 -8.94963
322 1 20.4415 4.71726 20.4415 -8.94963
323 1 22.0139 6.28969 18.8691 -8.94963
324 1 1.57242 7.86211 20.4415 -8.94963
325 1 3.14484 6.28969 18.8691 -8.94963
326 1 4.71726 7.86211 20.4415 -8.94963
327 1 6.28969 6.28969 18.8691 -8.94963
328 1 7.86211 7.86211 20.4415 -8.94963
329 1 9.43453 6.28969 18.8691 -8.94964
330 1 11.007 7.86211 20.4415 -8.94964
331 1 12.5794 6.28969 18.8691 -8.94969
332 1 14.1518 7.86211 20.4415 -8.94963
333 1 15.7242 6.28969 18.8691 -8.94962
334 1 17.2966 7.86211 20.4415 -8.94963
335 1 18.8691 6.28969 18.8691 -8.94963
336 1 20.4415 7.86211 20.4415 -8.94963
337 1 2.05672e-09 9.43453 18.8691 -8.94963
338 1 3.14484 9.43453 18.8691 -8.94964
339 1 6.28969 9.43453 18.8691 -8.94965
340 1 9.43451 9.43451 18.8691 -8.94943
341 1 12.5794 9.43451 18.8691 -8.9497
342 1 15.7242 9.43453 18.8691 -8.94969
343 1 18.8691 9.43453 18.8691 -8.94963
344 1 1.57242 11.007 1.57242 -8.94963
345 1 4.71726 11.007 1.57242 -8.94963
346 1 7.86211 11.007 1.57242 -8.94965
347 1 11.007 11.007 1.57239 -8.9501
348 1 14.1518 11.007 1.57242 -8.94963
349 1 17.2966 11.007 1.57242 -8.94963
350 1 20.4415 11.007 1.57242 -8.94963
351 1 22.0139 12.5794 1.95182e-16 -8.94963
352 1 1.57242 14.1518 1.57242 -8.94963
353 1 3.14484 12.5794 3.98184e-16 -8.94963
354 1 4.71726 14.1518 1.57242 -8.94963
355 1 6.28969 12.5794 2.46998e-16 -8.94963
356 1 7.86211 14.1518 1.57242 -8.94963
357 1 9.43453 12.5794 6.30162e-16 -8.94964
358 1 11.007 14.1518 1.57242 -8.94964
359 1 12.5794 12.5794 2.18564e-17 -8.94964
360 1 14.1518 14.1518 1.57242 -8.94963
361 1 15.7242 12.5794 -1.26452e-16 -8.94963
362 1 17.2966 14.1518 1.57242 -8.94963
363 1 18.8691 12.5794 2.82051e-16 -8.94963
364 1 20.4415 14.1518 1.57242 -8.94963
365 1 22.0139 15.7242 4.09945e-16 -8.94963
366 1 1.57242 17.2966 1.57242 -8.94963
367 1 3.14484 15.7242 6.95672e-16 -8.94963
368 1 4.71726 17.2966 1.57242 -8.94963
369 1 6.28969 15.7242 4.8394e-16 -8.94963
370 1 7.86211 17.2966 1.57242 -8.94963
371 1 9.43453 15.7242 2.7572e-16 -8.94963
372 1 11.007 17.2966 1.57242 -8.94963
373 1 12.5794 15.7242 1.43963e-16 -8.94963
374 1 14.1518 17.2966 1.57242 -8.94963
375 1 15.7242 15.7242 -1.12218e-16 -8.94963
376 1 17.2966 17.2966 1.57242 -8.94963
377 1 18.8691 15.7242 3.25973e-16 -8.94963
378 1 20.4415 17.2966 1.57242 -8.94963
379 1 22.0139 18.8691 3.52283e-16 -8.94963
380 1 1.57242 20.4415 1.57242 -8.94963
381 1 3.14484 18.8691 3.41785e-16 -8.94963
382 1 4.71726 20.4415 1.57242 -8.94963
383 1 6.28969 18.8691 6.03556e-16 -8.94963
384 1 7.86211 20.4415 1.57242 -8.94963
385 1 9.43453 18.8691 2.13022e-16 -8.94963
386 1 11.007 20.4415 1.57242 -8.94963
387 1 12.5794 18.8691 1.15146e-16 -8.94963
388 1 14.1518 20.4415 1.57242 -8.94963
389 1 15.7242 18.8691 1.07327e-17 -8.94963
390 1 17.2966 20.4415 1.57242 -8.94963
391 1 18.8691 18.8691 4.5189e-16 -8.94963
392 1 20.4415 20.4415 1.57242 -8.94963
393 1 1.57242 11.007 4.71726 -8.94963
394 1 4.71727 11.007 4.71727 -8.94969
395 1 7.86213 11.007 4.71725 -8.95073
396 1 11.007 11.007 4.71552 -8.96452
397 1 14.1517 11.007 4.71731 -8.95122
398 1 17.2966 11.007 4.71726 -8.94962
399 1 20.4415 11.007 4.71726 -8.94963
400 1 2.05672e-09 12.5794 3.14484 -8.94963
401 1 1.57242 14.1518 4.71726 -8.94963
402 1 3.14484 12.5794 3.14484 -8.94964
403 1 4.71726 14.1518 4.71726 -8.94965
404 1 6.28969 12.5794 3.14484 -8.94965
405 1 7.8621 14.1518 4.71723 -8.94981
406 1 9.43451 12.5794 3.14482 -8.94943
407 1 11.0069 14.1518 4.7173 -8.95076
408 1 12.5794 12.5794 3.1448 -8.9497
409 1 14.1518 14.1518 4.71723 -8.94901
410 1 15.7242 12.5794 3.14484 -8.94969
411 1 17.2966 14.1518 4.71726 -8.94964
412 1 18.8691 12.5794 3.14484 -8.94963
413 1 20.4415 14.1518 4.71726 -8.94963
414 1 22.0139 15.7242 3.14484 -8.94963
415 1 1.57242 17.2966 4.71726 -8.94963
416 1 3.14484 15.7242 3.14484 -8.94963
417 1 4.71726 17.2966 4.71726 -8.94962
418 1 6.28969 15.7242 3.14484 -8.94963
419 1 7.86211 17.2966 4.71727 -8.94969
420 1 9.43453 15.7242 3.14484 -8.94964
421 1 11.0069 17.2966 4.71726 -8.94964
422 1 12.5794 15.7242 3.14484 -8.94969
423 1 14.1518 17.2966 4.71726 -8.94963
424 1 15.7242 15.7242 3.14484 -8.94962
425 1 17.2966 17.2966 4.71726 -8.94963
426 1 18.8691 15.7242 3.14484 -8.94963
427 1 20.4415 17.2966 4.71726 -8.94963
428 1 22.0139 18.8691 3.14484 -8.94963
429 1 1.57242 20.4415 4.71726 -8.94963
430 1 3.14484 18.8691 3.14484 -8.94963
431 1 4.71726 20.4415 4.71726 -8.94963
432 1 6.28969 18.8691 3.14484 -8.94963
433 1 7.86211 20.4415 4.71726 -8.94963
434 1 9.43453 18.8691 3.14484 -8.94963
435 1 11.007 20.4415 4.71726 -8.94963
436 1 12.5794 18.8691 3.14484 -8.94963
437 1 14.1518 20.4415 4.71726 -8.94963
438 1 15.7242 18.8691 3.14484 -8.94963
439 1 17.2966 20.4415 4.71726 -8.94963
440 1 18.8691 18.8691 3.14484 -8.94963
441 1 20.4415 20.4415 4.71726 -8.94963
442 1 1.57242 11.007 7.86211 -8.94965
443 1 4.7172 11.007 7.8621 -8.95025
444 1 7.8592 11.007 7.85985 -8.91102
445 1 11.0442 11.007 7.78583 -7.9615
446 1 14.1526 11.007 7.86207 -8.95911
447 1 17.2967 11.007 7.86211 -8.94983
448 1 20.4415 11.007 7.86211 -8.94964
449 1 22.0139 12.5794 6.28969 -8.94963
450 1 1.57242 14.1518 7.86211 -8.94964
451 1 3.14484 12.5794 6.28969 -8.94964
452 1 4.71724 14.1518 7.8621 -8.9499
453 1 6.28964 12.5794 6.28965 -8.94928
454 1 7.86072 14.1531 7.86069 -8.92516
455 1 9.43402 12.5799 6.28933 -8.94211
456 1 11.0074 14.1521 7.86162 -8.94283
457 1 12.5808 12.5808 6.28833 -8.92512
458 1 14.1519 14.1519 7.86203 -8.94866
459 1 15.7242 12.5794 6.28968 -8.94994
460 1 17.2966 14.1518 7.86211 -8.94964
461 1 18.8691 12.5794 6.28969 -8.94964
462 1 20.4415 14.1518 7.86211 -8.94963
463 1 22.0139 15.7242 6.28969 -8.94963
464 1 1.57242 17.2966 7.86211 -8.94963
465 1 3.14484 15.7242 6.28969 -8.94964
466 1 4.71727 17.2966 7.86211 -8.94967
467 1 6.28965 15.7242 6.28965 -8.94901
468 1 7.86209 17.2967 7.86209 -8.94975
469 1 9.43454 15.7242 6.28973 -8.95078
470 1 11.007 17.2967 7.86209 -8.94944
471 1 12.5794 15.7242 6.28968 -8.94987
472 1 14.1518 17.2966 7.86211 -8.94965
473 1 15.7242 15.7242 6.28968 -8.94964
474 1 17.2966 17.2966 7.86211 -8.94964
475 1 18.8691 15.7242 6.28969 -8.94963
476 1 20.4415 17.2966 7.86211 -8.94963
477 1 5.67759e-10 18.8691 6.28969 -8.94963
478 1 1.57242 20.4415 7.86211 -8.94963
479 1 3.14484 18.8691 6.28969 -8.94963
480 1 4.71726 20.4415 7.86211 -8.94963
481 1 6.28969 18.8691 6.28969 -8.94963
482 1 7.86211 20.4415 7.86211 -8.94964
483 1 9.43453 18.8691 6.28969 -8.94964
484 1 11.007 20.4415 7.86211 -8.94963
485 1 12.5794 18.8691 6.28969 -8.94963
486 1 14.1518 20.4415 7.86211 -8.94963
487 1 15.7242 18.8691 6.28969 -8.94963
488 1 17.2966 20.4415 7.86211 -8.94963
489 1 18.8691 18.8691 6.28969 -8.94963
490 1 20.4415 20.4415 7.86211 -8.94963
491 1 22.0139 12.5794 9.43453 -8.94964
492 1 3.14483 12.5794 9.43453 -8.94984
493 1 6.28882 12.5795 9.43449 -8.95709
494 1 9.39717 12.6554 9.43431 -7.93261
495 1 12.5836 12.5829 9.4332 -8.89166
496 1 15.7243 12.5794 9.43452 -8.95035
497 1 18.8691 12.5794 9.43453 -8.94965
498 1 22.0139 15.7242 9.43453 -8.94963
499 1 3.14484 15.7242 9.43453 -8.94963
500 1 6.2897 15.7242 9.4345 -8.9506
501 1 9.43451 15.7259 9.43457 -8.96546
502 1 12.5794 15.7243 9.43452 -8.95087
503 1 15.7242 15.7242 9.43453 -8.94971
504 1 18.8691 15.7242 9.43453 -8.94963
505 1 22.0139 18.8691 9.43453 -8.94963
506 1 3.14484 18.8691 9.43453 -8.94963
507 1 6.28969 18.8691 9.43453 -8.94963
508 1 9.43453 18.8691 9.43453 -8.95009
509 1 12.5794 18.8691 9.43453 -8.94965
510 1 15.7242 18.8691 9.43453 -8.94963
511 1 18.8691 18.8691 9.43453 -8.94963
688 3 10.2153 11.007 9.42877 4.0932
512 1 1.57242 11.007 11.007 -8.94966
513 1 4.71712 11.007 11.007 -8.95075
514 1 7.85617 11.007 11.007 -8.8693
515 1 11.0912 11.007 11.007 -6.69043
516 1 14.1537 11.007 11.007 -8.9642
517 1 17.2967 11.007 11.007 -8.9501
518 1 20.4415 11.007 11.007 -8.94964
519 1 1.57242 14.1518 11.007 -8.94964
520 1 4.71721 14.1518 11.007 -8.95013
521 1 7.85935 14.1544 11.007 -8.90062
522 1 11.008 14.1525 11.007 -8.93497
523 1 14.1519 14.1519 11.007 -8.94926
524 1 17.2966 14.1518 11.007 -8.94965
525 1 20.4415 14.1518 11.007 -8.94963
526 1 1.57242 17.2966 11.007 -8.94963
527 1 4.71727 17.2966 11.007 -8.94974
528 1 7.86207 17.2967 11.007 -8.94975
529 1 11.007 17.2967 11.007 -8.94923
530 1 14.1518 17.2966 11.007 -8.94968
531 1 17.2966 17.2966 11.007 -8.94964
532 1 20.4415 17.2966 11.007 -8.94963
533 1 1.57242 20.4415 11.007 -8.94963
534 1 4.71726 20.4415 11.007 -8.94963
535 1 7.86211 20.4415 11.007 -8.94964
536 1 11.007 20.4415 11.007 -8.94964
537 1 14.1518 20.4415 11.007 -8.94963
538 1 17.2966 20.4415 11.007 -8.94963
539 1 20.4415 20.4415 11.007 -8.94963
540 1 1.57242 11.007 14.1518 -8.94965
541 1 4.7172 11.007 14.1518 -8.95025
542 1 7.8592 11.007 14.154 -8.91102
543 1 11.0442 11.007 14.2281 -7.9615
544 1 14.1526 11.007 14.1518 -8.95911
545 1 17.2967 11.007 14.1518 -8.94983
546 1 20.4415 11.007 14.1518 -8.94964
547 1 22.0139 12.5794 12.5794 -8.94964
548 1 1.57242 14.1518 14.1518 -8.94964
549 1 3.14483 12.5794 12.5794 -8.94984
550 1 4.71724 14.1518 14.1518 -8.9499
551 1 6.28882 12.5795 12.5794 -8.95709
552 1 7.86072 14.1531 14.1532 -8.92516
553 1 9.39717 12.6554 12.5796 -7.93261
554 1 11.0074 14.1521 14.1523 -8.94283
555 1 12.5836 12.5829 12.5807 -8.89166
556 1 14.1519 14.1519 14.1519 -8.94866
557 1 15.7243 12.5794 12.5794 -8.95035
558 1 17.2966 14.1518 14.1518 -8.94964
559 1 18.8691 12.5794 12.5794 -8.94965
560 1 20.4415 14.1518 14.1518 -8.94963
561 1 22.0139 15.7242 12.5794 -8.94963
562 1 1.57242 17.2966 14.1518 -8.94963
563 1 3.14484 15.7242 12.5794 -8.94963
564 1 4.71727 17.2966 14.1518 -8.94967
565 1 6.2897 15.7242 12.5794 -8.9506
566 1 7.86209 17.2967 14.1518 -8.94975
567 1 9.43451 15.7259 12.5793 -8.96546
568 1 11.007 17.2967 14.1518 -8.94944
569 1 12.5794 15.7243 12.5794 -8.95087
570 1 14.1518 17.2966 14.1518 -8.94965
571 1 15.7242 15.7242 12.5794 -8.94971
572 1 17.2966 17.2966 14.1518 -8.94964
573 1 18.8691 15.7242 12.5794 -8.94963
574 1 20.4415 17.2966 14.1518 -8.94963
575 1 22.0139 18.8691 12.5794 -8.94963
576 1 1.57242 20.4415 14.1518 -8.94963
577 1 3.14484 18.8691 12.5794 -8.94963
578 1 4.71726 20.4415 14.1518 -8.94963
579 1 6.28969 18.8691 12.5794 -8.94963
580 1 7.86211 20.4415 14.1518 -8.94964
581 1 9.43453 18.8691 12.5794 -8.95009
582 1 11.007 20.4415 14.1518 -8.94963
583 1 12.5794 18.8691 12.5794 -8.94965
584 1 14.1518 20.4415 14.1518 -8.94963
585 1 15.7242 18.8691 12.5794 -8.94963
586 1 17.2966 20.4415 14.1518 -8.94963
587 1 18.8691 18.8691 12.5794 -8.94963
588 1 20.4415 20.4415 14.1518 -8.94963
589 1 1.57242 11.007 17.2966 -8.94963
590 1 4.71727 11.007 17.2966 -8.94969
591 1 7.86213 11.007 17.2967 -8.95073
592 1 11.007 11.007 17.2984 -8.96452
593 1 14.1517 11.007 17.2966 -8.95122
594 1 17.2966 11.007 17.2966 -8.94962
595 1 20.4415 11.007 17.2966 -8.94963
596 1 22.0139 12.5794 15.7242 -8.94963
597 1 1.57242 14.1518 17.2966 -8.94963
598 1 3.14484 12.5794 15.7242 -8.94964
599 1 4.71726 14.1518 17.2966 -8.94965
600 1 6.28964 12.5794 15.7243 -8.94928
601 1 7.8621 14.1518 17.2967 -8.94981
602 1 9.43402 12.5799 15.7246 -8.94211
603 1 11.0069 14.1518 17.2966 -8.95076
604 1 12.5808 12.5808 15.7256 -8.92512
605 1 14.1518 14.1518 17.2967 -8.94901
606 1 15.7242 12.5794 15.7242 -8.94994
607 1 17.2966 14.1518 17.2966 -8.94964
608 1 18.8691 12.5794 15.7242 -8.94964
609 1 20.4415 14.1518 17.2966 -8.94963
610 1 22.0139 15.7242 15.7242 -8.94963
611 1 1.57242 17.2966 17.2966 -8.94963
612 1 3.14484 15.7242 15.7242 -8.94964
613 1 4.71726 17.2966 17.2966 -8.94962
614 1 6.28965 15.7242 15.7242 -8.94901
615 1 7.86211 17.2966 17.2966 -8.94969
616 1 9.43454 15.7242 15.7242 -8.95078
617 1 11.0069 17.2966 17.2966 -8.94964
618 1 12.5794 15.7242 15.7242 -8.94987
619 1 14.1518 17.2966 17.2966 -8.94963
620 1 15.7242 15.7242 15.7242 -8.94964
621 1 17.2966 17.2966 17.2966 -8.94963
622 1 18.8691 15.7242 15.7242 -8.94963
623 1 20.4415 17.2966 17.2966 -8.94963
624 1 5.67759e-10 18.8691 15.7242 -8.94963
625 1 1.57242 20.4415 17.2966 -8.94963
626 1 3.14484 18.8691 15.7242 -8.94963
627 1 4.71726 20.4415 17.2966 -8.94963
628 1 6.28969 18.8691 15.7242 -8.94963
629 1 7.86211 20.4415 17.2966 -8.94963
630 1 9.43453 18.8691 15.7242 -8.94964
631 1 11.007 20.4415 17.2966 -8.94963
632 1 12.5794 18.8691 15.7242 -8.94963
633 1 14.1518 20.4415 17.2966 -8.94963
634 1 15.7242 18.8691 15.7242 -8.94963
635 1 17.2966 20.4415 17.2966 -8.94963
636 1 18.8691 18.8691 15.7242 -8.94963
637 1 20.4415 20.4415 17.2966 -8.94963
638 1 1.57242 11.007 20.4415 -8.94963
639 1 4.71726 11.007 20.4415 -8.94963
640 1 7.86211 11.007 20.4415 -8.94965
641 1 11.007 11.007 20.4415 -8.9501
642 1 14.1518 11.007 20.4415 -8.94963
643 1 17.2966 11.007 20.4415 -8.94963
644 1 20.4415 11.007 20.4415 -8.94963
645 1 2.05672e-09 12.5794 18.8691 -8.94963
646 1 1.57242 14.1518 20.4415 -8.94963
647 1 3.14484 12.5794 18.8691 -8.94964
648 1 4.71726 14.1518 20.4415 -8.94963
649 1 6.28969 12.5794 18.8691 -8.94965
650 1 7.86211 14.1518 20.4415 -8.94963
651 1 9.43451 12.5794 18.8691 -8.94943
652 1 11.007 14.1518 20.4415 -8.94964
653 1 12.5794 12.5794 18.8691 -8.9497
654 1 14.1518 14.1518 20.4415 -8.94963
655 1 15.7242 12.5794 18.8691 -8.94969
656 1 17.2966 14.1518 20.4415 -8.94963
657 1 18.8691 12.5794 18.8691 -8.94963
658 1 20.4415 14.1518 20.4415 -8.94963
659 1 22.0139 15.7242 18.8691 -8.94963
660 1 1.57242 17.2966 20.4415 -8.94963
661 1 3.14484 15.7242 18.8691 -8.94963
662 1 4.71726 17.2966 20.4415 -8.94963
663 1 6.28969 15.7242 18.8691 -8.94963
664 1 7.86211 17.2966 20.4415 -8.94963
665 1 9.43453 15.7242 18.8691 -8.94964
666 1 11.007 17.2966 20.4415 -8.94963
667 1 12.5794 15.7242 18.8691 -8.94969
668 1 14.1518 17.2966 20.4415 -8.94963
669 1 15.7242 15.7242 18.8691 -8.94962
670 1 17.2966 17.2966 20.4415 -8.94963
671 1 18.8691 15.7242 18.8691 -8.94963
672 1 20.4415 17.2966 20.4415 -8.94963
673 1 22.0139 18.8691 18.8691 -8.94963
674 1 1.57242 20.4415 20.4415 -8.94963
675 1 3.14484 18.8691 18.8691 -8.94963
676 1 4.71726 20.4415 20.4415 -8.94963
677 1 6.28969 18.8691 18.8691 -8.94963
678 1 7.86211 20.4415 20.4415 -8.94963
679 1 9.43453 18.8691 18.8691 -8.94963
680 1 11.007 20.4415 20.4415 -8.94963
681 1 12.5794 18.8691 18.8691 -8.94963
682 1 14.1518 20.4415 20.4415 -8.94963
683 1 15.7242 18.8691 18.8691 -8.94963
684 1 17.2966 20.4415 20.4415 -8.94963
685 1 18.8691 18.8691 18.8691 -8.94963
686 1 20.4415 20.4415 20.4415 -8.94963
687 3 10.2153 11.007 12.5851 4.0932
