ITEM: TIMESTEP
67
ITEM: NUMBER OF ATOMS
688
ITEM: BOX BOUNDS pp pp pp
0.0000000000000000e+00 2.2013900999999997e+01
0.0000000000000000e+00 2.2013900999999997e+01
0.0000000000000000e+00 2.2013900999999997e+01
ITEM: ATOMS id type x y z c_pot
1 1 22.0137 8.18927e-16 7.64683e-16 -8.94919
2 1 1.57199 1.57211 1.57211 -8.94914
3 1 3.14463 1.75284e-15 9.36658e-16 -8.94968
4 1 4.71699 1.57207 1.57207 -8.9496
5 1 6.28956 1.25929e-15 5.48818e-16 -8.94952
6 1 7.86199 1.57202 1.57205 -8.94948
7 1 9.4345 1.19019e-15 9.79932e-17 -8.94956
8 1 11.007 1.57198 1.57205 -8.94952
9 1 12.5795 1.14307e-15 4.95679e-16 -8.94954
10 1 14.152 1.57199 1.57212 -8.94948
11 1 15.7244 1.52175e-15 -5.28491e-16 -8.94958
12 1 17.2971 1.57194 1.57211 -8.94953
13 1 18.8693 5.35678e-16 1.2898e-15 -8.94935
14 1 20.4416 1.57221 1.57232 -8.94939
15 1 22.0139 3.14465 1.7917e-15 -8.94962
16 1 1.57215 4.7171 1.5721 -8.94989
17 1 3.14425 3.14429 1.51335e-15 -8.94948
18 1 4.71619 4.71631 1.57115 -8.94998
19 1 6.28939 3.14427 6.49071e-16 -8.94938
20 1 7.86161 4.71619 1.5714 -8.94907
21 1 9.43441 3.14411 7.29306e-16 -8.94948
22 1 11.0069 4.716 1.57144 -8.9493
23 1 12.5795 3.14412 1.03492e-15 -8.94939
24 1 14.1523 4.71588 1.5714 -8.94977
25 1 15.7246 3.1441 1.4264e-16 -8.94974
26 1 17.2982 4.71571 1.57145 -8.94823
27 1 18.8697 3.14421 1.5335e-15 -8.94888
28 1 20.442 4.71689 1.57215 -8.94954
29 1 22.014 6.28957 1.90194e-15 -8.9495
30 1 1.57221 7.86207 1.57214 -8.9494
31 1 3.14455 6.28975 1.56057e-15 -8.94982
32 1 4.71687 7.86248 1.57197 -8.94967
33 1 6.28902 6.28927 1.3557e-15 -8.95132
34 1 7.86167 7.86206 1.57086 -8.95254
35 1 9.43392 6.28859 9.66689e-16 -8.9496
36 1 11.0062 7.86103 1.57019 -8.95093
37 1 12.5794 6.28856 1.18269e-15 -8.94975
38 1 14.1536 7.86022 1.56915 -8.95219
39 1 15.7257 6.2881 1.38029e-15 -8.95022
40 1 17.2983 7.86125 1.57139 -8.94903
41 1 18.8699 6.28919 1.75154e-15 -8.94944
42 1 20.442 7.86189 1.5721 -8.94946
43 1 22.014 9.43447 1.86799e-15 -8.94956
44 1 3.1444 9.43452 1.58318e-15 -8.94953
45 1 6.28928 9.43486 1.6084e-15 -8.94922
46 1 9.43407 9.43474 1.82092e-15 -8.94851
47 1 12.5795 9.43433 2.72436e-16 -8.95328
48 1 15.726 9.4339 1.0497e-15 -8.94912
49 1 18.87 9.43435 1.50605e-15 -8.94945
50 1 -0.000239983 8.22247e-16 3.14464 -8.94937
51 1 1.57169 1.57197 4.71668 -8.94913
52 1 3.14431 1.24038e-15 3.14426 -8.94962
53 1 4.71638 1.57132 4.71616 -8.95005
54 1 6.2895 1.80978e-15 3.14428 -8.94949
55 1 7.86197 1.57139 4.71629 -8.94945
56 1 9.43455 1.48072e-15 3.14424 -8.94952
57 1 11.0072 1.57139 4.71632 -8.94947
58 1 12.5796 1.56782e-15 3.14431 -8.94946
59 1 14.1523 1.57133 4.71666 -8.95046
60 1 15.7246 1.32378e-15 3.14446 -8.94995
61 1 17.2972 1.57184 4.71693 -8.94952
62 1 18.8693 8.21005e-16 3.14467 -8.94952
63 1 20.4414 1.57218 4.7171 -8.94956
64 1 22.0136 3.14448 3.14444 -8.94958
65 1 1.57099 4.71644 4.71617 -8.94992
66 1 3.14349 3.14363 3.14343 -8.94824
67 1 4.71278 4.71306 4.71231 -8.94472
68 1 6.28912 3.14365 3.14362 -8.94943
69 1 7.86089 4.71383 4.7141 -8.94818
70 1 9.43443 3.14353 3.1437 -8.94936
71 1 11.0073 4.71384 4.71434 -8.94761
72 1 12.5797 3.14347 3.14383 -8.94909
73 1 14.1548 4.71214 4.71378 -8.94984
74 1 15.7254 3.14309 3.14369 -8.94947
75 1 17.2986 4.71531 4.71605 -8.94884
76 1 18.8696 3.14418 3.14448 -8.94941
77 1 20.4418 4.71672 4.71686 -8.94981
78 1 22.014 6.28949 3.14444 -8.94972
79 1 1.57179 7.86221 4.7166 -8.94959
80 1 3.14397 6.2896 3.14389 -8.95036
81 1 4.71544 7.86274 4.71561 -8.95136
82 1 6.28729 6.28767 3.14054 -8.95143
83 1 7.85765 7.8578 4.70783 -8.95785
84 1 9.43364 6.28725 3.14155 -8.94795
85 1 11.0067 7.85747 4.70758 -8.95279
86 1 12.5802 6.28699 3.14107 -8.9497
87 1 14.1652 7.84949 4.70241 -8.93299
88 1 15.7287 6.28524 3.14038 -8.94507
89 1 17.3015 7.85977 4.71464 -8.95022
90 1 18.8707 6.28869 3.1439 -8.94957
91 1 20.4426 7.86169 4.71663 -8.94995
92 1 0.000131872 9.43443 3.14431 -8.94953
93 1 3.14413 9.43461 3.14399 -8.94899
94 1 6.28954 9.43571 3.14451 -8.94931
95 1 9.43479 9.43486 3.1444 -8.94863
96 1 12.5822 9.43313 3.13543 -8.96016
97 1 15.7284 9.433 3.14068 -8.94744
98 1 18.8708 9.43416 3.1438 -8.94928
99 1 22.0136 1.25438e-15 6.28949 -8.94955
100 1 1.57154 1.57187 7.86174 -8.94944
101 1 3.14386 1.64854e-15 6.28893 -8.94936
102 1 4.71565 1.57052 7.86096 -8.94974
103 1 6.28927 1.34407e-15 6.28888 -8.95045
104 1 7.862 1.57029 7.86143 -8.9511
105 1 9.43476 1.68236e-15 6.28889 -8.95005
106 1 11.0073 1.57108 7.8616 -8.94955
107 1 12.5797 1.50905e-15 6.28924 -8.95017
108 1 14.1525 1.57118 7.86186 -8.95045
109 1 15.7248 1.72146e-15 6.28942 -8.9499
110 1 17.2971 1.57199 7.86212 -8.94959
111 1 18.8692 9.05617e-16 6.28963 -8.94963
112 1 20.4414 1.57216 7.86201 -8.94952
113 1 -0.000684207 3.14424 6.28924 -8.94942
114 1 1.56983 4.71574 7.86098 -8.94935
115 1 3.1426 3.14282 6.28791 -8.94773
116 1 4.71007 4.71034 7.85688 -8.9417
117 1 6.28791 3.14088 6.28742 -8.95159
118 1 7.85898 4.70744 7.85911 -8.95823
119 1 9.43466 3.14155 6.28788 -8.94996
120 1 11.0067 4.71252 7.86008 -8.95111
121 1 12.58 3.14176 6.28867 -8.95186
122 1 14.1553 4.71175 7.85989 -8.94845
123 1 15.7256 3.14273 6.28889 -8.94925
124 1 17.2981 4.71588 7.86201 -8.94976
125 1 18.8695 3.14423 6.28953 -8.94968
126 1 20.4414 4.7166 7.8619 -8.94972
127 1 22.0132 6.28927 6.28915 -8.95035
128 1 1.56972 7.86205 7.8615 -8.95176
129 1 3.14045 6.28794 6.28718 -8.95156
130 1 4.70622 7.85938 7.85884 -8.95992
131 1 6.27559 6.27637 6.27485 -8.9315
132 1 7.818 7.82278 7.82325 -8.85957
133 1 9.43297 6.28037 6.28283 -8.94718
134 1 11.0228 7.84636 7.831 -8.89705
135 1 12.5864 6.2775 6.28009 -8.95196
136 1 14.1677 7.84943 7.85139 -8.93496
137 1 15.7302 6.28439 6.28597 -8.94625
138 1 17.3013 7.8604 7.86163 -8.95208
139 1 18.8708 6.28864 6.28918 -8.95013
140 1 20.442 7.86177 7.86198 -8.95049
141 1 22.0139 9.43453 6.28907 -8.94977
142 1 3.14327 9.43541 6.2886 -8.94906
143 1 6.28775 9.43855 6.28967 -8.95068
144 1 9.42601 9.4169 6.29049 -8.91613
145 1 12.6196 9.40284 6.24643 -8.88094
146 1 15.7367 9.43092 6.28329 -8.95455
147 1 18.8724 9.43401 6.28876 -8.95112
148 1 -0.0003745 1.50048e-15 9.43445 -8.94955
149 1 3.14374 1.67389e-15 9.43425 -8.94935
150 1 6.28879 1.63132e-15 9.43409 -8.95124
151 1 9.435 1.4914e-15 9.43416 -8.94903
152 1 12.5799 1.58988e-15 9.43449 -8.95022
153 1 15.7248 1.79749e-15 9.43457 -8.9495
154 1 18.8693 1.34784e-15 9.4345 -8.94955
155 1 22.0132 3.14416 9.43436 -8.94943
156 1 3.14243 3.14266 9.43385 -8.94906
157 1 6.28617 3.13809 9.43298 -8.95139
158 1 9.43483 3.14172 9.43365 -8.94678
159 1 12.5802 3.14209 9.43421 -8.95178
160 1 15.7251 3.14362 9.43472 -8.94943
161 1 18.8694 3.14421 9.43451 -8.94943
162 1 22.0122 6.2889 9.43424 -8.95047
163 1 3.137 6.28592 9.4326 -8.9502
164 1 6.26698 6.2678 9.42202 -8.91905
165 1 9.43012 6.28607 9.432 -9.00809
166 1 12.5859 6.27893 9.42653 -8.94645
167 1 15.7276 6.28716 9.43469 -8.94876
168 1 18.8701 6.28873 9.43464 -8.94964
169 1 22.0131 9.43477 9.43435 -8.94957
170 1 3.14142 9.43586 9.434 -8.9502
171 1 6.28174 9.43002 9.43512 -8.96845
172 1 9.35822 9.16259 9.44505 -8.05676
173 1 12.5958 9.40779 9.38468 -8.82849
174 1 15.7286 9.43412 9.43263 -8.95277
175 1 18.8706 9.4344 9.43474 -8.94977
176 1 1.5715 1.57184 11.007 -8.94945
177 1 4.71551 1.57043 11.007 -8.94924
178 1 7.86193 1.56944 11.007 -8.95325
179 1 11.0072 1.5713 11.007 -8.94949
180 1 14.1525 1.5717 11.007 -8.94908
181 1 17.2972 1.57197 11.007 -8.94951
182 1 20.4414 1.57213 11.007 -8.94956
183 1 1.56971 4.71566 11.007 -8.94907
184 1 4.71032 4.71052 11.007 -8.94566
185 1 7.85671 4.70135 11.007 -8.96656
186 1 11.0068 4.71338 11.007 -8.95462
187 1 14.1531 4.71558 11.007 -8.94733
188 1 17.2979 4.71596 11.007 -8.94864
189 1 20.4413 4.71649 11.007 -8.94953
190 1 1.56784 7.86172 11.007 -8.95403
191 1 4.69703 7.85569 11.007 -8.96625
192 1 7.77688 7.79003 11.007 -8.74013
193 1 11.054 7.84268 11.007 -8.83631
194 1 14.1584 7.86246 11.007 -8.9663
195 1 17.2989 7.86133 11.007 -8.95042
196 1 20.4413 7.86174 11.007 -8.95032
197 1 -0.0003745 1.511e-15 12.5794 -8.94955
198 1 1.57154 1.57187 14.1522 -8.94944
199 1 3.14374 1.82052e-15 12.5797 -8.94935
200 1 4.71565 1.57052 14.1529 -8.94974
201 1 6.28879 1.73658e-15 12.5798 -8.95124
202 1 7.862 1.57029 14.1525 -8.9511
203 1 9.435 1.49341e-15 12.5797 -8.94903
204 1 11.0073 1.57108 14.1523 -8.94955
205 1 12.5799 1.64181e-15 12.5794 -8.95022
206 1 14.1525 1.57118 14.152 -8.95045
207 1 15.7248 1.64801e-15 12.5793 -8.9495
208 1 17.2971 1.57199 14.1518 -8.94959
209 1 18.8693 1.62004e-15 12.5794 -8.94955
210 1 20.4414 1.57216 14.1519 -8.94952
211 1 22.0132 3.14416 12.5795 -8.94943
212 1 1.56983 4.71574 14.1529 -8.94935
213 1 3.14243 3.14266 12.58 -8.94906
214 1 4.71007 4.71034 14.157 -8.9417
215 1 6.28617 3.13809 12.5809 -8.95139
216 1 7.85898 4.70744 14.1548 -8.95823
217 1 9.43483 3.14172 12.5803 -8.94678
218 1 11.0067 4.71252 14.1538 -8.95111
219 1 12.5802 3.14209 12.5797 -8.95178
220 1 14.1553 4.71175 14.154 -8.94845
221 1 15.7251 3.14362 12.5792 -8.94943
222 1 17.2981 4.71588 14.1519 -8.94976
223 1 18.8694 3.14421 12.5794 -8.94943
224 1 20.4414 4.7166 14.152 -8.94972
225 1 22.0122 6.2889 12.5797 -8.95047
226 1 1.56972 7.86205 14.1524 -8.95176
227 1 3.137 6.28592 12.5813 -8.9502
228 1 4.70622 7.85938 14.1551 -8.95992
229 1 6.26698 6.2678 12.5919 -8.91905
230 1 7.818 7.82278 14.1906 -8.85957
231 1 9.43012 6.28607 12.5819 -9.00809
232 1 11.0228 7.84636 14.1829 -8.89705
233 1 12.5859 6.27893 12.5874 -8.94645
234 1 14.1677 7.84943 14.1625 -8.93496
235 1 15.7276 6.28716 12.5792 -8.94876
236 1 17.3013 7.8604 14.1523 -8.95208
237 1 18.8701 6.28873 12.5793 -8.94964
238 1 20.442 7.86177 14.1519 -8.95049
239 1 22.0131 9.43477 12.5796 -8.94957
240 1 3.14142 9.43586 12.5799 -8.9502
241 1 6.28174 9.43002 12.5788 -8.96845
242 1 9.35822 9.16259 12.5688 -8.05676
243 1 12.5958 9.40779 12.6292 -8.82849
244 1 15.7286 9.43412 12.5813 -8.95277
245 1 18.8706 9.4344 12.5792 -8.94977
246 1 22.0136 1.8015e-15 15.7244 -8.94955
247 1 1.57169 1.57197 17.2972 -8.94913
248 1 3.14386 1.47173e-15 15.725 -8.94936
249 1 4.71638 1.57132 17.2977 -8.95005
250 1 6.28927 1.36254e-15 15.725 -8.95045
251 1 7.86197 1.57139 17.2976 -8.94945
252 1 9.43476 1.59635e-15 15.725 -8.95005
253 1 11.0072 1.57139 17.2976 -8.94947
254 1 12.5797 1.6062e-15 15.7247 -8.95017
255 1 14.1523 1.57133 17.2972 -8.95046
256 1 15.7248 1.78119e-15 15.7245 -8.9499
257 1 17.2972 1.57184 17.297 -8.94952
258 1 18.8692 1.06641e-15 15.7243 -8.94963
259 1 20.4414 1.57218 17.2968 -8.94956
260 1 -0.000684207 3.14424 15.7247 -8.94942
261 1 1.57099 4.71644 17.2977 -8.94992
262 1 3.1426 3.14282 15.726 -8.94773
263 1 4.71278 4.71306 17.3016 -8.94472
264 1 6.28791 3.14088 15.7265 -8.95159
265 1 7.86089 4.71383 17.2998 -8.94818
266 1 9.43466 3.14155 15.726 -8.94996
267 1 11.0073 4.71384 17.2996 -8.94761
268 1 12.58 3.14176 15.7252 -8.95186
269 1 14.1548 4.71214 17.3001 -8.94984
270 1 15.7256 3.14273 15.725 -8.94925
271 1 17.2986 4.71531 17.2978 -8.94884
272 1 18.8695 3.14423 15.7244 -8.94968
273 1 20.4418 4.71672 17.297 -8.94981
274 1 22.0132 6.28927 15.7247 -8.95035
275 1 1.57179 7.86221 17.2973 -8.94959
276 1 3.14045 6.28794 15.7267 -8.95156
277 1 4.71544 7.86274 17.2983 -8.95136
278 1 6.27559 6.27637 15.7391 -8.9315
279 1 7.85765 7.8578 17.3061 -8.95785
280 1 9.43297 6.28037 15.7311 -8.94718
281 1 11.0067 7.85747 17.3063 -8.95279
282 1 12.5864 6.2775 15.7338 -8.95196
283 1 14.1652 7.84949 17.3115 -8.93299
284 1 15.7302 6.28439 15.7279 -8.94625
285 1 17.3015 7.85977 17.2993 -8.95022
286 1 18.8708 6.28864 15.7247 -8.95013
287 1 20.4426 7.86169 17.2973 -8.94995
288 1 22.0139 9.43453 15.7248 -8.94977
289 1 3.14327 9.43541 15.7253 -8.94906
290 1 6.28775 9.43855 15.7242 -8.95068
291 1 9.42601 9.4169 15.7234 -8.91613
292 1 12.6196 9.40284 15.7675 -8.88094
293 1 15.7367 9.43092 15.7306 -8.95455
294 1 18.8724 9.43401 15.7251 -8.95112
295 1 -0.000239983 1.43008e-15 18.8693 -8.94937
296 1 1.57199 1.57211 20.4418 -8.94914
297 1 3.14431 1.45642e-15 18.8696 -8.94962
298 1 4.71699 1.57207 20.4418 -8.9496
299 1 6.2895 1.65759e-15 18.8696 -8.94949
300 1 7.86199 1.57202 20.4418 -8.94948
301 1 9.43455 1.76269e-15 18.8697 -8.94952
302 1 11.007 1.57198 20.4418 -8.94952
303 1 12.5796 1.78701e-15 18.8696 -8.94946
304 1 14.152 1.57199 20.4418 -8.94948
305 1 15.7246 1.83013e-15 18.8694 -8.94995
306 1 17.2971 1.57194 20.4418 -8.94953
307 1 18.8693 7.49222e-16 18.8692 -8.94952
308 1 20.4416 1.57221 20.4416 -8.94939
309 1 22.0136 3.14448 18.8695 -8.94958
310 1 1.57215 4.7171 20.4418 -8.94989
311 1 3.14349 3.14363 18.8705 -8.94824
312 1 4.71619 4.71631 20.4428 -8.94998
313 1 6.28912 3.14365 18.8703 -8.94943
314 1 7.86161 4.71619 20.4425 -8.94907
315 1 9.43443 3.14353 18.8702 -8.94936
316 1 11.0069 4.716 20.4425 -8.9493
317 1 12.5797 3.14347 18.8701 -8.94909
318 1 14.1523 4.71588 20.4425 -8.94977
319 1 15.7254 3.14309 18.8702 -8.94947
320 1 17.2982 4.71571 20.4424 -8.94823
321 1 18.8696 3.14418 18.8694 -8.94941
322 1 20.442 4.71689 20.4417 -8.94954
323 1 22.014 6.28949 18.8695 -8.94972
324 1 1.57221 7.86207 20.4418 -8.9494
325 1 3.14397 6.2896 18.87 -8.95036
326 1 4.71687 7.86248 20.4419 -8.94967
327 1 6.28729 6.28767 18.8734 -8.95143
328 1 7.86167 7.86206 20.443 -8.95254
329 1 9.43364 6.28725 18.8724 -8.94795
330 1 11.0062 7.86103 20.4437 -8.95093
331 1 12.5802 6.28699 18.8728 -8.9497
332 1 14.1536 7.86022 20.4447 -8.95219
333 1 15.7287 6.28524 18.8735 -8.94507
334 1 17.2983 7.86125 20.4425 -8.94903
335 1 18.8707 6.28869 18.87 -8.94957
336 1 20.442 7.86189 20.4418 -8.94946
337 1 0.000131872 9.43443 18.8696 -8.94953
338 1 3.14413 9.43461 18.8699 -8.94899
339 1 6.28954 9.43571 18.8694 -8.94931
340 1 9.43479 9.43486 18.8695 -8.94863
341 1 12.5822 9.43313 18.8785 -8.96016
342 1 15.7284 9.433 18.8732 -8.94744
343 1 18.8708 9.43416 18.8701 -8.94928
344 1 1.57216 11.007 1.57208 -8.94958
345 1 4.71664 11.007 1.57187 -8.94972
346 1 7.86186 11.007 1.57283 -8.94742
347 1 11.0064 11.007 1.57154 -8.9465
348 1 14.1544 11.007 1.56899 -8.94993
349 1 17.2984 11.007 1.57137 -8.94931
350 1 20.442 11.007 1.57208 -8.94952
351 1 22.014 12.5794 1.6124e-15 -8.94956
352 1 1.57221 14.1518 1.57214 -8.9494
353 1 3.1444 12.5794 1.59704e-15 -8.94953
354 1 4.71687 14.1514 1.57197 -8.94967
355 1 6.28928 12.579 1.5892e-15 -8.94922
356 1 7.86167 14.1518 1.57086 -8.95254
357 1 9.43407 12.5792 1.64227e-15 -8.94851
358 1 11.0062 14.1529 1.57019 -8.95093
359 1 12.5795 12.5796 2.70324e-16 -8.95328
360 1 14.1536 14.1537 1.56915 -8.95219
361 1 15.726 12.58 1.21002e-15 -8.94912
362 1 17.2983 14.1526 1.57139 -8.94903
363 1 18.87 12.5796 1.46252e-15 -8.94945
364 1 20.442 14.152 1.5721 -8.94946
365 1 22.014 15.7243 1.82285e-15 -8.9495
366 1 1.57215 17.2968 1.5721 -8.94989
367 1 3.14455 15.7241 1.70838e-15 -8.94982
368 1 4.71619 17.2976 1.57115 -8.94998
369 1 6.28902 15.7246 1.74904e-15 -8.95132
370 1 7.86161 17.2977 1.5714 -8.94907
371 1 9.43392 15.7253 8.27565e-16 -8.9496
372 1 11.0069 17.2979 1.57144 -8.9493
373 1 12.5794 15.7253 9.46958e-16 -8.94975
374 1 14.1523 17.298 1.5714 -8.94977
375 1 15.7257 15.7258 1.57156e-15 -8.95022
376 1 17.2982 17.2982 1.57145 -8.94823
377 1 18.8699 15.7247 1.56889e-15 -8.94944
378 1 20.442 17.297 1.57215 -8.94954
379 1 22.0139 18.8693 1.62964e-15 -8.94962
380 1 1.57199 20.4418 1.57211 -8.94914
381 1 3.14425 18.8696 1.62741e-15 -8.94948
382 1 4.71699 20.4418 1.57207 -8.9496
383 1 6.28939 18.8696 7.58232e-16 -8.94938
384 1 7.86199 20.4419 1.57205 -8.94948
385 1 9.43441 18.8698 5.29758e-16 -8.94948
386 1 11.007 20.4419 1.57205 -8.94952
387 1 12.5795 18.8698 1.25021e-15 -8.94939
388 1 14.152 20.4419 1.57212 -8.94948
389 1 15.7246 18.8698 1.45833e-15 -8.94974
390 1 17.2971 20.442 1.57211 -8.94953
391 1 18.8697 18.8697 1.78506e-15 -8.94888
392 1 20.4416 20.4417 1.57232 -8.94939
393 1 1.57177 11.007 4.71628 -8.94946
394 1 4.71592 11.007 4.7155 -8.94634
395 1 7.86571 11.007 4.72253 -8.94403
396 1 11.0119 11.007 4.71843 -8.99367
397 1 14.1636 11.007 4.70456 -8.94188
398 1 17.3016 11.007 4.71439 -8.94907
399 1 20.4427 11.007 4.71648 -8.94982
400 1 0.000131872 12.5795 3.14431 -8.94953
401 1 1.57179 14.1517 4.7166 -8.94959
402 1 3.14413 12.5793 3.14399 -8.94899
403 1 4.71544 14.1512 4.71561 -8.95136
404 1 6.28954 12.5782 3.14451 -8.94931
405 1 7.85765 14.1561 4.70783 -8.95785
406 1 9.43479 12.579 3.1444 -8.94863
407 1 11.0067 14.1564 4.70758 -8.95279
408 1 12.5822 12.5808 3.13543 -8.96016
409 1 14.1652 14.1644 4.70241 -8.93299
410 1 15.7284 12.5809 3.14068 -8.94744
411 1 17.3015 14.1541 4.71464 -8.95022
412 1 18.8708 12.5797 3.1438 -8.94928
413 1 20.4426 14.1522 4.71663 -8.94995
414 1 22.014 15.7244 3.14444 -8.94972
415 1 1.57099 17.2975 4.71617 -8.94992
416 1 3.14397 15.7243 3.14389 -8.95036
417 1 4.71278 17.3008 4.71231 -8.94472
418 1 6.28729 15.7262 3.14054 -8.95143
419 1 7.86089 17.3001 4.7141 -8.94818
420 1 9.43364 15.7266 3.14155 -8.94795
421 1 11.0073 17.3001 4.71434 -8.94761
422 1 12.5802 15.7269 3.14107 -8.9497
423 1 14.1548 17.3018 4.71378 -8.94984
424 1 15.7287 15.7287 3.14038 -8.94507
425 1 17.2986 17.2986 4.71605 -8.94884
426 1 18.8707 15.7252 3.1439 -8.94957
427 1 20.4418 17.2972 4.71686 -8.94981
428 1 22.0136 18.8694 3.14444 -8.94958
429 1 1.57169 20.4419 4.71668 -8.94913
430 1 3.14349 18.8703 3.14343 -8.94824
431 1 4.71638 20.4426 4.71616 -8.95005
432 1 6.28912 18.8702 3.14362 -8.94943
433 1 7.86197 20.4425 4.71629 -8.94945
434 1 9.43443 18.8704 3.1437 -8.94936
435 1 11.0072 20.4425 4.71632 -8.94947
436 1 12.5797 18.8704 3.14383 -8.94909
437 1 14.1523 20.4426 4.71666 -8.95046
438 1 15.7254 18.8708 3.14369 -8.94947
439 1 17.2972 20.4421 4.71693 -8.94952
440 1 18.8696 18.8697 3.14448 -8.94941
441 1 20.4414 20.4417 4.7171 -8.94956
442 1 1.57153 11.007 7.86117 -8.94756
443 1 4.71894 11.007 7.86194 -8.93832
444 1 7.88609 11.007 7.88185 -8.84501
445 1 11.1036 11.007 7.66984 -8.22385
446 1 14.172 11.007 7.84598 -8.9651
447 1 17.3028 11.007 7.8608 -8.95192
448 1 20.4427 11.007 7.86183 -8.95005
449 1 22.0139 12.5794 6.28907 -8.94977
450 1 1.56972 14.1519 7.8615 -8.95176
451 1 3.14327 12.5785 6.2886 -8.94906
452 1 4.70622 14.1545 7.85884 -8.95992
453 1 6.28775 12.5753 6.28967 -8.95068
454 1 7.818 14.1911 7.82325 -8.85957
455 1 9.42601 12.597 6.29049 -8.91613
456 1 11.0228 14.1675 7.831 -8.89705
457 1 12.6196 12.6111 6.24643 -8.88094
458 1 14.1677 14.1645 7.85139 -8.93496
459 1 15.7367 12.583 6.28329 -8.95455
460 1 17.3013 14.1535 7.86163 -8.95208
461 1 18.8724 12.5799 6.28876 -8.95112
462 1 20.442 14.1521 7.86198 -8.95049
463 1 22.0132 15.7246 6.28915 -8.95035
464 1 1.56983 17.2982 7.86098 -8.94935
465 1 3.14045 15.726 6.28718 -8.95156
466 1 4.71007 17.3036 7.85688 -8.9417
467 1 6.27559 15.7375 6.27485 -8.9315
468 1 7.85898 17.3065 7.85911 -8.95823
469 1 9.43297 15.7335 6.28283 -8.94718
470 1 11.0067 17.3014 7.86008 -8.95111
471 1 12.5864 15.7364 6.28009 -8.95196
472 1 14.1553 17.3021 7.85989 -8.94845
473 1 15.7302 15.7295 6.28597 -8.94625
474 1 17.2981 17.298 7.86201 -8.94976
475 1 18.8708 15.7253 6.28918 -8.95013
476 1 20.4414 17.2973 7.8619 -8.94972
477 1 -0.000684207 18.8697 6.28924 -8.94942
478 1 1.57154 20.442 7.86174 -8.94944
479 1 3.1426 18.8711 6.28791 -8.94773
480 1 4.71565 20.4434 7.86096 -8.94974
481 1 6.28791 18.873 6.28742 -8.95159
482 1 7.862 20.4436 7.86143 -8.9511
483 1 9.43466 18.8724 6.28788 -8.94996
484 1 11.0073 20.4428 7.8616 -8.94955
485 1 12.58 18.8721 6.28867 -8.95186
486 1 14.1525 20.4427 7.86186 -8.95045
487 1 15.7256 18.8712 6.28889 -8.94925
488 1 17.2971 20.4419 7.86212 -8.94959
489 1 18.8695 18.8697 6.28953 -8.94968
490 1 20.4414 20.4417 7.86201 -8.94952
491 1 22.0131 12.5791 9.43435 -8.94957
492 1 3.14142 12.578 9.434 -8.9502
493 1 6.28174 12.5839 9.43512 -8.96845
494 1 9.35822 12.8513 9.44505 -8.05676
495 1 12.5958 12.6061 9.38468 -8.82849
496 1 15.7286 12.5798 9.43263 -8.95277
497 1 18.8706 12.5795 9.43474 -8.94977
498 1 22.0122 15.725 9.43424 -8.95047
499 1 3.137 15.728 9.4326 -8.9502
500 1 6.26698 15.7461 9.42202 -8.91905
501 1 9.43012 15.7278 9.432 -9.00809
502 1 12.5859 15.735 9.42653 -8.94645
503 1 15.7276 15.7267 9.43469 -8.94876
504 1 18.8701 15.7252 9.43464 -8.94964
505 1 22.0132 18.8697 9.43436 -8.94943
506 1 3.14243 18.8712 9.43385 -8.94906
507 1 6.28617 18.8758 9.43298 -8.95139
508 1 9.43483 18.8722 9.43365 -8.94678
509 1 12.5802 18.8718 9.43421 -8.95178
510 1 15.7251 18.8703 9.43472 -8.94943
511 1 18.8694 18.8697 9.43451 -8.94943
688 3 10.0937 11.007 9.39573 2.36477
512 1 1.57157 11.007 11.007 -8.9457
513 1 4.72241 11.007 11.007 -8.93443
514 1 7.89722 11.007 11.007 -8.72839
515 1 11.2792 11.007 11.007 -7.38355
516 1 14.1418 11.007 11.007 -9.0157
517 1 17.2964 11.007 11.007 -8.94554
518 1 20.4416 11.007 11.007 -8.94816
519 1 1.56784 14.1522 11.007 -8.95403
520 1 4.69703 14.1582 11.007 -8.96625
521 1 7.77688 14.2239 11.007 -8.74013
522 1 11.054 14.1712 11.007 -8.83631
523 1 14.1584 14.1514 11.007 -8.9663
524 1 17.2989 14.1526 11.007 -8.95042
525 1 20.4413 14.1522 11.007 -8.95032
526 1 1.56971 17.2982 11.007 -8.94907
527 1 4.71032 17.3034 11.007 -8.94566
528 1 7.85671 17.3125 11.007 -8.96656
529 1 11.0068 17.3005 11.007 -8.95462
530 1 14.1531 17.2983 11.007 -8.94733
531 1 17.2979 17.2979 11.007 -8.94864
532 1 20.4413 17.2974 11.007 -8.94953
533 1 1.5715 20.4421 11.007 -8.94945
534 1 4.71551 20.4435 11.007 -8.94924
535 1 7.86193 20.4445 11.007 -8.95325
536 1 11.0072 20.4426 11.007 -8.94949
537 1 14.1525 20.4422 11.007 -8.94908
538 1 17.2972 20.4419 11.007 -8.94951
539 1 20.4414 20.4418 11.007 -8.94956
540 1 1.57153 11.007 14.1527 -8.94756
541 1 4.71894 11.007 14.152 -8.93832
542 1 7.88609 11.007 14.1321 -8.84501
543 1 11.1036 11.007 14.3441 -8.22385
544 1 14.172 11.007 14.1679 -8.9651
545 1 17.3028 11.007 14.1531 -8.95192
546 1 20.4427 11.007 14.1521 -8.95005
547 1 22.0131 12.5791 12.5796 -8.94957
548 1 1.56972 14.1519 14.1524 -8.95176
549 1 3.14142 12.578 12.5799 -8.9502
550 1 4.70622 14.1545 14.1551 -8.95992
551 1 6.28174 12.5839 12.5788 -8.96845
552 1 7.818 14.1911 14.1906 -8.85957
553 1 9.35822 12.8513 12.5688 -8.05676
554 1 11.0228 14.1675 14.1829 -8.89705
555 1 12.5958 12.6061 12.6292 -8.82849
556 1 14.1677 14.1645 14.1625 -8.93496
557 1 15.7286 12.5798 12.5813 -8.95277
558 1 17.3013 14.1535 14.1523 -8.95208
559 1 18.8706 12.5795 12.5792 -8.94977
560 1 20.442 14.1521 14.1519 -8.95049
561 1 22.0122 15.725 12.5797 -8.95047
562 1 1.56983 17.2982 14.1529 -8.94935
563 1 3.137 15.728 12.5813 -8.9502
564 1 4.71007 17.3036 14.157 -8.9417
565 1 6.26698 15.7461 12.5919 -8.91905
566 1 7.85898 17.3065 14.1548 -8.95823
567 1 9.43012 15.7278 12.5819 -9.00809
568 1 11.0067 17.3014 14.1538 -8.95111
569 1 12.5859 15.735 12.5874 -8.94645
570 1 14.1553 17.3021 14.154 -8.94845
571 1 15.7276 15.7267 12.5792 -8.94876
572 1 17.2981 17.298 14.1519 -8.94976
573 1 18.8701 15.7252 12.5793 -8.94964
574 1 20.4414 17.2973 14.152 -8.94972
575 1 22.0132 18.8697 12.5795 -8.94943
576 1 1.57154 20.442 14.1522 -8.94944
577 1 3.14243 18.8712 12.58 -8.94906
578 1 4.71565 20.4434 14.1529 -8.94974
579 1 6.28617 18.8758 12.5809 -8.95139
580 1 7.862 20.4436 14.1525 -8.9511
581 1 9.43483 18.8722 12.5803 -8.94678
582 1 11.0073 20.4428 14.1523 -8.94955
583 1 12.5802 18.8718 12.5797 -8.95178
584 1 14.1525 20.4427 14.152 -8.95045
585 1 15.7251 18.8703 12.5792 -8.94943
586 1 17.2971 20.4419 14.1518 -8.94959
587 1 18.8694 18.8697 12.5794 -8.94943
588 1 20.4414 20.4417 14.1519 -8.94952
589 1 1.57177 11.007 17.2976 -8.94946
590 1 4.71592 11.007 17.2984 -8.94634
591 1 7.86571 11.007 17.2914 -8.94403
592 1 11.0119 11.007 17.2955 -8.99367
593 1 14.1636 11.007 17.3093 -8.94188
594 1 17.3016 11.007 17.2995 -8.94907
595 1 20.4427 11.007 17.2974 -8.94982
596 1 22.0139 12.5794 15.7248 -8.94977
597 1 1.57179 14.1517 17.2973 -8.94959
598 1 3.14327 12.5785 15.7253 -8.94906
599 1 4.71544 14.1512 17.2983 -8.95136
600 1 6.28775 12.5753 15.7242 -8.95068
601 1 7.85765 14.1561 17.3061 -8.95785
602 1 9.42601 12.597 15.7234 -8.91613
603 1 11.0067 14.1564 17.3063 -8.95279
604 1 12.6196 12.6111 15.7675 -8.88094
605 1 14.1652 14.1644 17.3115 -8.93299
606 1 15.7367 12.583 15.7306 -8.95455
607 1 17.3015 14.1541 17.2993 -8.95022
608 1 18.8724 12.5799 15.7251 -8.95112
609 1 20.4426 14.1522 17.2973 -8.94995
610 1 22.0132 15.7246 15.7247 -8.95035
611 1 1.57099 17.2975 17.2977 -8.94992
612 1 3.14045 15.726 15.7267 -8.95156
613 1 4.71278 17.3008 17.3016 -8.94472
614 1 6.27559 15.7375 15.7391 -8.9315
615 1 7.86089 17.3001 17.2998 -8.94818
616 1 9.43297 15.7335 15.7311 -8.94718
617 1 11.0073 17.3001 17.2996 -8.94761
618 1 12.5864 15.7364 15.7338 -8.95196
619 1 14.1548 17.3018 17.3001 -8.94984
620 1 15.7302 15.7295 15.7279 -8.94625
621 1 17.2986 17.2986 17.2978 -8.94884
622 1 18.8708 15.7253 15.7247 -8.95013
623 1 20.4418 17.2972 17.297 -8.94981
624 1 -0.000684207 18.8697 15.7247 -8.94942
625 1 1.57169 20.4419 17.2972 -8.94913
626 1 3.1426 18.8711 15.726 -8.94773
627 1 4.71638 20.4426 17.2977 -8.95005
628 1 6.28791 18.873 15.7265 -8.95159
629 1 7.86197 20.4425 17.2976 -8.94945
630 1 9.43466 18.8724 15.726 -8.94996
631 1 11.0072 20.4425 17.2976 -8.94947
632 1 12.58 18.8721 15.7252 -8.95186
633 1 14.1523 20.4426 17.2972 -8.95046
634 1 15.7256 18.8712 15.725 -8.94925
635 1 17.2972 20.4421 17.297 -8.94952
636 1 18.8695 18.8697 15.7244 -8.94968
637 1 20.4414 20.4417 17.2968 -8.94956
638 1 1.57216 11.007 20.4418 -8.94958
639 1 4.71664 11.007 20.442 -8.94972
640 1 7.86186 11.007 20.4411 -8.94742
641 1 11.0064 11.007 20.4424 -8.9465
642 1 14.1544 11.007 20.4449 -8.94993
643 1 17.2984 11.007 20.4425 -8.94931
644 1 20.442 11.007 20.4418 -8.94952
645 1 0.000131872 12.5795 18.8696 -8.94953
646 1 1.57221 14.1518 20.4418 -8.9494
647 1 3.14413 12.5793 18.8699 -8.94899
648 1 4.71687 14.1514 20.4419 -8.94967
649 1 6.28954 12.5782 18.8694 -8.94931
650 1 7.86167 14.1518 20.443 -8.95254
651 1 9.43479 12.579 18.8695 -8.94863
652 1 11.0062 14.1529 20.4437 -8.95093
653 1 12.5822 12.5808 18.8785 -8.96016
654 1 14.1536 14.1537 20.4447 -8.95219
655 1 15.7284 12.5809 18.8732 -8.94744
656 1 17.2983 14.1526 20.4425 -8.94903
657 1 18.8708 12.5797 18.8701 -8.94928
658 1 20.442 14.152 20.4418 -8.94946
659 1 22.014 15.7244 18.8695 -8.94972
660 1 1.57215 17.2968 20.4418 -8.94989
661 1 3.14397 15.7243 18.87 -8.95036
662 1 4.71619 17.2976 20.4428 -8.94998
663 1 6.28729 15.7262 18.8734 -8.95143
664 1 7.86161 17.2977 20.4425 -8.94907
665 1 9.43364 15.7266 18.8724 -8.94795
666 1 11.0069 17.2979 20.4425 -8.9493
667 1 12.5802 15.7269 18.8728 -8.9497
668 1 14.1523 17.298 20.4425 -8.94977
669 1 15.7287 15.7287 18.8735 -8.94507
670 1 17.2982 17.2982 20.4424 -8.94823
671 1 18.8707 15.7252 18.87 -8.94957
672 1 20.442 17.297 20.4417 -8.94954
673 1 22.0136 18.8694 18.8695 -8.94958
674 1 1.57199 20.4418 20.4418 -8.94914
675 1 3.14349 18.8703 18.8705 -8.94824
676 1 4.71699 20.4418 20.4418 -8.9496
677 1 6.28912 18.8702 18.8703 -8.94943
678 1 7.86199 20.4419 20.4418 -8.94948
679 1 9.43443 18.8704 18.8702 -8.94936
680 1 11.007 20.4419 20.4418 -8.94952
681 1 12.5797 18.8704 18.8701 -8.94909
682 1 14.152 20.4419 20.4418 -8.94948
683 1 15.7254 18.8708 18.8702 -8.94947
684 1 17.2971 20.442 20.4418 -8.94953
685 1 18.8696 18.8697 18.8694 -8.94941
686 1 20.4416 20.4417 20.4416 -8.94939
687 3 10.0937 11.007 12.6182 2.36477
