ITEM: TIMESTEP
50
ITEM: NUMBER OF ATOMS
688
ITEM: BOX BOUNDS pp pp pp
0.0000000000000000e+00 2.2013900999999997e+01
0.0000000000000000e+00 2.2013900999999997e+01
0.0000000000000000e+00 2.2013900999999997e+01
ITEM: ATOMS id type x y z c_pot
1 1 22.0139 9.69967e-16 1.57517e-15 -8.94963
2 1 1.57242 1.57242 1.57242 -8.94962
3 1 3.14484 1.91069e-15 7.43805e-16 -8.94964
4 1 4.71727 1.57242 1.57242 -8.94965
5 1 6.28969 1.68122e-15 1.71801e-15 -8.94963
6 1 7.86211 1.57242 1.57242 -8.94963
7 1 9.43453 1.93427e-15 1.47433e-15 -8.94963
8 1 11.007 1.57242 1.57242 -8.94964
9 1 12.5794 1.88418e-15 8.26257e-16 -8.94963
10 1 14.1518 1.57242 1.57242 -8.94963
11 1 15.7242 -1.16305e-15 -2.39906e-16 -8.94963
12 1 17.2966 1.57242 1.57242 -8.94963
13 1 18.8691 1.16946e-15 7.10464e-16 -8.94963
14 1 20.4415 1.57242 1.57242 -8.94963
15 1 22.0139 3.14484 1.17335e-15 -8.94963
16 1 1.57242 4.71726 1.57242 -8.94964
17 1 3.14484 3.14484 1.81769e-15 -8.94962
18 1 4.71725 4.71725 1.5724 -8.94961
19 1 6.28969 3.14484 1.95187e-15 -8.94964
20 1 7.86211 4.71726 1.57242 -8.94962
21 1 9.43453 3.14484 1.22264e-15 -8.94964
22 1 11.007 4.71726 1.57241 -8.94966
23 1 12.5794 3.14484 5.36445e-16 -8.94963
24 1 14.1518 4.71727 1.57242 -8.94974
25 1 15.7242 3.14484 4.05858e-16 -8.94966
26 1 17.2967 4.71725 1.57241 -8.94952
27 1 18.8691 3.14484 1.36413e-15 -8.94962
28 1 20.4415 4.71726 1.57242 -8.94963
29 1 22.0139 6.28969 1.82714e-15 -8.94963
30 1 1.57242 7.86211 1.57242 -8.94963
31 1 3.14484 6.28969 1.92261e-15 -8.94964
32 1 4.71726 7.86211 1.57242 -8.94966
33 1 6.28967 6.28967 1.68073e-15 -8.94969
34 1 7.86203 7.86203 1.57222 -8.95006
35 1 9.43453 6.28967 -5.89184e-17 -8.94962
36 1 11.0069 7.86203 1.57227 -8.94962
37 1 12.5794 6.28968 1.43493e-15 -8.94962
38 1 14.1519 7.86196 1.57215 -8.94992
39 1 15.7242 6.28965 -1.27714e-15 -8.94961
40 1 17.2966 7.86211 1.57242 -8.94971
41 1 18.8691 6.28969 1.94443e-15 -8.94966
42 1 20.4415 7.86211 1.57242 -8.94963
43 1 22.0139 9.43453 1.64556e-15 -8.94963
44 1 3.14484 9.43453 6.06357e-16 -8.94963
45 1 6.28968 9.43454 1.22362e-15 -8.94967
46 1 9.43445 9.43446 1.71277e-15 -8.94974
47 1 12.5794 9.43446 -2.0778e-16 -8.95053
48 1 15.7242 9.43453 -1.39985e-16 -8.94959
49 1 18.8691 9.43453 1.7031e-15 -8.94964
50 1 1.97202e-08 3.61322e-16 3.14484 -8.94963
51 1 1.57242 1.57242 4.71726 -8.94964
52 1 3.14484 -7.74514e-17 3.14484 -8.94963
53 1 4.71725 1.5724 4.71725 -8.94963
54 1 6.28969 2.04206e-15 3.14484 -8.94964
55 1 7.86211 1.57242 4.71726 -8.94962
56 1 9.43453 2.63958e-15 3.14484 -8.94964
57 1 11.007 1.57241 4.71726 -8.94963
58 1 12.5794 1.1028e-15 3.14484 -8.94963
59 1 14.1518 1.5724 4.71725 -8.94966
60 1 15.7242 -1.50452e-16 3.14484 -8.94963
61 1 17.2966 1.57242 4.71726 -8.94963
62 1 18.8691 3.14892e-16 3.14484 -8.94963
63 1 20.4415 1.57242 4.71726 -8.94963
64 1 22.0139 3.14484 3.14484 -8.94963
65 1 1.5724 4.71725 4.71725 -8.94963
66 1 3.14483 3.14483 3.14483 -8.94952
67 1 4.71702 4.71702 4.71701 -8.94845
68 1 6.28969 3.14484 3.14484 -8.94974
69 1 7.86214 4.71721 4.71722 -8.95
70 1 9.43453 3.14483 3.14484 -8.94966
71 1 11.007 4.71712 4.71712 -8.94937
72 1 12.5794 3.14484 3.14484 -8.94962
73 1 14.1519 4.71698 4.71713 -8.94982
74 1 15.7242 3.14482 3.14483 -8.94962
75 1 17.2967 4.71725 4.71725 -8.94962
76 1 18.8691 3.14484 3.14484 -8.94964
77 1 20.4415 4.71726 4.71726 -8.94963
78 1 22.0139 6.28969 3.14484 -8.94964
79 1 1.57241 7.86211 4.71726 -8.94962
80 1 3.14484 6.28969 3.14484 -8.94972
81 1 4.71717 7.8621 4.71719 -8.95003
82 1 6.28954 6.28954 3.14454 -8.94977
83 1 7.8612 7.86124 4.71487 -8.95283
84 1 9.43452 6.28954 3.14469 -8.9493
85 1 11.0064 7.86145 4.71583 -8.95113
86 1 12.5793 6.28964 3.14479 -8.95003
87 1 14.1545 7.85937 4.71445 -8.93923
88 1 15.7245 6.28943 3.14458 -8.94843
89 1 17.2969 7.862 4.71715 -8.94993
90 1 18.8691 6.28967 3.14483 -8.94964
91 1 20.4415 7.8621 4.71726 -8.94967
92 1 4.46066e-07 9.43453 3.14484 -8.94963
93 1 3.14484 9.43453 3.14484 -8.94964
94 1 6.2896 9.4346 3.14472 -8.94978
95 1 9.43407 9.4341 3.14393 -8.94891
96 1 12.58 9.43391 3.14256 -8.95379
97 1 15.7243 9.4345 3.14475 -8.94968
98 1 18.8691 9.43453 3.14484 -8.94962
99 1 22.0139 5.84348e-16 6.28969 -8.94963
100 1 1.57242 1.57242 7.86211 -8.94965
101 1 3.14484 3.72849e-16 6.28968 -8.94963
102 1 4.71724 1.57239 7.86209 -8.9496
103 1 6.28967 8.37747e-16 6.28967 -8.94971
104 1 7.86208 1.57226 7.86207 -8.95006
105 1 9.43453 1.87552e-15 6.28968 -8.94966
106 1 11.007 1.57232 7.86206 -8.9497
107 1 12.5794 1.19333e-15 6.28968 -8.94969
108 1 14.1518 1.57239 7.8621 -8.94967
109 1 15.7242 1.7717e-15 6.28968 -8.94964
110 1 17.2966 1.57242 7.86211 -8.94964
111 1 18.8691 1.66004e-15 6.28969 -8.94963
112 1 20.4415 1.57242 7.86211 -8.94963
113 1 -1.34928e-06 3.14484 6.28969 -8.94963
114 1 1.57239 4.71725 7.86209 -8.94961
115 1 3.14483 3.14483 6.28967 -8.9496
116 1 4.71694 4.71694 7.86184 -8.94847
117 1 6.28956 3.14458 6.28956 -8.94995
118 1 7.86155 4.71514 7.86149 -8.95365
119 1 9.43457 3.14469 6.28961 -8.9496
120 1 11.0074 4.71626 7.86158 -8.94894
121 1 12.5794 3.14463 6.28961 -8.95
122 1 14.152 4.71687 7.86204 -8.94978
123 1 15.7242 3.14481 6.28968 -8.94963
124 1 17.2966 4.71725 7.86211 -8.94972
125 1 18.8691 3.14484 6.28969 -8.94964
126 1 20.4415 4.71726 7.86211 -8.94963
127 1 22.0139 6.28968 6.28968 -8.94968
128 1 1.57225 7.86208 7.86208 -8.95006
129 1 3.14458 6.28957 6.28957 -8.94993
130 1 4.71508 7.86154 7.8615 -8.9538
131 1 6.28705 6.28705 6.28685 -8.93955
132 1 7.84114 7.84277 7.84124 -8.87339
133 1 9.43497 6.2883 6.28899 -8.95083
134 1 11.0129 7.85794 7.85308 -8.92029
135 1 12.5802 6.28738 6.28878 -8.95285
136 1 14.1555 7.85886 7.86015 -8.93955
137 1 15.7245 6.28939 6.28946 -8.94888
138 1 17.297 7.86193 7.86204 -8.94997
139 1 18.8691 6.28967 6.28967 -8.94963
140 1 20.4415 7.8621 7.8621 -8.94972
141 1 22.0139 9.43453 6.28968 -8.94968
142 1 3.14465 9.43454 6.28958 -8.94958
143 1 6.28835 9.43507 6.28882 -8.94923
144 1 9.42832 9.42675 6.28645 -8.92345
145 1 12.6006 9.41452 6.26835 -8.87394
146 1 15.7264 9.43397 6.28907 -8.9535
147 1 18.8692 9.43451 6.28965 -8.95003
148 1 1.07022e-08 2.29036e-15 9.43453 -8.94963
149 1 3.14484 1.96875e-15 9.43453 -8.94964
150 1 6.28966 1.76009e-15 9.43451 -8.94974
151 1 9.43454 1.59098e-15 9.43452 -8.95006
152 1 12.5794 1.85346e-15 9.43452 -8.94969
153 1 15.7242 1.46322e-15 9.43453 -8.94964
154 1 18.8691 1.28469e-15 9.43453 -8.94963
155 1 22.0139 3.14484 9.43453 -8.94964
156 1 3.14484 3.14484 9.43453 -8.94975
157 1 6.28945 3.14436 9.4344 -8.94966
158 1 9.43464 3.14377 9.43446 -8.95084
159 1 12.5795 3.14457 9.43445 -8.94986
160 1 15.7242 3.14482 9.43453 -8.94963
161 1 18.8691 3.14484 9.43453 -8.94964
162 1 22.0139 6.28967 9.43452 -8.94969
163 1 3.14439 6.28947 9.43441 -8.94966
164 1 6.28561 6.28551 9.43185 -8.93737
165 1 9.43394 6.28253 9.43412 -8.99157
166 1 12.5801 6.2872 9.43357 -8.95265
167 1 15.7244 6.28945 9.43453 -8.94926
168 1 18.8691 6.28966 9.43453 -8.94959
169 1 22.0138 9.43453 9.43452 -8.94986
170 1 3.14383 9.43461 9.43444 -8.95132
171 1 6.2806 9.43314 9.43406 -8.96721
172 1 9.35218 9.22865 9.43904 -8.03111
173 1 12.5946 9.41522 9.41187 -8.83083
174 1 15.7266 9.43377 9.43436 -8.95156
175 1 18.8693 9.43447 9.43452 -8.94999
176 1 1.57242 1.57242 11.007 -8.94964
177 1 4.71725 1.5724 11.007 -8.9496
178 1 7.86204 1.57209 11.007 -8.95054
179 1 11.007 1.57223 11.007 -8.94979
180 1 14.1518 1.57241 11.007 -8.94966
181 1 17.2966 1.57242 11.007 -8.94963
182 1 20.4415 1.57242 11.007 -8.94963
183 1 1.5724 4.71725 11.007 -8.94961
184 1 4.71704 4.71706 11.007 -8.94986
185 1 7.86091 4.71296 11.007 -8.95647
186 1 11.0078 4.71549 11.007 -8.94886
187 1 14.1519 4.71707 11.007 -8.94985
188 1 17.2967 4.71725 11.007 -8.94964
189 1 20.4415 4.71726 11.007 -8.94963
190 1 1.5721 7.86206 11.007 -8.95054
191 1 4.71288 7.86097 11.007 -8.95666
192 1 7.82111 7.82454 11.007 -8.78657
193 1 11.022 7.85464 11.007 -8.88865
194 1 14.1541 7.86097 11.007 -8.95435
195 1 17.297 7.8619 11.007 -8.94941
196 1 20.4415 7.86209 11.007 -8.94973
197 1 1.07022e-08 2.31639e-15 12.5794 -8.94963
198 1 1.57242 1.57242 14.1518 -8.94965
199 1 3.14484 2.02613e-15 12.5794 -8.94964
200 1 4.71724 1.57239 14.1518 -8.9496
201 1 6.28966 1.63484e-15 12.5794 -8.94974
202 1 7.86208 1.57226 14.1518 -8.95006
203 1 9.43454 1.63807e-15 12.5794 -8.95006
204 1 11.007 1.57232 14.1518 -8.9497
205 1 12.5794 2.00045e-15 12.5794 -8.94969
206 1 14.1518 1.57239 14.1518 -8.94967
207 1 15.7242 1.28421e-15 12.5794 -8.94964
208 1 17.2966 1.57242 14.1518 -8.94964
209 1 18.8691 1.66963e-15 12.5794 -8.94963
210 1 20.4415 1.57242 14.1518 -8.94963
211 1 22.0139 3.14484 12.5794 -8.94964
212 1 1.57239 4.71725 14.1518 -8.94961
213 1 3.14484 3.14484 12.5794 -8.94975
214 1 4.71694 4.71694 14.1521 -8.94847
215 1 6.28945 3.14436 12.5795 -8.94966
216 1 7.86155 4.71514 14.1524 -8.95365
217 1 9.43464 3.14377 12.5794 -8.95084
218 1 11.0074 4.71626 14.1523 -8.94894
219 1 12.5795 3.14457 12.5794 -8.94986
220 1 14.152 4.71687 14.1519 -8.94978
221 1 15.7242 3.14482 12.5794 -8.94963
222 1 17.2966 4.71725 14.1518 -8.94972
223 1 18.8691 3.14484 12.5794 -8.94964
224 1 20.4415 4.71726 14.1518 -8.94963
225 1 22.0139 6.28967 12.5794 -8.94969
226 1 1.57225 7.86208 14.1518 -8.95006
227 1 3.14439 6.28947 12.5795 -8.94966
228 1 4.71508 7.86154 14.1524 -8.9538
229 1 6.28561 6.28551 12.5821 -8.93737
230 1 7.84114 7.84277 14.1727 -8.87339
231 1 9.43394 6.28253 12.5798 -8.99157
232 1 11.0129 7.85794 14.1608 -8.92029
233 1 12.5801 6.2872 12.5803 -8.95265
234 1 14.1555 7.85886 14.1537 -8.93955
235 1 15.7244 6.28945 12.5794 -8.94926
236 1 17.297 7.86193 14.1519 -8.94997
237 1 18.8691 6.28966 12.5794 -8.94959
238 1 20.4415 7.8621 14.1518 -8.94972
239 1 22.0138 9.43453 12.5794 -8.94986
240 1 3.14383 9.43461 12.5795 -8.95132
241 1 6.2806 9.43314 12.5798 -8.96721
242 1 9.35218 9.22865 12.5749 -8.03111
243 1 12.5946 9.41522 12.602 -8.83083
244 1 15.7266 9.43377 12.5795 -8.95156
245 1 18.8693 9.43447 12.5794 -8.94999
246 1 22.0139 1.77749e-16 15.7242 -8.94963
247 1 1.57242 1.57242 17.2966 -8.94964
248 1 3.14484 8.54694e-16 15.7242 -8.94963
249 1 4.71725 1.5724 17.2967 -8.94963
250 1 6.28967 1.22376e-15 15.7242 -8.94971
251 1 7.86211 1.57242 17.2966 -8.94962
252 1 9.43453 1.81462e-15 15.7242 -8.94966
253 1 11.007 1.57241 17.2966 -8.94963
254 1 12.5794 1.14587e-15 15.7242 -8.94969
255 1 14.1518 1.5724 17.2966 -8.94966
256 1 15.7242 1.70001e-15 15.7242 -8.94964
257 1 17.2966 1.57242 17.2966 -8.94963
258 1 18.8691 1.71769e-15 15.7242 -8.94963
259 1 20.4415 1.57242 17.2966 -8.94963
260 1 -1.34928e-06 3.14484 15.7242 -8.94963
261 1 1.5724 4.71725 17.2966 -8.94963
262 1 3.14483 3.14483 15.7242 -8.9496
263 1 4.71702 4.71702 17.2969 -8.94845
264 1 6.28956 3.14458 15.7243 -8.94995
265 1 7.86214 4.71721 17.2967 -8.95
266 1 9.43457 3.14469 15.7243 -8.9496
267 1 11.007 4.71712 17.2968 -8.94937
268 1 12.5794 3.14463 15.7243 -8.95
269 1 14.1519 4.71698 17.2968 -8.94982
270 1 15.7242 3.14481 15.7242 -8.94963
271 1 17.2967 4.71725 17.2967 -8.94962
272 1 18.8691 3.14484 15.7242 -8.94964
273 1 20.4415 4.71726 17.2966 -8.94963
274 1 22.0139 6.28968 15.7242 -8.94968
275 1 1.57241 7.86211 17.2966 -8.94962
276 1 3.14458 6.28957 15.7243 -8.94993
277 1 4.71717 7.8621 17.2967 -8.95003
278 1 6.28705 6.28705 15.7271 -8.93955
279 1 7.8612 7.86124 17.299 -8.95283
280 1 9.43497 6.2883 15.7249 -8.95083
281 1 11.0064 7.86145 17.2981 -8.95113
282 1 12.5802 6.28738 15.7251 -8.95285
283 1 14.1545 7.85937 17.2994 -8.93923
284 1 15.7245 6.28939 15.7244 -8.94888
285 1 17.2969 7.862 17.2968 -8.94993
286 1 18.8691 6.28967 15.7242 -8.94963
287 1 20.4415 7.8621 17.2966 -8.94967
288 1 22.0139 9.43453 15.7242 -8.94968
289 1 3.14465 9.43454 15.7243 -8.94958
290 1 6.28835 9.43507 15.7251 -8.94923
291 1 9.42832 9.42675 15.7275 -8.92345
292 1 12.6006 9.41452 15.7455 -8.87394
293 1 15.7264 9.43397 15.7248 -8.9535
294 1 18.8692 9.43451 15.7242 -8.95003
295 1 1.97202e-08 1.14878e-15 18.8691 -8.94963
296 1 1.57242 1.57242 20.4415 -8.94962
297 1 3.14484 -2.13822e-16 18.8691 -8.94963
298 1 4.71727 1.57242 20.4415 -8.94965
299 1 6.28969 1.96673e-15 18.8691 -8.94964
300 1 7.86211 1.57242 20.4415 -8.94963
301 1 9.43453 2.53337e-15 18.8691 -8.94964
302 1 11.007 1.57242 20.4415 -8.94964
303 1 12.5794 1.29455e-15 18.8691 -8.94963
304 1 14.1518 1.57242 20.4415 -8.94963
305 1 15.7242 -2.66236e-16 18.8691 -8.94963
306 1 17.2966 1.57242 20.4415 -8.94963
307 1 18.8691 -7.36474e-18 18.8691 -8.94963
308 1 20.4415 1.57242 20.4415 -8.94963
309 1 22.0139 3.14484 18.8691 -8.94963
310 1 1.57242 4.71726 20.4415 -8.94964
311 1 3.14483 3.14483 18.8691 -8.94952
312 1 4.71725 4.71725 20.4415 -8.94961
313 1 6.28969 3.14484 18.8691 -8.94974
314 1 7.86211 4.71726 20.4415 -8.94962
315 1 9.43453 3.14483 18.8691 -8.94966
316 1 11.007 4.71726 20.4415 -8.94966
317 1 12.5794 3.14484 18.8691 -8.94962
318 1 14.1518 4.71727 20.4415 -8.94974
319 1 15.7242 3.14482 18.8691 -8.94962
320 1 17.2967 4.71725 20.4415 -8.94952
321 1 18.8691 3.14484 18.8691 -8.94964
322 1 20.4415 4.71726 20.4415 -8.94963
323 1 22.0139 6.28969 18.8691 -8.94964
324 1 1.57242 7.86211 20.4415 -8.94963
325 1 3.14484 6.28969 18.8691 -8.94972
326 1 4.71726 7.86211 20.4415 -8.94966
327 1 6.28954 6.28954 18.8694 -8.94977
328 1 7.86203 7.86203 20.4417 -8.95006
329 1 9.43452 6.28954 18.8692 -8.9493
330 1 11.0069 7.86203 20.4416 -8.94962
331 1 12.5793 6.28964 18.8691 -8.95003
332 1 14.1519 7.86196 20.4417 -8.94992
333 1 15.7245 6.28943 18.8693 -8.94843
334 1 17.2966 7.86211 20.4415 -8.94971
335 1 18.8691 6.28967 18.8691 -8.94964
336 1 20.4415 7.86211 20.4415 -8.94963
337 1 4.46066e-07 9.43453 18.8691 -8.94963
338 1 3.14484 9.43453 18.8691 -8.94964
339 1 6.2896 9.4346 18.8692 -8.94978
340 1 9.43407 9.4341 18.87 -8.94891
341 1 12.58 9.43391 18.8713 -8.95379
342 1 15.7243 9.4345 18.8692 -8.94968
343 1 18.8691 9.43453 18.8691 -8.94962
344 1 1.57242 11.007 1.57242 -8.94964
345 1 4.71725 11.007 1.5724 -8.94961
346 1 7.86208 11.007 1.57237 -8.94948
347 1 11.0069 11.007 1.5715 -8.9514
348 1 14.1519 11.007 1.57221 -8.94947
349 1 17.2966 11.007 1.57242 -8.94969
350 1 20.4415 11.007 1.57242 -8.94963
351 1 22.0139 12.5794 1.43004e-15 -8.94963
352 1 1.57242 14.1518 1.57242 -8.94963
353 1 3.14484 12.5794 3.13881e-16 -8.94963
354 1 4.71726 14.1518 1.57242 -8.94966
355 1 6.28968 12.5794 1.52673e-15 -8.94967
356 1 7.86203 14.1519 1.57222 -8.95006
357 1 9.43445 12.5794 1.58827e-15 -8.94974
358 1 11.0069 14.1519 1.57227 -8.94962
359 1 12.5794 12.5794 -1.88132e-16 -8.95053
360 1 14.1519 14.1519 1.57215 -8.94992
361 1 15.7242 12.5794 -1.26477e-16 -8.94959
362 1 17.2966 14.1518 1.57242 -8.94971
363 1 18.8691 12.5794 1.91468e-15 -8.94964
364 1 20.4415 14.1518 1.57242 -8.94963
365 1 22.0139 15.7242 2.15886e-15 -8.94963
366 1 1.57242 17.2966 1.57242 -8.94964
367 1 3.14484 15.7242 1.76525e-15 -8.94964
368 1 4.71725 17.2967 1.5724 -8.94961
369 1 6.28967 15.7242 1.75912e-15 -8.94969
370 1 7.86211 17.2966 1.57242 -8.94962
371 1 9.43453 15.7242 4.24349e-16 -8.94962
372 1 11.007 17.2966 1.57241 -8.94966
373 1 12.5794 15.7242 1.16524e-15 -8.94962
374 1 14.1518 17.2966 1.57242 -8.94974
375 1 15.7242 15.7242 -6.45892e-16 -8.94961
376 1 17.2967 17.2967 1.57241 -8.94952
377 1 18.8691 15.7242 1.65488e-15 -8.94966
378 1 20.4415 17.2966 1.57242 -8.94963
379 1 22.0139 18.8691 1.5066e-15 -8.94963
380 1 1.57242 20.4415 1.57242 -8.94962
381 1 3.14484 18.8691 1.63918e-15 -8.94962
382 1 4.71727 20.4415 1.57242 -8.94965
383 1 6.28969 18.8691 1.86951e-15 -8.94964
384 1 7.86211 20.4415 1.57242 -8.94963
385 1 9.43453 18.8691 9.86859e-16 -8.94964
386 1 11.007 20.4415 1.57242 -8.94964
387 1 12.5794 18.8691 4.31414e-16 -8.94963
388 1 14.1518 20.4415 1.57242 -8.94963
389 1 15.7242 18.8691 1.04145e-15 -8.94966
390 1 17.2966 20.4415 1.57242 -8.94963
391 1 18.8691 18.8691 1.68962e-15 -8.94962
392 1 20.4415 20.4415 1.57242 -8.94963
393 1 1.57241 11.007 4.71725 -8.94962
394 1 4.71712 11.007 4.71706 -8.94887
395 1 7.86235 11.007 4.7171 -8.95027
396 1 11.008 11.007 4.71011 -8.9884
397 1 14.1534 11.007 4.71548 -8.94797
398 1 17.2968 11.007 4.71716 -8.94953
399 1 20.4415 11.007 4.71726 -8.94965
400 1 4.46066e-07 12.5794 3.14484 -8.94963
401 1 1.57241 14.1518 4.71726 -8.94962
402 1 3.14484 12.5794 3.14484 -8.94964
403 1 4.71717 14.1518 4.71719 -8.95003
404 1 6.2896 12.5793 3.14472 -8.94978
405 1 7.8612 14.1527 4.71487 -8.95283
406 1 9.43407 12.5798 3.14393 -8.94891
407 1 11.0064 14.1525 4.71583 -8.95113
408 1 12.58 12.58 3.14256 -8.95379
409 1 14.1545 14.1545 4.71445 -8.93923
410 1 15.7243 12.5794 3.14475 -8.94968
411 1 17.2969 14.1519 4.71715 -8.94993
412 1 18.8691 12.5794 3.14484 -8.94962
413 1 20.4415 14.1518 4.71726 -8.94967
414 1 22.0139 15.7242 3.14484 -8.94964
415 1 1.5724 17.2966 4.71725 -8.94963
416 1 3.14484 15.7242 3.14484 -8.94972
417 1 4.71702 17.2969 4.71701 -8.94845
418 1 6.28954 15.7244 3.14454 -8.94977
419 1 7.86214 17.2967 4.71722 -8.95
420 1 9.43452 15.7244 3.14469 -8.9493
421 1 11.007 17.2968 4.71712 -8.94937
422 1 12.5793 15.7243 3.14479 -8.95003
423 1 14.1519 17.2969 4.71713 -8.94982
424 1 15.7245 15.7245 3.14458 -8.94843
425 1 17.2967 17.2967 4.71725 -8.94962
426 1 18.8691 15.7242 3.14483 -8.94964
427 1 20.4415 17.2966 4.71726 -8.94963
428 1 22.0139 18.8691 3.14484 -8.94963
429 1 1.57242 20.4415 4.71726 -8.94964
430 1 3.14483 18.8691 3.14483 -8.94952
431 1 4.71725 20.4415 4.71725 -8.94963
432 1 6.28969 18.8691 3.14484 -8.94974
433 1 7.86211 20.4415 4.71726 -8.94962
434 1 9.43453 18.8691 3.14484 -8.94966
435 1 11.007 20.4415 4.71726 -8.94963
436 1 12.5794 18.8691 3.14484 -8.94962
437 1 14.1518 20.4415 4.71725 -8.94966
438 1 15.7242 18.8691 3.14483 -8.94962
439 1 17.2966 20.4415 4.71726 -8.94963
440 1 18.8691 18.8691 3.14484 -8.94964
441 1 20.4415 20.4415 4.71726 -8.94963
442 1 1.57228 11.007 7.86204 -8.94955
443 1 4.71636 11.007 7.86139 -8.94617
444 1 7.86386 11.007 7.86217 -8.87927
445 1 11.0971 11.007 7.67041 -8.12546
446 1 14.1616 11.007 7.85942 -8.96948
447 1 17.2977 11.007 7.86206 -8.95131
448 1 20.4415 11.007 7.8621 -8.94985
449 1 22.0139 12.5794 6.28968 -8.94968
450 1 1.57225 14.1518 7.86208 -8.95006
451 1 3.14465 12.5794 6.28958 -8.94958
452 1 4.71508 14.1524 7.8615 -8.9538
453 1 6.28835 12.5788 6.28882 -8.94923
454 1 7.84114 14.1711 7.84124 -8.87339
455 1 9.42832 12.5872 6.28645 -8.92345
456 1 11.0129 14.156 7.85308 -8.92029
457 1 12.6006 12.5994 6.26835 -8.87394
458 1 14.1555 14.155 7.86015 -8.93955
459 1 15.7264 12.5799 6.28907 -8.9535
460 1 17.297 14.152 7.86204 -8.94997
461 1 18.8692 12.5794 6.28965 -8.95003
462 1 20.4415 14.1518 7.8621 -8.94972
463 1 22.0139 15.7242 6.28968 -8.94968
464 1 1.57239 17.2967 7.86209 -8.94961
465 1 3.14458 15.7243 6.28957 -8.94993
466 1 4.71694 17.297 7.86184 -8.94847
467 1 6.28705 15.7268 6.28685 -8.93955
468 1 7.86155 17.2988 7.86149 -8.95365
469 1 9.43497 15.7256 6.28899 -8.95083
470 1 11.0074 17.2976 7.86158 -8.94894
471 1 12.5802 15.7265 6.28878 -8.95285
472 1 14.152 17.297 7.86204 -8.94978
473 1 15.7245 15.7245 6.28946 -8.94888
474 1 17.2966 17.2966 7.86211 -8.94972
475 1 18.8691 15.7242 6.28967 -8.94963
476 1 20.4415 17.2966 7.86211 -8.94963
477 1 -1.34928e-06 18.8691 6.28969 -8.94963
478 1 1.57242 20.4415 7.86211 -8.94965
479 1 3.14483 18.8691 6.28967 -8.9496
480 1 4.71724 20.4415 7.86209 -8.9496
481 1 6.28956 18.8693 6.28956 -8.94995
482 1 7.86208 20.4416 7.86207 -8.95006
483 1 9.43457 18.8692 6.28961 -8.9496
484 1 11.007 20.4416 7.86206 -8.9497
485 1 12.5794 18.8693 6.28961 -8.95
486 1 14.1518 20.4415 7.8621 -8.94967
487 1 15.7242 18.8691 6.28968 -8.94963
488 1 17.2966 20.4415 7.86211 -8.94964
489 1 18.8691 18.8691 6.28969 -8.94964
490 1 20.4415 20.4415 7.86211 -8.94963
491 1 22.0138 12.5794 9.43452 -8.94986
492 1 3.14383 12.5793 9.43444 -8.95132
493 1 6.2806 12.5808 9.43406 -8.96721
494 1 9.35218 12.7853 9.43904 -8.03111
495 1 12.5946 12.5987 9.41187 -8.83083
496 1 15.7266 12.5801 9.43436 -8.95156
497 1 18.8693 12.5794 9.43452 -8.94999
498 1 22.0139 15.7242 9.43452 -8.94969
499 1 3.14439 15.7244 9.43441 -8.94966
500 1 6.28561 15.7284 9.43185 -8.93737
501 1 9.43394 15.7314 9.43412 -8.99157
502 1 12.5801 15.7267 9.43357 -8.95265
503 1 15.7244 15.7244 9.43453 -8.94926
504 1 18.8691 15.7242 9.43453 -8.94959
505 1 22.0139 18.8691 9.43453 -8.94964
506 1 3.14484 18.8691 9.43453 -8.94975
507 1 6.28945 18.8695 9.4344 -8.94966
508 1 9.43464 18.8701 9.43446 -8.95084
509 1 12.5795 18.8693 9.43445 -8.94986
510 1 15.7242 18.8691 9.43453 -8.94963
511 1 18.8691 18.8691 9.43453 -8.94964
688 3 10.1655 11.007 9.39404 2.60571
512 1 1.57218 11.007 11.007 -8.94944
513 1 4.71595 11.007 11.007 -8.94398
514 1 7.86434 11.007 11.007 -8.79323
515 1 11.265 11.007 11.007 -7.20692
516 1 14.155 11.007 11.007 -9.00273
517 1 17.2975 11.007 11.007 -8.94982
518 1 20.4415 11.007 11.007 -8.94981
519 1 1.5721 14.1518 11.007 -8.95054
520 1 4.71288 14.1529 11.007 -8.95666
521 1 7.82111 14.1894 11.007 -8.78657
522 1 11.022 14.1593 11.007 -8.88865
523 1 14.1541 14.1529 11.007 -8.95435
524 1 17.297 14.152 11.007 -8.94941
525 1 20.4415 14.1518 11.007 -8.94973
526 1 1.5724 17.2967 11.007 -8.94961
527 1 4.71704 17.2968 11.007 -8.94986
528 1 7.86091 17.3009 11.007 -8.95647
529 1 11.0078 17.2984 11.007 -8.94886
530 1 14.1519 17.2968 11.007 -8.94985
531 1 17.2967 17.2967 11.007 -8.94964
532 1 20.4415 17.2966 11.007 -8.94963
533 1 1.57242 20.4415 11.007 -8.94964
534 1 4.71725 20.4415 11.007 -8.9496
535 1 7.86204 20.4418 11.007 -8.95054
536 1 11.007 20.4417 11.007 -8.94979
537 1 14.1518 20.4415 11.007 -8.94966
538 1 17.2966 20.4415 11.007 -8.94963
539 1 20.4415 20.4415 11.007 -8.94963
540 1 1.57228 11.007 14.1519 -8.94955
541 1 4.71636 11.007 14.1525 -8.94617
542 1 7.86386 11.007 14.1517 -8.87927
543 1 11.0971 11.007 14.3435 -8.12546
544 1 14.1616 11.007 14.1545 -8.96948
545 1 17.2977 11.007 14.1518 -8.95131
546 1 20.4415 11.007 14.1518 -8.94985
547 1 22.0138 12.5794 12.5794 -8.94986
548 1 1.57225 14.1518 14.1518 -8.95006
549 1 3.14383 12.5793 12.5795 -8.95132
550 1 4.71508 14.1524 14.1524 -8.9538
551 1 6.2806 12.5808 12.5798 -8.96721
552 1 7.84114 14.1711 14.1727 -8.87339
553 1 9.35218 12.7853 12.5749 -8.03111
554 1 11.0129 14.156 14.1608 -8.92029
555 1 12.5946 12.5987 12.602 -8.83083
556 1 14.1555 14.155 14.1537 -8.93955
557 1 15.7266 12.5801 12.5795 -8.95156
558 1 17.297 14.152 14.1519 -8.94997
559 1 18.8693 12.5794 12.5794 -8.94999
560 1 20.4415 14.1518 14.1518 -8.94972
561 1 22.0139 15.7242 12.5794 -8.94969
562 1 1.57239 17.2967 14.1518 -8.94961
563 1 3.14439 15.7244 12.5795 -8.94966
564 1 4.71694 17.297 14.1521 -8.94847
565 1 6.28561 15.7284 12.5821 -8.93737
566 1 7.86155 17.2988 14.1524 -8.95365
567 1 9.43394 15.7314 12.5798 -8.99157
568 1 11.0074 17.2976 14.1523 -8.94894
569 1 12.5801 15.7267 12.5803 -8.95265
570 1 14.152 17.297 14.1519 -8.94978
571 1 15.7244 15.7244 12.5794 -8.94926
572 1 17.2966 17.2966 14.1518 -8.94972
573 1 18.8691 15.7242 12.5794 -8.94959
574 1 20.4415 17.2966 14.1518 -8.94963
575 1 22.0139 18.8691 12.5794 -8.94964
576 1 1.57242 20.4415 14.1518 -8.94965
577 1 3.14484 18.8691 12.5794 -8.94975
578 1 4.71724 20.4415 14.1518 -8.9496
579 1 6.28945 18.8695 12.5795 -8.94966
580 1 7.86208 20.4416 14.1518 -8.95006
581 1 9.43464 18.8701 12.5794 -8.95084
582 1 11.007 20.4416 14.1518 -8.9497
583 1 12.5795 18.8693 12.5794 -8.94986
584 1 14.1518 20.4415 14.1518 -8.94967
585 1 15.7242 18.8691 12.5794 -8.94963
586 1 17.2966 20.4415 14.1518 -8.94964
587 1 18.8691 18.8691 12.5794 -8.94964
588 1 20.4415 20.4415 14.1518 -8.94963
589 1 1.57241 11.007 17.2966 -8.94962
590 1 4.71712 11.007 17.2968 -8.94887
591 1 7.86235 11.007 17.2968 -8.95027
592 1 11.008 11.007 17.3038 -8.9884
593 1 14.1534 11.007 17.2984 -8.94797
594 1 17.2968 11.007 17.2967 -8.94953
595 1 20.4415 11.007 17.2966 -8.94965
596 1 22.0139 12.5794 15.7242 -8.94968
597 1 1.57241 14.1518 17.2966 -8.94962
598 1 3.14465 12.5794 15.7243 -8.94958
599 1 4.71717 14.1518 17.2967 -8.95003
600 1 6.28835 12.5788 15.7251 -8.94923
601 1 7.8612 14.1527 17.299 -8.95283
602 1 9.42832 12.5872 15.7275 -8.92345
603 1 11.0064 14.1525 17.2981 -8.95113
604 1 12.6006 12.5994 15.7455 -8.87394
605 1 14.1545 14.1545 17.2994 -8.93923
606 1 15.7264 12.5799 15.7248 -8.9535
607 1 17.2969 14.1519 17.2968 -8.94993
608 1 18.8692 12.5794 15.7242 -8.95003
609 1 20.4415 14.1518 17.2966 -8.94967
610 1 22.0139 15.7242 15.7242 -8.94968
611 1 1.5724 17.2966 17.2966 -8.94963
612 1 3.14458 15.7243 15.7243 -8.94993
613 1 4.71702 17.2969 17.2969 -8.94845
614 1 6.28705 15.7268 15.7271 -8.93955
615 1 7.86214 17.2967 17.2967 -8.95
616 1 9.43497 15.7256 15.7249 -8.95083
617 1 11.007 17.2968 17.2968 -8.94937
618 1 12.5802 15.7265 15.7251 -8.95285
619 1 14.1519 17.2969 17.2968 -8.94982
620 1 15.7245 15.7245 15.7244 -8.94888
621 1 17.2967 17.2967 17.2967 -8.94962
622 1 18.8691 15.7242 15.7242 -8.94963
623 1 20.4415 17.2966 17.2966 -8.94963
624 1 -1.34928e-06 18.8691 15.7242 -8.94963
625 1 1.57242 20.4415 17.2966 -8.94964
626 1 3.14483 18.8691 15.7242 -8.9496
627 1 4.71725 20.4415 17.2967 -8.94963
628 1 6.28956 18.8693 15.7243 -8.94995
629 1 7.86211 20.4415 17.2966 -8.94962
630 1 9.43457 18.8692 15.7243 -8.9496
631 1 11.007 20.4415 17.2966 -8.94963
632 1 12.5794 18.8693 15.7243 -8.95
633 1 14.1518 20.4415 17.2966 -8.94966
634 1 15.7242 18.8691 15.7242 -8.94963
635 1 17.2966 20.4415 17.2966 -8.94963
636 1 18.8691 18.8691 15.7242 -8.94964
637 1 20.4415 20.4415 17.2966 -8.94963
638 1 1.57242 11.007 20.4415 -8.94964
639 1 4.71725 11.007 20.4415 -8.94961
640 1 7.86208 11.007 20.4415 -8.94948
641 1 11.0069 11.007 20.4424 -8.9514
642 1 14.1519 11.007 20.4417 -8.94947
643 1 17.2966 11.007 20.4415 -8.94969
644 1 20.4415 11.007 20.4415 -8.94963
645 1 4.46066e-07 12.5794 18.8691 -8.94963
646 1 1.57242 14.1518 20.4415 -8.94963
647 1 3.14484 12.5794 18.8691 -8.94964
648 1 4.71726 14.1518 20.4415 -8.94966
649 1 6.2896 12.5793 18.8692 -8.94978
650 1 7.86203 14.1519 20.4417 -8.95006
651 1 9.43407 12.5798 18.87 -8.94891
652 1 11.0069 14.1519 20.4416 -8.94962
653 1 12.58 12.58 18.8713 -8.95379
654 1 14.1519 14.1519 20.4417 -8.94992
655 1 15.7243 12.5794 18.8692 -8.94968
656 1 17.2966 14.1518 20.4415 -8.94971
657 1 18.8691 12.5794 18.8691 -8.94962
658 1 20.4415 14.1518 20.4415 -8.94963
659 1 22.0139 15.7242 18.8691 -8.94964
660 1 1.57242 17.2966 20.4415 -8.94964
661 1 3.14484 15.7242 18.8691 -8.94972
662 1 4.71725 17.2967 20.4415 -8.94961
663 1 6.28954 15.7244 18.8694 -8.94977
664 1 7.86211 17.2966 20.4415 -8.94962
665 1 9.43452 15.7244 18.8692 -8.9493
666 1 11.007 17.2966 20.4415 -8.94966
667 1 12.5793 15.7243 18.8691 -8.95003
668 1 14.1518 17.2966 20.4415 -8.94974
669 1 15.7245 15.7245 18.8693 -8.94843
670 1 17.2967 17.2967 20.4415 -8.94952
671 1 18.8691 15.7242 18.8691 -8.94964
672 1 20.4415 17.2966 20.4415 -8.94963
673 1 22.0139 18.8691 18.8691 -8.94963
674 1 1.57242 20.4415 20.4415 -8.94962
675 1 3.14483 18.8691 18.8691 -8.94952
676 1 4.71727 20.4415 20.4415 -8.94965
677 1 6.28969 18.8691 18.8691 -8.94974
678 1 7.86211 20.4415 20.4415 -8.94963
679 1 9.43453 18.8691 18.8691 -8.94966
680 1 11.007 20.4415 20.4415 -8.94964
681 1 12.5794 18.8691 18.8691 -8.94962
682 1 14.1518 20.4415 20.4415 -8.94963
683 1 15.7242 18.8691 18.8691 -8.94962
684 1 17.2966 20.4415 20.4415 -8.94963
685 1 18.8691 18.8691 18.8691 -8.94964
686 1 20.4415 20.4415 20.4415 -8.94963
687 3 10.1655 11.007 12.6199 2.60571
