ITEM: TIMESTEP
49
ITEM: NUMBER OF ATOMS
688
ITEM: BOX BOUNDS pp pp pp
0.0000000000000000e+00 2.2013900999999997e+01
0.0000000000000000e+00 2.2013900999999997e+01
0.0000000000000000e+00 2.2013900999999997e+01
ITEM: ATOMS id type x y z c_pot
1 1 22.0139 9.5804e-16 1.55504e-15 -8.94963
2 1 1.57242 1.57242 1.57242 -8.94963
3 1 3.14484 1.95999e-15 6.79414e-16 -8.94964
4 1 4.71727 1.57242 1.57242 -8.94964
5 1 6.28969 1.61363e-15 1.91797e-15 -8.94963
6 1 7.86211 1.57242 1.57242 -8.94963
7 1 9.43453 1.98695e-15 1.54676e-15 -8.94963
8 1 11.007 1.57242 1.57242 -8.94964
9 1 12.5794 1.89909e-15 9.00771e-16 -8.94963
10 1 14.1518 1.57242 1.57242 -8.94963
11 1 15.7242 -1.26343e-15 -3.07214e-16 -8.94963
12 1 17.2966 1.57242 1.57242 -8.94963
13 1 18.8691 1.16151e-15 5.83335e-16 -8.94963
14 1 20.4415 1.57242 1.57242 -8.94963
15 1 22.0139 3.14484 1.11869e-15 -8.94963
16 1 1.57242 4.71726 1.57242 -8.94964
17 1 3.14484 3.14484 1.62813e-15 -8.94963
18 1 4.71725 4.71725 1.57241 -8.94962
19 1 6.28969 3.14484 1.73122e-15 -8.94964
20 1 7.86211 4.71726 1.57242 -8.94963
21 1 9.43453 3.14484 1.06261e-15 -8.94964
22 1 11.007 4.71726 1.57242 -8.94965
23 1 12.5794 3.14484 4.45003e-16 -8.94963
24 1 14.1518 4.71727 1.57242 -8.94972
25 1 15.7242 3.14484 3.03483e-16 -8.94965
26 1 17.2966 4.71725 1.57241 -8.94955
27 1 18.8691 3.14484 1.24983e-15 -8.94962
28 1 20.4415 4.71726 1.57242 -8.94963
29 1 22.0139 6.28969 1.90764e-15 -8.94963
30 1 1.57242 7.86211 1.57242 -8.94963
31 1 3.14484 6.28969 2.0267e-15 -8.94964
32 1 4.71726 7.86211 1.57242 -8.94965
33 1 6.28967 6.28967 1.57438e-15 -8.94967
34 1 7.86205 7.86205 1.57227 -8.94993
35 1 9.43453 6.28968 -2.04032e-16 -8.94963
36 1 11.0069 7.86206 1.57233 -8.94962
37 1 12.5794 6.28969 1.27789e-15 -8.94962
38 1 14.1519 7.862 1.57223 -8.94982
39 1 15.7242 6.28967 -1.22943e-15 -8.94961
40 1 17.2966 7.86211 1.57242 -8.9497
41 1 18.8691 6.28969 1.76553e-15 -8.94965
42 1 20.4415 7.86211 1.57242 -8.94963
43 1 22.0139 9.43453 1.53971e-15 -8.94963
44 1 3.14484 9.43453 5.79973e-16 -8.94963
45 1 6.28968 9.43453 1.23158e-15 -8.94967
46 1 9.43447 9.43447 1.70283e-15 -8.94973
47 1 12.5794 9.43447 -2.47537e-16 -8.95033
48 1 15.7242 9.43453 -1.68809e-16 -8.94961
49 1 18.8691 9.43453 1.48639e-15 -8.94964
50 1 2.54429e-08 4.46303e-16 3.14484 -8.94963
51 1 1.57242 1.57242 4.71726 -8.94964
52 1 3.14484 -6.97795e-17 3.14484 -8.94963
53 1 4.71726 1.57241 4.71726 -8.94963
54 1 6.28969 2.11638e-15 3.14484 -8.94964
55 1 7.86211 1.57242 4.71726 -8.94963
56 1 9.43453 2.57032e-15 3.14484 -8.94964
57 1 11.007 1.57242 4.71726 -8.94963
58 1 12.5794 9.25758e-16 3.14484 -8.94963
59 1 14.1518 1.57241 4.71726 -8.94965
60 1 15.7242 -2.11671e-16 3.14484 -8.94963
61 1 17.2966 1.57242 4.71726 -8.94963
62 1 18.8691 3.56482e-16 3.14484 -8.94963
63 1 20.4415 1.57242 4.71726 -8.94963
64 1 22.0139 3.14484 3.14484 -8.94963
65 1 1.57241 4.71726 4.71726 -8.94963
66 1 3.14483 3.14483 3.14483 -8.94956
67 1 4.7171 4.71709 4.71709 -8.94871
68 1 6.28969 3.14485 3.14485 -8.94972
69 1 7.86214 4.71724 4.71725 -8.95001
70 1 9.43453 3.14484 3.14484 -8.94965
71 1 11.0069 4.71717 4.71717 -8.94946
72 1 12.5794 3.14484 3.14484 -8.94963
73 1 14.1519 4.71707 4.71717 -8.94978
74 1 15.7242 3.14483 3.14483 -8.94963
75 1 17.2966 4.71726 4.71726 -8.94963
76 1 18.8691 3.14484 3.14484 -8.94964
77 1 20.4415 4.71726 4.71726 -8.94963
78 1 22.0139 6.28969 3.14484 -8.94963
79 1 1.57242 7.86211 4.71726 -8.94963
80 1 3.14484 6.28969 3.14484 -8.9497
81 1 4.7172 7.8621 4.71722 -8.94997
82 1 6.28959 6.28959 3.14463 -8.94973
83 1 7.8614 7.86143 4.71538 -8.95234
84 1 9.43453 6.28959 3.14475 -8.94941
85 1 11.0065 7.86164 4.71621 -8.9512
86 1 12.5793 6.28967 3.14482 -8.95003
87 1 14.1539 7.86 4.7151 -8.9406
88 1 15.7244 6.28951 3.14467 -8.9487
89 1 17.2968 7.86203 4.71719 -8.94986
90 1 18.8691 6.28968 3.14484 -8.94963
91 1 20.4415 7.8621 4.71726 -8.94966
92 1 3.71795e-07 9.43453 3.14484 -8.94963
93 1 3.14484 9.43453 3.14484 -8.94965
94 1 6.28963 9.43458 3.14476 -8.94979
95 1 9.43412 9.43413 3.14407 -8.94889
96 1 12.5799 9.434 3.14302 -8.95307
97 1 15.7243 9.43452 3.1448 -8.94976
98 1 18.8691 9.43453 3.14484 -8.94962
99 1 22.0139 5.14275e-16 6.28969 -8.94963
100 1 1.57242 1.57242 7.86211 -8.94964
101 1 3.14484 2.65756e-16 6.28969 -8.94963
102 1 4.71725 1.5724 7.8621 -8.94961
103 1 6.28968 7.44908e-16 6.28968 -8.94969
104 1 7.86208 1.5723 7.86208 -8.94997
105 1 9.43453 1.8535e-15 6.28968 -8.94965
106 1 11.007 1.57234 7.86207 -8.94969
107 1 12.5794 1.19305e-15 6.28968 -8.94967
108 1 14.1518 1.5724 7.8621 -8.94966
109 1 15.7242 1.62625e-15 6.28969 -8.94964
110 1 17.2966 1.57242 7.86211 -8.94963
111 1 18.8691 1.65305e-15 6.28969 -8.94963
112 1 20.4415 1.57242 7.86211 -8.94963
113 1 -5.70403e-07 3.14484 6.28969 -8.94963
114 1 1.5724 4.71725 7.8621 -8.94961
115 1 3.14483 3.14484 6.28968 -8.94962
116 1 4.71705 4.71706 7.86193 -8.94883
117 1 6.2896 3.14466 6.28959 -8.94986
118 1 7.86162 4.71557 7.86159 -8.95303
119 1 9.43456 3.14474 6.28964 -8.94961
120 1 11.0073 4.71645 7.86165 -8.94889
121 1 12.5794 3.14469 6.28963 -8.9499
122 1 14.1519 4.71699 7.86206 -8.94979
123 1 15.7242 3.14483 6.28968 -8.94963
124 1 17.2966 4.71726 7.86211 -8.94971
125 1 18.8691 3.14484 6.28969 -8.94964
126 1 20.4415 4.71726 7.86211 -8.94963
127 1 22.0139 6.28968 6.28968 -8.94966
128 1 1.57231 7.86209 7.86209 -8.94997
129 1 3.14467 6.28961 6.28961 -8.94986
130 1 4.71556 7.86165 7.86163 -8.9532
131 1 6.28765 6.28764 6.2875 -8.94086
132 1 7.84382 7.84513 7.8438 -8.87705
133 1 9.43491 6.28866 6.2892 -8.95103
134 1 11.0122 7.8585 7.85454 -8.92283
135 1 12.58 6.28789 6.28901 -8.95247
136 1 14.1548 7.85953 7.86052 -8.94078
137 1 15.7244 6.28949 6.28952 -8.94908
138 1 17.2969 7.86198 7.86205 -8.94988
139 1 18.8691 6.28967 6.28968 -8.94962
140 1 20.4415 7.8621 7.8621 -8.9497
141 1 22.0139 9.43453 6.28968 -8.94967
142 1 3.1447 9.43453 6.28961 -8.94961
143 1 6.28857 9.43487 6.28894 -8.94911
144 1 9.429 9.42775 6.28661 -8.92505
145 1 12.5979 9.41689 6.27114 -8.87631
146 1 15.7259 9.43409 6.28922 -8.95306
147 1 18.8692 9.43451 6.28966 -8.94995
148 1 -7.42307e-09 2.2501e-15 9.43453 -8.94963
149 1 3.14484 1.76384e-15 9.43453 -8.94964
150 1 6.28967 1.78419e-15 9.43452 -8.9497
151 1 9.43454 1.41067e-15 9.43452 -8.95002
152 1 12.5794 1.84352e-15 9.43452 -8.94967
153 1 15.7242 1.43856e-15 9.43453 -8.94964
154 1 18.8691 1.32345e-15 9.43453 -8.94963
155 1 22.0139 3.14484 9.43453 -8.94964
156 1 3.14484 3.14484 9.43453 -8.94973
157 1 6.28952 3.14451 9.43443 -8.94962
158 1 9.43461 3.14393 9.43449 -8.95108
159 1 12.5794 3.14465 9.43447 -8.94981
160 1 15.7242 3.14483 9.43453 -8.94963
161 1 18.8691 3.14484 9.43453 -8.94964
162 1 22.0139 6.28968 9.43453 -8.94967
163 1 3.14453 6.28954 9.43445 -8.94965
164 1 6.28657 6.28649 9.43245 -8.93955
165 1 9.43408 6.28231 9.43424 -8.98887
166 1 12.5799 6.2877 9.4338 -8.95261
167 1 15.7244 6.28953 9.43452 -8.94938
168 1 18.8691 6.28967 9.43453 -8.9496
169 1 22.0139 9.43453 9.43452 -8.94982
170 1 3.14404 9.43458 9.43446 -8.95126
171 1 6.28132 9.43327 9.43409 -8.96638
172 1 9.35461 9.23874 9.43819 -8.02705
173 1 12.5937 9.41695 9.41513 -8.83655
174 1 15.7262 9.43385 9.43436 -8.95135
175 1 18.8692 9.43449 9.43452 -8.94994
176 1 1.57242 1.57242 11.007 -8.94964
177 1 4.71726 1.57241 11.007 -8.94961
178 1 7.86205 1.57218 11.007 -8.95034
179 1 11.007 1.57228 11.007 -8.94976
180 1 14.1518 1.57241 11.007 -8.94966
181 1 17.2966 1.57242 11.007 -8.94963
182 1 20.4415 1.57242 11.007 -8.94963
183 1 1.57241 4.71726 11.007 -8.94962
184 1 4.71714 4.71715 11.007 -8.94998
185 1 7.86108 4.71381 11.007 -8.95532
186 1 11.0077 4.71576 11.007 -8.94859
187 1 14.1519 4.71712 11.007 -8.94989
188 1 17.2966 4.71726 11.007 -8.94966
189 1 20.4415 4.71726 11.007 -8.94963
190 1 1.5722 7.86207 11.007 -8.95034
191 1 4.71384 7.86121 11.007 -8.9557
192 1 7.82632 7.82907 11.007 -8.79608
193 1 11.0198 7.85544 11.007 -8.89405
194 1 14.1537 7.86106 11.007 -8.95337
195 1 17.2969 7.86195 11.007 -8.94945
196 1 20.4415 7.8621 11.007 -8.9497
197 1 -7.42307e-09 2.31993e-15 12.5794 -8.94963
198 1 1.57242 1.57242 14.1518 -8.94964
199 1 3.14484 1.77247e-15 12.5794 -8.94964
200 1 4.71725 1.5724 14.1518 -8.94961
201 1 6.28967 1.83761e-15 12.5794 -8.9497
202 1 7.86208 1.5723 14.1518 -8.94997
203 1 9.43454 1.8299e-15 12.5794 -8.95002
204 1 11.007 1.57234 14.1518 -8.94969
205 1 12.5794 1.9428e-15 12.5794 -8.94967
206 1 14.1518 1.5724 14.1518 -8.94966
207 1 15.7242 1.31899e-15 12.5794 -8.94964
208 1 17.2966 1.57242 14.1518 -8.94963
209 1 18.8691 1.62385e-15 12.5794 -8.94963
210 1 20.4415 1.57242 14.1518 -8.94963
211 1 22.0139 3.14484 12.5794 -8.94964
212 1 1.5724 4.71725 14.1518 -8.94961
213 1 3.14484 3.14484 12.5794 -8.94973
214 1 4.71705 4.71706 14.152 -8.94883
215 1 6.28952 3.14451 12.5795 -8.94962
216 1 7.86162 4.71557 14.1523 -8.95303
217 1 9.43461 3.14393 12.5794 -8.95108
218 1 11.0073 4.71645 14.1523 -8.94889
219 1 12.5794 3.14465 12.5794 -8.94981
220 1 14.1519 4.71699 14.1518 -8.94979
221 1 15.7242 3.14483 12.5794 -8.94963
222 1 17.2966 4.71726 14.1518 -8.94971
223 1 18.8691 3.14484 12.5794 -8.94964
224 1 20.4415 4.71726 14.1518 -8.94963
225 1 22.0139 6.28968 12.5794 -8.94967
226 1 1.57231 7.86209 14.1518 -8.94997
227 1 3.14453 6.28954 12.5795 -8.94965
228 1 4.71556 7.86165 14.1523 -8.9532
229 1 6.28657 6.28649 12.5814 -8.93955
230 1 7.84382 7.84513 14.1701 -8.87705
231 1 9.43408 6.28231 12.5797 -8.98887
232 1 11.0122 7.8585 14.1594 -8.92283
233 1 12.5799 6.2877 12.5801 -8.95261
234 1 14.1548 7.85953 14.1534 -8.94078
235 1 15.7244 6.28953 12.5794 -8.94938
236 1 17.2969 7.86198 14.1519 -8.94988
237 1 18.8691 6.28967 12.5794 -8.9496
238 1 20.4415 7.8621 14.1518 -8.9497
239 1 22.0139 9.43453 12.5794 -8.94982
240 1 3.14404 9.43458 12.5794 -8.95126
241 1 6.28132 9.43327 12.5798 -8.96638
242 1 9.35461 9.23874 12.5757 -8.02705
243 1 12.5937 9.41695 12.5988 -8.83655
244 1 15.7262 9.43385 12.5795 -8.95135
245 1 18.8692 9.43449 12.5794 -8.94994
246 1 22.0139 1.94646e-16 15.7242 -8.94963
247 1 1.57242 1.57242 17.2966 -8.94964
248 1 3.14484 7.66091e-16 15.7242 -8.94963
249 1 4.71726 1.57241 17.2966 -8.94963
250 1 6.28968 1.0538e-15 15.7242 -8.94969
251 1 7.86211 1.57242 17.2966 -8.94963
252 1 9.43453 1.79872e-15 15.7242 -8.94965
253 1 11.007 1.57242 17.2966 -8.94963
254 1 12.5794 1.13295e-15 15.7242 -8.94967
255 1 14.1518 1.57241 17.2966 -8.94965
256 1 15.7242 1.64038e-15 15.7242 -8.94964
257 1 17.2966 1.57242 17.2966 -8.94963
258 1 18.8691 1.63358e-15 15.7242 -8.94963
259 1 20.4415 1.57242 17.2966 -8.94963
260 1 -5.70403e-07 3.14484 15.7242 -8.94963
261 1 1.57241 4.71726 17.2966 -8.94963
262 1 3.14483 3.14484 15.7242 -8.94962
263 1 4.7171 4.71709 17.2968 -8.94871
264 1 6.2896 3.14466 15.7243 -8.94986
265 1 7.86214 4.71724 17.2967 -8.95001
266 1 9.43456 3.14474 15.7243 -8.94961
267 1 11.0069 4.71717 17.2967 -8.94946
268 1 12.5794 3.14469 15.7243 -8.9499
269 1 14.1519 4.71707 17.2967 -8.94978
270 1 15.7242 3.14483 15.7242 -8.94963
271 1 17.2966 4.71726 17.2966 -8.94963
272 1 18.8691 3.14484 15.7242 -8.94964
273 1 20.4415 4.71726 17.2966 -8.94963
274 1 22.0139 6.28968 15.7242 -8.94966
275 1 1.57242 7.86211 17.2966 -8.94963
276 1 3.14467 6.28961 15.7243 -8.94986
277 1 4.7172 7.8621 17.2967 -8.94997
278 1 6.28765 6.28764 15.7264 -8.94086
279 1 7.8614 7.86143 17.2985 -8.95234
280 1 9.43491 6.28866 15.7247 -8.95103
281 1 11.0065 7.86164 17.2977 -8.9512
282 1 12.58 6.28789 15.7249 -8.95247
283 1 14.1539 7.86 17.2988 -8.9406
284 1 15.7244 6.28949 15.7244 -8.94908
285 1 17.2968 7.86203 17.2967 -8.94986
286 1 18.8691 6.28967 15.7242 -8.94962
287 1 20.4415 7.8621 17.2966 -8.94966
288 1 22.0139 9.43453 15.7242 -8.94967
289 1 3.1447 9.43453 15.7243 -8.94961
290 1 6.28857 9.43487 15.725 -8.94911
291 1 9.429 9.42775 15.7273 -8.92505
292 1 12.5979 9.41689 15.7428 -8.87631
293 1 15.7259 9.43409 15.7247 -8.95306
294 1 18.8692 9.43451 15.7242 -8.94995
295 1 2.54429e-08 1.10281e-15 18.8691 -8.94963
296 1 1.57242 1.57242 20.4415 -8.94963
297 1 3.14484 -1.86613e-16 18.8691 -8.94963
298 1 4.71727 1.57242 20.4415 -8.94964
299 1 6.28969 1.75502e-15 18.8691 -8.94964
300 1 7.86211 1.57242 20.4415 -8.94963
301 1 9.43453 2.5125e-15 18.8691 -8.94964
302 1 11.007 1.57242 20.4415 -8.94964
303 1 12.5794 1.12458e-15 18.8691 -8.94963
304 1 14.1518 1.57242 20.4415 -8.94963
305 1 15.7242 -2.79157e-16 18.8691 -8.94963
306 1 17.2966 1.57242 20.4415 -8.94963
307 1 18.8691 1.05943e-16 18.8691 -8.94963
308 1 20.4415 1.57242 20.4415 -8.94963
309 1 22.0139 3.14484 18.8691 -8.94963
310 1 1.57242 4.71726 20.4415 -8.94964
311 1 3.14483 3.14483 18.8691 -8.94956
312 1 4.71725 4.71725 20.4415 -8.94962
313 1 6.28969 3.14485 18.8691 -8.94972
314 1 7.86211 4.71726 20.4415 -8.94963
315 1 9.43453 3.14484 18.8691 -8.94965
316 1 11.007 4.71726 20.4415 -8.94965
317 1 12.5794 3.14484 18.8691 -8.94963
318 1 14.1518 4.71727 20.4415 -8.94972
319 1 15.7242 3.14483 18.8691 -8.94963
320 1 17.2966 4.71725 20.4415 -8.94955
321 1 18.8691 3.14484 18.8691 -8.94964
322 1 20.4415 4.71726 20.4415 -8.94963
323 1 22.0139 6.28969 18.8691 -8.94963
324 1 1.57242 7.86211 20.4415 -8.94963
325 1 3.14484 6.28969 18.8691 -8.9497
326 1 4.71726 7.86211 20.4415 -8.94965
327 1 6.28959 6.28959 18.8693 -8.94973
328 1 7.86205 7.86205 20.4416 -8.94993
329 1 9.43453 6.28959 18.8692 -8.94941
330 1 11.0069 7.86206 20.4416 -8.94962
331 1 12.5793 6.28967 18.8691 -8.95003
332 1 14.1519 7.862 20.4417 -8.94982
333 1 15.7244 6.28951 18.8692 -8.9487
334 1 17.2966 7.86211 20.4415 -8.9497
335 1 18.8691 6.28968 18.8691 -8.94963
336 1 20.4415 7.86211 20.4415 -8.94963
337 1 3.71795e-07 9.43453 18.8691 -8.94963
338 1 3.14484 9.43453 18.8691 -8.94965
339 1 6.28963 9.43458 18.8691 -8.94979
340 1 9.43412 9.43413 18.8698 -8.94889
341 1 12.5799 9.434 18.8709 -8.95307
342 1 15.7243 9.43452 18.8691 -8.94976
343 1 18.8691 9.43453 18.8691 -8.94962
344 1 1.57242 11.007 1.57242 -8.94964
345 1 4.71725 11.007 1.57241 -8.94961
346 1 7.86209 11.007 1.57238 -8.94955
347 1 11.0069 11.007 1.57161 -8.95155
348 1 14.1519 11.007 1.57228 -8.9495
349 1 17.2966 11.007 1.57242 -8.94968
350 1 20.4415 11.007 1.57242 -8.94963
351 1 22.0139 12.5794 1.32779e-15 -8.94963
352 1 1.57242 14.1518 1.57242 -8.94963
353 1 3.14484 12.5794 3.23937e-16 -8.94963
354 1 4.71726 14.1518 1.57242 -8.94965
355 1 6.28968 12.5794 1.41538e-15 -8.94967
356 1 7.86205 14.1519 1.57227 -8.94993
357 1 9.43447 12.5794 1.55103e-15 -8.94973
358 1 11.0069 14.1518 1.57233 -8.94962
359 1 12.5794 12.5794 -2.21055e-16 -8.95033
360 1 14.1519 14.1519 1.57223 -8.94982
361 1 15.7242 12.5794 -1.48809e-16 -8.94961
362 1 17.2966 14.1518 1.57242 -8.9497
363 1 18.8691 12.5794 1.74313e-15 -8.94964
364 1 20.4415 14.1518 1.57242 -8.94963
365 1 22.0139 15.7242 2.15439e-15 -8.94963
366 1 1.57242 17.2966 1.57242 -8.94964
367 1 3.14484 15.7242 1.84188e-15 -8.94964
368 1 4.71725 17.2966 1.57241 -8.94962
369 1 6.28967 15.7242 1.616e-15 -8.94967
370 1 7.86211 17.2966 1.57242 -8.94963
371 1 9.43453 15.7242 3.49805e-16 -8.94963
372 1 11.007 17.2966 1.57242 -8.94965
373 1 12.5794 15.7242 1.03007e-15 -8.94962
374 1 14.1518 17.2966 1.57242 -8.94972
375 1 15.7242 15.7242 -7.48267e-16 -8.94961
376 1 17.2966 17.2966 1.57241 -8.94955
377 1 18.8691 15.7242 1.81689e-15 -8.94965
378 1 20.4415 17.2966 1.57242 -8.94963
379 1 22.0139 18.8691 1.44398e-15 -8.94963
380 1 1.57242 20.4415 1.57242 -8.94963
381 1 3.14484 18.8691 1.62735e-15 -8.94963
382 1 4.71727 20.4415 1.57242 -8.94964
383 1 6.28969 18.8691 1.73104e-15 -8.94964
384 1 7.86211 20.4415 1.57242 -8.94963
385 1 9.43453 18.8691 8.39074e-16 -8.94964
386 1 11.007 20.4415 1.57242 -8.94964
387 1 12.5794 18.8691 2.96613e-16 -8.94963
388 1 14.1518 20.4415 1.57242 -8.94963
389 1 15.7242 18.8691 7.61288e-16 -8.94965
390 1 17.2966 20.4415 1.57242 -8.94963
391 1 18.8691 18.8691 1.58926e-15 -8.94962
392 1 20.4415 20.4415 1.57242 -8.94963
393 1 1.57241 11.007 4.71726 -8.94962
394 1 4.71717 11.007 4.71713 -8.94905
395 1 7.8623 11.007 4.71707 -8.95062
396 1 11.0077 11.007 4.70987 -8.98641
397 1 14.153 11.007 4.71595 -8.94873
398 1 17.2968 11.007 4.7172 -8.94956
399 1 20.4415 11.007 4.71726 -8.94964
400 1 3.71795e-07 12.5794 3.14484 -8.94963
401 1 1.57242 14.1518 4.71726 -8.94963
402 1 3.14484 12.5794 3.14484 -8.94965
403 1 4.7172 14.1518 4.71722 -8.94997
404 1 6.28963 12.5793 3.14476 -8.94979
405 1 7.8614 14.1525 4.71538 -8.95234
406 1 9.43412 12.5798 3.14407 -8.94889
407 1 11.0065 14.1523 4.71621 -8.9512
408 1 12.5799 12.5799 3.14302 -8.95307
409 1 14.1539 14.1539 4.7151 -8.9406
410 1 15.7243 12.5794 3.1448 -8.94976
411 1 17.2968 14.1519 4.71719 -8.94986
412 1 18.8691 12.5794 3.14484 -8.94962
413 1 20.4415 14.1518 4.71726 -8.94966
414 1 22.0139 15.7242 3.14484 -8.94963
415 1 1.57241 17.2966 4.71726 -8.94963
416 1 3.14484 15.7242 3.14484 -8.9497
417 1 4.7171 17.2968 4.71709 -8.94871
418 1 6.28959 15.7243 3.14463 -8.94973
419 1 7.86214 17.2967 4.71725 -8.95001
420 1 9.43453 15.7243 3.14475 -8.94941
421 1 11.0069 17.2967 4.71717 -8.94946
422 1 12.5793 15.7242 3.14482 -8.95003
423 1 14.1519 17.2968 4.71717 -8.94978
424 1 15.7244 15.7244 3.14467 -8.9487
425 1 17.2966 17.2966 4.71726 -8.94963
426 1 18.8691 15.7242 3.14484 -8.94963
427 1 20.4415 17.2966 4.71726 -8.94963
428 1 22.0139 18.8691 3.14484 -8.94963
429 1 1.57242 20.4415 4.71726 -8.94964
430 1 3.14483 18.8691 3.14483 -8.94956
431 1 4.71726 20.4415 4.71726 -8.94963
432 1 6.28969 18.8691 3.14485 -8.94972
433 1 7.86211 20.4415 4.71726 -8.94963
434 1 9.43453 18.8691 3.14484 -8.94965
435 1 11.007 20.4415 4.71726 -8.94963
436 1 12.5794 18.8691 3.14484 -8.94963
437 1 14.1518 20.4415 4.71726 -8.94965
438 1 15.7242 18.8691 3.14483 -8.94963
439 1 17.2966 20.4415 4.71726 -8.94963
440 1 18.8691 18.8691 3.14484 -8.94964
441 1 20.4415 20.4415 4.71726 -8.94963
442 1 1.57232 11.007 7.86206 -8.9496
443 1 4.71645 11.007 7.86151 -8.94688
444 1 7.86245 11.007 7.86107 -8.88308
445 1 11.0941 11.007 7.67602 -8.11901
446 1 14.1605 11.007 7.86004 -8.96913
447 1 17.2975 11.007 7.86207 -8.95121
448 1 20.4415 11.007 7.8621 -8.94981
449 1 22.0139 12.5794 6.28968 -8.94967
450 1 1.57231 14.1518 7.86209 -8.94997
451 1 3.1447 12.5794 6.28961 -8.94961
452 1 4.71556 14.1522 7.86163 -8.9532
453 1 6.28857 12.579 6.28894 -8.94911
454 1 7.84382 14.1688 7.8438 -8.87705
455 1 9.429 12.5861 6.28661 -8.92505
456 1 11.0122 14.1554 7.85454 -8.92283
457 1 12.5979 12.597 6.27114 -8.87631
458 1 14.1548 14.1544 7.86052 -8.94078
459 1 15.7259 12.5798 6.28922 -8.95306
460 1 17.2969 14.1519 7.86205 -8.94988
461 1 18.8692 12.5794 6.28966 -8.94995
462 1 20.4415 14.1518 7.8621 -8.9497
463 1 22.0139 15.7242 6.28968 -8.94966
464 1 1.5724 17.2966 7.8621 -8.94961
465 1 3.14467 15.7243 6.28961 -8.94986
466 1 4.71705 17.2968 7.86193 -8.94883
467 1 6.28765 15.7263 6.2875 -8.94086
468 1 7.86162 17.2983 7.86159 -8.95303
469 1 9.43491 15.7252 6.2892 -8.95103
470 1 11.0073 17.2975 7.86165 -8.94889
471 1 12.58 15.726 6.28901 -8.95247
472 1 14.1519 17.2969 7.86206 -8.94979
473 1 15.7244 15.7244 6.28952 -8.94908
474 1 17.2966 17.2966 7.86211 -8.94971
475 1 18.8691 15.7242 6.28968 -8.94962
476 1 20.4415 17.2966 7.86211 -8.94963
477 1 -5.70403e-07 18.8691 6.28969 -8.94963
478 1 1.57242 20.4415 7.86211 -8.94964
479 1 3.14483 18.8691 6.28968 -8.94962
480 1 4.71725 20.4415 7.8621 -8.94961
481 1 6.2896 18.8692 6.28959 -8.94986
482 1 7.86208 20.4416 7.86208 -8.94997
483 1 9.43456 18.8692 6.28964 -8.94961
484 1 11.007 20.4416 7.86207 -8.94969
485 1 12.5794 18.8692 6.28963 -8.9499
486 1 14.1518 20.4415 7.8621 -8.94966
487 1 15.7242 18.8691 6.28968 -8.94963
488 1 17.2966 20.4415 7.86211 -8.94963
489 1 18.8691 18.8691 6.28969 -8.94964
490 1 20.4415 20.4415 7.86211 -8.94963
491 1 22.0139 12.5794 9.43452 -8.94982
492 1 3.14404 12.5793 9.43446 -8.95126
493 1 6.28132 12.5806 9.43409 -8.96638
494 1 9.35461 12.7752 9.43819 -8.02705
495 1 12.5937 12.597 9.41513 -8.83655
496 1 15.7262 12.5801 9.43436 -8.95135
497 1 18.8692 12.5794 9.43452 -8.94994
498 1 22.0139 15.7242 9.43453 -8.94967
499 1 3.14453 15.7244 9.43445 -8.94965
500 1 6.28657 15.7274 9.43245 -8.93955
501 1 9.43408 15.7316 9.43424 -8.98887
502 1 12.5799 15.7262 9.4338 -8.95261
503 1 15.7244 15.7244 9.43452 -8.94938
504 1 18.8691 15.7242 9.43453 -8.9496
505 1 22.0139 18.8691 9.43453 -8.94964
506 1 3.14484 18.8691 9.43453 -8.94973
507 1 6.28952 18.8694 9.43443 -8.94962
508 1 9.43461 18.87 9.43449 -8.95108
509 1 12.5794 18.8692 9.43447 -8.94981
510 1 15.7242 18.8691 9.43453 -8.94963
511 1 18.8691 18.8691 9.43453 -8.94964
688 3 10.1706 11.007 9.39761 2.68091
512 1 1.57224 11.007 11.007 -8.94955
513 1 4.71598 11.007 11.007 -8.94504
514 1 7.86207 11.007 11.007 -8.80156
515 1 11.2519 11.007 11.007 -7.17551
516 1 14.1558 11.007 11.007 -8.99881
517 1 17.2974 11.007 11.007 -8.95016
518 1 20.4415 11.007 11.007 -8.9498
519 1 1.5722 14.1518 11.007 -8.95034
520 1 4.71384 14.1527 11.007 -8.9557
521 1 7.82632 14.1848 11.007 -8.79608
522 1 11.0198 14.1585 11.007 -8.89405
523 1 14.1537 14.1528 11.007 -8.95337
524 1 17.2969 14.1519 11.007 -8.94945
525 1 20.4415 14.1518 11.007 -8.9497
526 1 1.57241 17.2966 11.007 -8.94962
527 1 4.71714 17.2967 11.007 -8.94998
528 1 7.86108 17.3001 11.007 -8.95532
529 1 11.0077 17.2981 11.007 -8.94859
530 1 14.1519 17.2968 11.007 -8.94989
531 1 17.2966 17.2966 11.007 -8.94966
532 1 20.4415 17.2966 11.007 -8.94963
533 1 1.57242 20.4415 11.007 -8.94964
534 1 4.71726 20.4415 11.007 -8.94961
535 1 7.86205 20.4417 11.007 -8.95034
536 1 11.007 20.4416 11.007 -8.94976
537 1 14.1518 20.4415 11.007 -8.94966
538 1 17.2966 20.4415 11.007 -8.94963
539 1 20.4415 20.4415 11.007 -8.94963
540 1 1.57232 11.007 14.1518 -8.9496
541 1 4.71645 11.007 14.1524 -8.94688
542 1 7.86245 11.007 14.1528 -8.88308
543 1 11.0941 11.007 14.3379 -8.11901
544 1 14.1605 11.007 14.1539 -8.96913
545 1 17.2975 11.007 14.1518 -8.95121
546 1 20.4415 11.007 14.1518 -8.94981
547 1 22.0139 12.5794 12.5794 -8.94982
548 1 1.57231 14.1518 14.1518 -8.94997
549 1 3.14404 12.5793 12.5794 -8.95126
550 1 4.71556 14.1522 14.1523 -8.9532
551 1 6.28132 12.5806 12.5798 -8.96638
552 1 7.84382 14.1688 14.1701 -8.87705
553 1 9.35461 12.7752 12.5757 -8.02705
554 1 11.0122 14.1554 14.1594 -8.92283
555 1 12.5937 12.597 12.5988 -8.83655
556 1 14.1548 14.1544 14.1534 -8.94078
557 1 15.7262 12.5801 12.5795 -8.95135
558 1 17.2969 14.1519 14.1519 -8.94988
559 1 18.8692 12.5794 12.5794 -8.94994
560 1 20.4415 14.1518 14.1518 -8.9497
561 1 22.0139 15.7242 12.5794 -8.94967
562 1 1.5724 17.2966 14.1518 -8.94961
563 1 3.14453 15.7244 12.5795 -8.94965
564 1 4.71705 17.2968 14.152 -8.94883
565 1 6.28657 15.7274 12.5814 -8.93955
566 1 7.86162 17.2983 14.1523 -8.95303
567 1 9.43408 15.7316 12.5797 -8.98887
568 1 11.0073 17.2975 14.1523 -8.94889
569 1 12.5799 15.7262 12.5801 -8.95261
570 1 14.1519 17.2969 14.1518 -8.94979
571 1 15.7244 15.7244 12.5794 -8.94938
572 1 17.2966 17.2966 14.1518 -8.94971
573 1 18.8691 15.7242 12.5794 -8.9496
574 1 20.4415 17.2966 14.1518 -8.94963
575 1 22.0139 18.8691 12.5794 -8.94964
576 1 1.57242 20.4415 14.1518 -8.94964
577 1 3.14484 18.8691 12.5794 -8.94973
578 1 4.71725 20.4415 14.1518 -8.94961
579 1 6.28952 18.8694 12.5795 -8.94962
580 1 7.86208 20.4416 14.1518 -8.94997
581 1 9.43461 18.87 12.5794 -8.95108
582 1 11.007 20.4416 14.1518 -8.94969
583 1 12.5794 18.8692 12.5794 -8.94981
584 1 14.1518 20.4415 14.1518 -8.94966
585 1 15.7242 18.8691 12.5794 -8.94963
586 1 17.2966 20.4415 14.1518 -8.94963
587 1 18.8691 18.8691 12.5794 -8.94964
588 1 20.4415 20.4415 14.1518 -8.94963
589 1 1.57241 11.007 17.2966 -8.94962
590 1 4.71717 11.007 17.2968 -8.94905
591 1 7.8623 11.007 17.2968 -8.95062
592 1 11.0077 11.007 17.304 -8.98641
593 1 14.153 11.007 17.298 -8.94873
594 1 17.2968 11.007 17.2967 -8.94956
595 1 20.4415 11.007 17.2966 -8.94964
596 1 22.0139 12.5794 15.7242 -8.94967
597 1 1.57242 14.1518 17.2966 -8.94963
598 1 3.1447 12.5794 15.7243 -8.94961
599 1 4.7172 14.1518 17.2967 -8.94997
600 1 6.28857 12.579 15.725 -8.94911
601 1 7.8614 14.1525 17.2985 -8.95234
602 1 9.429 12.5861 15.7273 -8.92505
603 1 11.0065 14.1523 17.2977 -8.9512
604 1 12.5979 12.597 15.7428 -8.87631
605 1 14.1539 14.1539 17.2988 -8.9406
606 1 15.7259 12.5798 15.7247 -8.95306
607 1 17.2968 14.1519 17.2967 -8.94986
608 1 18.8692 12.5794 15.7242 -8.94995
609 1 20.4415 14.1518 17.2966 -8.94966
610 1 22.0139 15.7242 15.7242 -8.94966
611 1 1.57241 17.2966 17.2966 -8.94963
612 1 3.14467 15.7243 15.7243 -8.94986
613 1 4.7171 17.2968 17.2968 -8.94871
614 1 6.28765 15.7263 15.7264 -8.94086
615 1 7.86214 17.2967 17.2967 -8.95001
616 1 9.43491 15.7252 15.7247 -8.95103
617 1 11.0069 17.2967 17.2967 -8.94946
618 1 12.58 15.726 15.7249 -8.95247
619 1 14.1519 17.2968 17.2967 -8.94978
620 1 15.7244 15.7244 15.7244 -8.94908
621 1 17.2966 17.2966 17.2966 -8.94963
622 1 18.8691 15.7242 15.7242 -8.94962
623 1 20.4415 17.2966 17.2966 -8.94963
624 1 -5.70403e-07 18.8691 15.7242 -8.94963
625 1 1.57242 20.4415 17.2966 -8.94964
626 1 3.14483 18.8691 15.7242 -8.94962
627 1 4.71726 20.4415 17.2966 -8.94963
628 1 6.2896 18.8692 15.7243 -8.94986
629 1 7.86211 20.4415 17.2966 -8.94963
630 1 9.43456 18.8692 15.7243 -8.94961
631 1 11.007 20.4415 17.2966 -8.94963
632 1 12.5794 18.8692 15.7243 -8.9499
633 1 14.1518 20.4415 17.2966 -8.94965
634 1 15.7242 18.8691 15.7242 -8.94963
635 1 17.2966 20.4415 17.2966 -8.94963
636 1 18.8691 18.8691 15.7242 -8.94964
637 1 20.4415 20.4415 17.2966 -8.94963
638 1 1.57242 11.007 20.4415 -8.94964
639 1 4.71725 11.007 20.4415 -8.94961
640 1 7.86209 11.007 20.4415 -8.94955
641 1 11.0069 11.007 20.4423 -8.95155
642 1 14.1519 11.007 20.4416 -8.9495
643 1 17.2966 11.007 20.4415 -8.94968
644 1 20.4415 11.007 20.4415 -8.94963
645 1 3.71795e-07 12.5794 18.8691 -8.94963
646 1 1.57242 14.1518 20.4415 -8.94963
647 1 3.14484 12.5794 18.8691 -8.94965
648 1 4.71726 14.1518 20.4415 -8.94965
649 1 6.28963 12.5793 18.8691 -8.94979
650 1 7.86205 14.1519 20.4416 -8.94993
651 1 9.43412 12.5798 18.8698 -8.94889
652 1 11.0069 14.1518 20.4416 -8.94962
653 1 12.5799 12.5799 18.8709 -8.95307
654 1 14.1519 14.1519 20.4417 -8.94982
655 1 15.7243 12.5794 18.8691 -8.94976
656 1 17.2966 14.1518 20.4415 -8.9497
657 1 18.8691 12.5794 18.8691 -8.94962
658 1 20.4415 14.1518 20.4415 -8.94963
659 1 22.0139 15.7242 18.8691 -8.94963
660 1 1.57242 17.2966 20.4415 -8.94964
661 1 3.14484 15.7242 18.8691 -8.9497
662 1 4.71725 17.2966 20.4415 -8.94962
663 1 6.28959 15.7243 18.8693 -8.94973
664 1 7.86211 17.2966 20.4415 -8.94963
665 1 9.43453 15.7243 18.8692 -8.94941
666 1 11.007 17.2966 20.4415 -8.94965
667 1 12.5793 15.7242 18.8691 -8.95003
668 1 14.1518 17.2966 20.4415 -8.94972
669 1 15.7244 15.7244 18.8692 -8.9487
670 1 17.2966 17.2966 20.4415 -8.94955
671 1 18.8691 15.7242 18.8691 -8.94963
672 1 20.4415 17.2966 20.4415 -8.94963
673 1 22.0139 18.8691 18.8691 -8.94963
674 1 1.57242 20.4415 20.4415 -8.94963
675 1 3.14483 18.8691 18.8691 -8.94956
676 1 4.71727 20.4415 20.4415 -8.94964
677 1 6.28969 18.8691 18.8691 -8.94972
678 1 7.86211 20.4415 20.4415 -8.94963
679 1 9.43453 18.8691 18.8691 -8.94965
680 1 11.007 20.4415 20.4415 -8.94964
681 1 12.5794 18.8691 18.8691 -8.94963
682 1 14.1518 20.4415 20.4415 -8.94963
683 1 15.7242 18.8691 18.8691 -8.94963
684 1 17.2966 20.4415 20.4415 -8.94963
685 1 18.8691 18.8691 18.8691 -8.94964
686 1 20.4415 20.4415 20.4415 -8.94963
687 3 10.1706 11.007 12.6163 2.68091
