ITEM: TIMESTEP
41
ITEM: NUMBER OF ATOMS
688
ITEM: BOX BOUNDS pp pp pp
0.0000000000000000e+00 2.2013900999999997e+01
0.0000000000000000e+00 2.2013900999999997e+01
0.0000000000000000e+00 2.2013900999999997e+01
ITEM: ATOMS id type x y z c_pot
1 1 22.0139 2.7553e-16 9.59698e-16 -8.94963
2 1 1.57242 1.57242 1.57242 -8.94963
3 1 3.14484 7.11533e-16 3.4837e-16 -8.94963
4 1 4.71726 1.57242 1.57242 -8.94963
5 1 6.28969 4.89369e-16 9.96194e-16 -8.94963
6 1 7.86211 1.57242 1.57242 -8.94963
7 1 9.43453 1.00157e-15 8.56473e-16 -8.94963
8 1 11.007 1.57242 1.57242 -8.94963
9 1 12.5794 9.85764e-16 3.63367e-16 -8.94963
10 1 14.1518 1.57242 1.57242 -8.94963
11 1 15.7242 -5.70127e-16 -1.92452e-16 -8.94963
12 1 17.2966 1.57242 1.57242 -8.94963
13 1 18.8691 7.67234e-16 3.35633e-16 -8.94963
14 1 20.4415 1.57242 1.57242 -8.94963
15 1 22.0139 3.14484 6.33569e-16 -8.94963
16 1 1.57242 4.71726 1.57242 -8.94963
17 1 3.14484 3.14484 6.67538e-16 -8.94963
18 1 4.71726 4.71726 1.57242 -8.94963
19 1 6.28969 3.14484 1.37414e-15 -8.94963
20 1 7.86211 4.71726 1.57242 -8.94963
21 1 9.43453 3.14484 3.24578e-16 -8.94963
22 1 11.007 4.71726 1.57242 -8.94963
23 1 12.5794 3.14484 2.14004e-16 -8.94963
24 1 14.1518 4.71726 1.57242 -8.94964
25 1 15.7242 3.14484 6.87447e-17 -8.94963
26 1 17.2966 4.71726 1.57242 -8.94963
27 1 18.8691 3.14484 6.77236e-16 -8.94963
28 1 20.4415 4.71726 1.57242 -8.94963
29 1 22.0139 6.28969 1.10959e-15 -8.94963
30 1 1.57242 7.86211 1.57242 -8.94963
31 1 3.14484 6.28969 1.61196e-15 -8.94963
32 1 4.71726 7.86211 1.57242 -8.94963
33 1 6.28969 6.28969 9.63213e-16 -8.94963
34 1 7.8621 7.8621 1.57241 -8.94964
35 1 9.43453 6.28969 5.4366e-17 -8.94964
36 1 11.0069 7.86211 1.57242 -8.94964
37 1 12.5794 6.28969 4.82687e-16 -8.94964
38 1 14.1518 7.8621 1.57241 -8.94962
39 1 15.7242 6.28969 -3.0503e-16 -8.94963
40 1 17.2966 7.86211 1.57242 -8.94964
41 1 18.8691 6.28969 7.46164e-16 -8.94963
42 1 20.4415 7.86211 1.57242 -8.94963
43 1 22.0139 9.43453 6.65859e-16 -8.94963
44 1 3.14484 9.43453 7.43528e-16 -8.94963
45 1 6.28969 9.43453 6.11258e-16 -8.94964
46 1 9.43452 9.43452 1.24713e-15 -8.94965
47 1 12.5794 9.43452 -1.42613e-16 -8.94971
48 1 15.7242 9.43453 -1.71091e-16 -8.94964
49 1 18.8691 9.43453 4.96885e-16 -8.94963
50 1 5.70578e-10 5.57318e-16 3.14484 -8.94963
51 1 1.57242 1.57242 4.71726 -8.94963
52 1 3.14484 -1.92441e-16 3.14484 -8.94963
53 1 4.71726 1.57242 4.71726 -8.94963
54 1 6.28969 1.34684e-15 3.14484 -8.94963
55 1 7.86211 1.57242 4.71726 -8.94963
56 1 9.43453 1.27043e-15 3.14484 -8.94963
57 1 11.007 1.57242 4.71726 -8.94963
58 1 12.5794 4.54368e-16 3.14484 -8.94963
59 1 14.1518 1.57242 4.71726 -8.94963
60 1 15.7242 4.13466e-17 3.14484 -8.94963
61 1 17.2966 1.57242 4.71726 -8.94963
62 1 18.8691 9.08157e-17 3.14484 -8.94963
63 1 20.4415 1.57242 4.71726 -8.94963
64 1 22.0139 3.14484 3.14484 -8.94963
65 1 1.57242 4.71726 4.71726 -8.94963
66 1 3.14484 3.14484 3.14484 -8.94963
67 1 4.71726 4.71726 4.71726 -8.94954
68 1 6.28969 3.14484 3.14484 -8.94964
69 1 7.86211 4.71727 4.71727 -8.9498
70 1 9.43453 3.14484 3.14484 -8.94963
71 1 11.0069 4.71727 4.71726 -8.94965
72 1 12.5794 3.14484 3.14484 -8.94963
73 1 14.1518 4.71726 4.71726 -8.94965
74 1 15.7242 3.14484 3.14484 -8.94963
75 1 17.2966 4.71726 4.71726 -8.94964
76 1 18.8691 3.14484 3.14484 -8.94963
77 1 20.4415 4.71726 4.71726 -8.94963
78 1 22.0139 6.28969 3.14484 -8.94963
79 1 1.57242 7.86211 4.71726 -8.94963
80 1 3.14484 6.28969 3.14484 -8.94964
81 1 4.71726 7.8621 4.71726 -8.94971
82 1 6.28968 6.28968 3.14483 -8.94964
83 1 7.86203 7.86204 4.71705 -8.95027
84 1 9.43453 6.28969 3.14485 -8.94965
85 1 11.0069 7.86216 4.71726 -8.95125
86 1 12.5794 6.28969 3.14485 -8.9498
87 1 14.152 7.86189 4.71704 -8.9474
88 1 15.7242 6.28968 3.14484 -8.94954
89 1 17.2966 7.8621 4.71726 -8.94966
90 1 18.8691 6.28969 3.14484 -8.94963
91 1 20.4415 7.86211 4.71726 -8.94963
92 1 2.36116e-08 9.43453 3.14484 -8.94963
93 1 3.14484 9.43453 3.14484 -8.94964
94 1 6.28968 9.43453 3.14484 -8.9497
95 1 9.43444 9.43444 3.14471 -8.94911
96 1 12.5795 9.43443 3.14461 -8.9501
97 1 15.7242 9.43453 3.14485 -8.94978
98 1 18.8691 9.43453 3.14484 -8.94963
99 1 22.0139 1.94679e-16 6.28969 -8.94963
100 1 1.57242 1.57242 7.86211 -8.94963
101 1 3.14484 2.50896e-16 6.28969 -8.94963
102 1 4.71726 1.57242 7.86211 -8.94963
103 1 6.28969 2.47578e-16 6.28969 -8.94963
104 1 7.86211 1.57241 7.86211 -8.94967
105 1 9.43453 9.46061e-16 6.28969 -8.94963
106 1 11.007 1.57242 7.86211 -8.94964
107 1 12.5794 7.13853e-16 6.28969 -8.94963
108 1 14.1518 1.57242 7.86211 -8.94964
109 1 15.7242 7.24328e-16 6.28969 -8.94963
110 1 17.2966 1.57242 7.86211 -8.94963
111 1 18.8691 9.99628e-16 6.28969 -8.94963
112 1 20.4415 1.57242 7.86211 -8.94963
113 1 8.88142e-09 3.14484 6.28969 -8.94963
114 1 1.57242 4.71726 7.86211 -8.94963
115 1 3.14484 3.14484 6.28969 -8.94964
116 1 4.71726 4.71727 7.8621 -8.94968
117 1 6.28968 3.14483 6.28968 -8.94963
118 1 7.86201 4.71704 7.86202 -8.95021
119 1 9.43453 3.14484 6.28969 -8.94964
120 1 11.007 4.71714 7.86202 -8.94911
121 1 12.5794 3.14483 6.28968 -8.94964
122 1 14.1518 4.71725 7.86211 -8.9497
123 1 15.7242 3.14484 6.28969 -8.94963
124 1 17.2966 4.71727 7.86211 -8.94965
125 1 18.8691 3.14484 6.28969 -8.94963
126 1 20.4415 4.71726 7.86211 -8.94963
127 1 22.0139 6.28969 6.28969 -8.94963
128 1 1.57242 7.86211 7.86211 -8.94967
129 1 3.14483 6.28968 6.28968 -8.94965
130 1 4.71708 7.86205 7.86205 -8.95052
131 1 6.28947 6.28947 6.28946 -8.94741
132 1 7.85726 7.8575 7.85715 -8.90589
133 1 9.43458 6.28968 6.28974 -8.9513
134 1 11.0085 7.86115 7.8604 -8.93703
135 1 12.5794 6.28949 6.28962 -8.95041
136 1 14.1522 7.86176 7.86181 -8.94695
137 1 15.7242 6.28968 6.28967 -8.94962
138 1 17.2967 7.8621 7.8621 -8.94965
139 1 18.8691 6.28969 6.28969 -8.94963
140 1 20.4415 7.86211 7.86211 -8.94964
141 1 22.0139 9.43453 6.28969 -8.94963
142 1 3.14483 9.43453 6.28968 -8.94965
143 1 6.28949 9.43444 6.28954 -8.94907
144 1 9.43288 9.43272 6.28857 -8.93648
145 1 12.5842 9.42969 6.28492 -8.90561
146 1 15.7244 9.43448 6.28965 -8.95061
147 1 18.8691 9.43453 6.28969 -8.94967
148 1 -1.34096e-09 1.20369e-15 9.43453 -8.94963
149 1 3.14484 4.06122e-16 9.43453 -8.94963
150 1 6.28969 9.66135e-16 9.43453 -8.94963
151 1 9.43453 7.118e-16 9.43453 -8.94972
152 1 12.5794 1.06497e-15 9.43453 -8.94964
153 1 15.7242 6.11585e-16 9.43453 -8.94963
154 1 18.8691 6.34263e-16 9.43453 -8.94963
155 1 22.0139 3.14484 9.43453 -8.94963
156 1 3.14484 3.14484 9.43453 -8.94965
157 1 6.28968 3.14483 9.43452 -8.94962
158 1 9.43453 3.14468 9.43453 -8.95083
159 1 12.5794 3.14483 9.43452 -8.94968
160 1 15.7242 3.14484 9.43453 -8.94963
161 1 18.8691 3.14484 9.43453 -8.94963
162 1 22.0139 6.28969 9.43453 -8.94963
163 1 3.14483 6.28968 9.43452 -8.94963
164 1 6.28947 6.28946 9.43431 -8.94922
165 1 9.43448 6.28513 9.43459 -8.97283
166 1 12.5794 6.28942 9.43446 -8.95167
167 1 15.7242 6.28969 9.43452 -8.94973
168 1 18.8691 6.28969 9.43453 -8.94963
169 1 22.0139 9.43453 9.43453 -8.94966
170 1 3.14475 9.43453 9.43452 -8.95029
171 1 6.28684 9.43407 9.43439 -8.96067
172 1 9.3772 9.31186 9.43449 -7.99608
173 1 12.587 9.42703 9.42986 -8.87337
174 1 15.7246 9.43438 9.43447 -8.95053
175 1 18.8691 9.43453 9.43453 -8.94971
176 1 1.57242 1.57242 11.007 -8.94963
177 1 4.71727 1.57242 11.007 -8.94964
178 1 7.8621 1.57241 11.007 -8.94971
179 1 11.007 1.57241 11.007 -8.94965
180 1 14.1518 1.57242 11.007 -8.94964
181 1 17.2966 1.57242 11.007 -8.94963
182 1 20.4415 1.57242 11.007 -8.94963
183 1 1.57242 4.71726 11.007 -8.94963
184 1 4.71728 4.71728 11.007 -8.94992
185 1 7.86191 4.7168 11.007 -8.95044
186 1 11.0071 4.71701 11.007 -8.94858
187 1 14.1518 4.71725 11.007 -8.94977
188 1 17.2966 4.71727 11.007 -8.94965
189 1 20.4415 4.71726 11.007 -8.94963
190 1 1.57241 7.86211 11.007 -8.94971
191 1 4.71688 7.86201 11.007 -8.95121
192 1 7.85256 7.85302 11.007 -8.86167
193 1 11.0103 7.85999 11.007 -8.9235
194 1 14.1522 7.86182 11.007 -8.94966
195 1 17.2967 7.8621 11.007 -8.94964
196 1 20.4415 7.86211 11.007 -8.94964
197 1 -1.34096e-09 1.23665e-15 12.5794 -8.94963
198 1 1.57242 1.57242 14.1518 -8.94963
199 1 3.14484 4.14611e-16 12.5794 -8.94963
200 1 4.71726 1.57242 14.1518 -8.94963
201 1 6.28969 1.00419e-15 12.5794 -8.94963
202 1 7.86211 1.57241 14.1518 -8.94967
203 1 9.43453 7.75931e-16 12.5794 -8.94972
204 1 11.007 1.57242 14.1518 -8.94964
205 1 12.5794 1.15591e-15 12.5794 -8.94964
206 1 14.1518 1.57242 14.1518 -8.94964
207 1 15.7242 5.86467e-16 12.5794 -8.94963
208 1 17.2966 1.57242 14.1518 -8.94963
209 1 18.8691 6.33948e-16 12.5794 -8.94963
210 1 20.4415 1.57242 14.1518 -8.94963
211 1 22.0139 3.14484 12.5794 -8.94963
212 1 1.57242 4.71726 14.1518 -8.94963
213 1 3.14484 3.14484 12.5794 -8.94965
214 1 4.71726 4.71727 14.1518 -8.94968
215 1 6.28968 3.14483 12.5794 -8.94962
216 1 7.86201 4.71704 14.1519 -8.95021
217 1 9.43453 3.14468 12.5794 -8.95083
218 1 11.007 4.71714 14.1519 -8.94911
219 1 12.5794 3.14483 12.5794 -8.94968
220 1 14.1518 4.71725 14.1518 -8.9497
221 1 15.7242 3.14484 12.5794 -8.94963
222 1 17.2966 4.71727 14.1518 -8.94965
223 1 18.8691 3.14484 12.5794 -8.94963
224 1 20.4415 4.71726 14.1518 -8.94963
225 1 22.0139 6.28969 12.5794 -8.94963
226 1 1.57242 7.86211 14.1518 -8.94967
227 1 3.14483 6.28968 12.5794 -8.94963
228 1 4.71708 7.86205 14.1519 -8.95052
229 1 6.28947 6.28946 12.5796 -8.94922
230 1 7.85726 7.8575 14.1567 -8.90589
231 1 9.43448 6.28513 12.5793 -8.97283
232 1 11.0085 7.86115 14.1535 -8.93703
233 1 12.5794 6.28942 12.5794 -8.95167
234 1 14.1522 7.86176 14.1521 -8.94695
235 1 15.7242 6.28969 12.5794 -8.94973
236 1 17.2967 7.8621 14.1518 -8.94965
237 1 18.8691 6.28969 12.5794 -8.94963
238 1 20.4415 7.86211 14.1518 -8.94964
239 1 22.0139 9.43453 12.5794 -8.94966
240 1 3.14475 9.43453 12.5794 -8.95029
241 1 6.28684 9.43407 12.5795 -8.96067
242 1 9.3772 9.31186 12.5794 -7.99608
243 1 12.587 9.42703 12.584 -8.87337
244 1 15.7246 9.43438 12.5794 -8.95053
245 1 18.8691 9.43453 12.5794 -8.94971
246 1 22.0139 1.70979e-16 15.7242 -8.94963
247 1 1.57242 1.57242 17.2966 -8.94963
248 1 3.14484 3.16924e-16 15.7242 -8.94963
249 1 4.71726 1.57242 17.2966 -8.94963
250 1 6.28969 2.3612e-16 15.7242 -8.94963
251 1 7.86211 1.57242 17.2966 -8.94963
252 1 9.43453 1.06905e-15 15.7242 -8.94963
253 1 11.007 1.57242 17.2966 -8.94963
254 1 12.5794 5.47385e-16 15.7242 -8.94963
255 1 14.1518 1.57242 17.2966 -8.94963
256 1 15.7242 8.38568e-16 15.7242 -8.94963
257 1 17.2966 1.57242 17.2966 -8.94963
258 1 18.8691 1.07916e-15 15.7242 -8.94963
259 1 20.4415 1.57242 17.2966 -8.94963
260 1 8.88142e-09 3.14484 15.7242 -8.94963
261 1 1.57242 4.71726 17.2966 -8.94963
262 1 3.14484 3.14484 15.7242 -8.94964
263 1 4.71726 4.71726 17.2966 -8.94954
264 1 6.28968 3.14483 15.7242 -8.94963
265 1 7.86211 4.71727 17.2966 -8.9498
266 1 9.43453 3.14484 15.7242 -8.94964
267 1 11.0069 4.71727 17.2966 -8.94965
268 1 12.5794 3.14483 15.7242 -8.94964
269 1 14.1518 4.71726 17.2966 -8.94965
270 1 15.7242 3.14484 15.7242 -8.94963
271 1 17.2966 4.71726 17.2966 -8.94964
272 1 18.8691 3.14484 15.7242 -8.94963
273 1 20.4415 4.71726 17.2966 -8.94963
274 1 22.0139 6.28969 15.7242 -8.94963
275 1 1.57242 7.86211 17.2966 -8.94963
276 1 3.14483 6.28968 15.7242 -8.94965
277 1 4.71726 7.8621 17.2966 -8.94971
278 1 6.28947 6.28947 15.7244 -8.94741
279 1 7.86203 7.86204 17.2968 -8.95027
280 1 9.43458 6.28968 15.7242 -8.9513
281 1 11.0069 7.86216 17.2966 -8.95125
282 1 12.5794 6.28949 15.7243 -8.95041
283 1 14.152 7.86189 17.2969 -8.9474
284 1 15.7242 6.28968 15.7242 -8.94962
285 1 17.2966 7.8621 17.2966 -8.94966
286 1 18.8691 6.28969 15.7242 -8.94963
287 1 20.4415 7.86211 17.2966 -8.94963
288 1 22.0139 9.43453 15.7242 -8.94963
289 1 3.14483 9.43453 15.7242 -8.94965
290 1 6.28949 9.43444 15.7244 -8.94907
291 1 9.43288 9.43272 15.7253 -8.93648
292 1 12.5842 9.42969 15.729 -8.90561
293 1 15.7244 9.43448 15.7243 -8.95061
294 1 18.8691 9.43453 15.7242 -8.94967
295 1 5.70578e-10 4.60034e-16 18.8691 -8.94963
296 1 1.57242 1.57242 20.4415 -8.94963
297 1 3.14484 -1.97461e-16 18.8691 -8.94963
298 1 4.71726 1.57242 20.4415 -8.94963
299 1 6.28969 1.403e-15 18.8691 -8.94963
300 1 7.86211 1.57242 20.4415 -8.94963
301 1 9.43453 1.27676e-15 18.8691 -8.94963
302 1 11.007 1.57242 20.4415 -8.94963
303 1 12.5794 4.56925e-16 18.8691 -8.94963
304 1 14.1518 1.57242 20.4415 -8.94963
305 1 15.7242 -8.21002e-17 18.8691 -8.94963
306 1 17.2966 1.57242 20.4415 -8.94963
307 1 18.8691 4.39324e-17 18.8691 -8.94963
308 1 20.4415 1.57242 20.4415 -8.94963
309 1 22.0139 3.14484 18.8691 -8.94963
310 1 1.57242 4.71726 20.4415 -8.94963
311 1 3.14484 3.14484 18.8691 -8.94963
312 1 4.71726 4.71726 20.4415 -8.94963
313 1 6.28969 3.14484 18.8691 -8.94964
314 1 7.86211 4.71726 20.4415 -8.94963
315 1 9.43453 3.14484 18.8691 -8.94963
316 1 11.007 4.71726 20.4415 -8.94963
317 1 12.5794 3.14484 18.8691 -8.94963
318 1 14.1518 4.71726 20.4415 -8.94964
319 1 15.7242 3.14484 18.8691 -8.94963
320 1 17.2966 4.71726 20.4415 -8.94963
321 1 18.8691 3.14484 18.8691 -8.94963
322 1 20.4415 4.71726 20.4415 -8.94963
323 1 22.0139 6.28969 18.8691 -8.94963
324 1 1.57242 7.86211 20.4415 -8.94963
325 1 3.14484 6.28969 18.8691 -8.94964
326 1 4.71726 7.86211 20.4415 -8.94963
327 1 6.28968 6.28968 18.8691 -8.94964
328 1 7.8621 7.8621 20.4415 -8.94964
329 1 9.43453 6.28969 18.8691 -8.94965
330 1 11.0069 7.86211 20.4415 -8.94964
331 1 12.5794 6.28969 18.869 -8.9498
332 1 14.1518 7.8621 20.4415 -8.94962
333 1 15.7242 6.28968 18.8691 -8.94954
334 1 17.2966 7.86211 20.4415 -8.94964
335 1 18.8691 6.28969 18.8691 -8.94963
336 1 20.4415 7.86211 20.4415 -8.94963
337 1 2.36116e-08 9.43453 18.8691 -8.94963
338 1 3.14484 9.43453 18.8691 -8.94964
339 1 6.28968 9.43453 18.8691 -8.9497
340 1 9.43444 9.43444 18.8692 -8.94911
341 1 12.5795 9.43443 18.8693 -8.9501
342 1 15.7242 9.43453 18.869 -8.94978
343 1 18.8691 9.43453 18.8691 -8.94963
344 1 1.57242 11.007 1.57242 -8.94963
345 1 4.71726 11.007 1.57242 -8.94963
346 1 7.86211 11.007 1.57242 -8.94968
347 1 11.0069 11.007 1.57226 -8.95088
348 1 14.1518 11.007 1.57242 -8.94963
349 1 17.2966 11.007 1.57242 -8.94964
350 1 20.4415 11.007 1.57242 -8.94963
351 1 22.0139 12.5794 6.03608e-16 -8.94963
352 1 1.57242 14.1518 1.57242 -8.94963
353 1 3.14484 12.5794 7.21071e-16 -8.94963
354 1 4.71726 14.1518 1.57242 -8.94963
355 1 6.28969 12.5794 5.79531e-16 -8.94964
356 1 7.8621 14.1518 1.57241 -8.94964
357 1 9.43452 12.5794 1.18643e-15 -8.94965
358 1 11.0069 14.1518 1.57242 -8.94964
359 1 12.5794 12.5794 -1.31207e-16 -8.94971
360 1 14.1518 14.1518 1.57241 -8.94962
361 1 15.7242 12.5794 -1.97048e-16 -8.94964
362 1 17.2966 14.1518 1.57242 -8.94964
363 1 18.8691 12.5794 7.4737e-16 -8.94963
364 1 20.4415 14.1518 1.57242 -8.94963
365 1 22.0139 15.7242 9.81858e-16 -8.94963
366 1 1.57242 17.2966 1.57242 -8.94963
367 1 3.14484 15.7242 1.49593e-15 -8.94963
368 1 4.71726 17.2966 1.57242 -8.94963
369 1 6.28969 15.7242 1.08138e-15 -8.94963
370 1 7.86211 17.2966 1.57242 -8.94963
371 1 9.43453 15.7242 2.76833e-16 -8.94964
372 1 11.007 17.2966 1.57242 -8.94963
373 1 12.5794 15.7242 4.00864e-16 -8.94964
374 1 14.1518 17.2966 1.57242 -8.94964
375 1 15.7242 15.7242 -4.28849e-16 -8.94963
376 1 17.2966 17.2966 1.57242 -8.94963
377 1 18.8691 15.7242 8.37581e-16 -8.94963
378 1 20.4415 17.2966 1.57242 -8.94963
379 1 22.0139 18.8691 6.61086e-16 -8.94963
380 1 1.57242 20.4415 1.57242 -8.94963
381 1 3.14484 18.8691 7.6343e-16 -8.94963
382 1 4.71726 20.4415 1.57242 -8.94963
383 1 6.28969 18.8691 1.1511e-15 -8.94963
384 1 7.86211 20.4415 1.57242 -8.94963
385 1 9.43453 18.8691 2.56671e-16 -8.94963
386 1 11.007 20.4415 1.57242 -8.94963
387 1 12.5794 18.8691 1.89612e-16 -8.94963
388 1 14.1518 20.4415 1.57242 -8.94963
389 1 15.7242 18.8691 9.6658e-17 -8.94963
390 1 17.2966 20.4415 1.57242 -8.94963
391 1 18.8691 18.8691 1.0101e-15 -8.94963
392 1 20.4415 20.4415 1.57242 -8.94963
393 1 1.57242 11.007 4.71726 -8.94963
394 1 4.71728 11.007 4.71727 -8.94966
395 1 7.86217 11.007 4.7172 -8.95122
396 1 11.007 11.007 4.71262 -8.97155
397 1 14.1518 11.007 4.71725 -8.95145
398 1 17.2966 11.007 4.71726 -8.94962
399 1 20.4415 11.007 4.71726 -8.94963
400 1 2.36116e-08 12.5794 3.14484 -8.94963
401 1 1.57242 14.1518 4.71726 -8.94963
402 1 3.14484 12.5794 3.14484 -8.94964
403 1 4.71726 14.1518 4.71726 -8.94971
404 1 6.28968 12.5794 3.14484 -8.9497
405 1 7.86203 14.1519 4.71705 -8.95027
406 1 9.43444 12.5795 3.14471 -8.94911
407 1 11.0069 14.1517 4.71726 -8.95125
408 1 12.5795 12.5795 3.14461 -8.9501
409 1 14.152 14.152 4.71704 -8.9474
410 1 15.7242 12.5794 3.14485 -8.94978
411 1 17.2966 14.1518 4.71726 -8.94966
412 1 18.8691 12.5794 3.14484 -8.94963
413 1 20.4415 14.1518 4.71726 -8.94963
414 1 22.0139 15.7242 3.14484 -8.94963
415 1 1.57242 17.2966 4.71726 -8.94963
416 1 3.14484 15.7242 3.14484 -8.94964
417 1 4.71726 17.2966 4.71726 -8.94954
418 1 6.28968 15.7242 3.14483 -8.94964
419 1 7.86211 17.2966 4.71727 -8.9498
420 1 9.43453 15.7242 3.14485 -8.94965
421 1 11.0069 17.2966 4.71726 -8.94965
422 1 12.5794 15.7242 3.14485 -8.9498
423 1 14.1518 17.2966 4.71726 -8.94965
424 1 15.7242 15.7242 3.14484 -8.94954
425 1 17.2966 17.2966 4.71726 -8.94964
426 1 18.8691 15.7242 3.14484 -8.94963
427 1 20.4415 17.2966 4.71726 -8.94963
428 1 22.0139 18.8691 3.14484 -8.94963
429 1 1.57242 20.4415 4.71726 -8.94963
430 1 3.14484 18.8691 3.14484 -8.94963
431 1 4.71726 20.4415 4.71726 -8.94963
432 1 6.28969 18.8691 3.14484 -8.94964
433 1 7.86211 20.4415 4.71726 -8.94963
434 1 9.43453 18.8691 3.14484 -8.94963
435 1 11.007 20.4415 4.71726 -8.94963
436 1 12.5794 18.8691 3.14484 -8.94963
437 1 14.1518 20.4415 4.71726 -8.94963
438 1 15.7242 18.8691 3.14484 -8.94963
439 1 17.2966 20.4415 4.71726 -8.94963
440 1 18.8691 18.8691 3.14484 -8.94963
441 1 20.4415 20.4415 4.71726 -8.94963
442 1 1.57241 11.007 7.86211 -8.94967
443 1 4.71704 11.007 7.86203 -8.94989
444 1 7.85852 11.007 7.85886 -8.90418
445 1 11.065 11.007 7.73971 -8.04566
446 1 14.1544 11.007 7.86188 -8.96372
447 1 17.2967 11.007 7.86211 -8.95024
448 1 20.4415 11.007 7.86211 -8.94965
449 1 22.0139 12.5794 6.28969 -8.94963
450 1 1.57242 14.1518 7.86211 -8.94967
451 1 3.14483 12.5794 6.28968 -8.94965
452 1 4.71708 14.1518 7.86205 -8.95052
453 1 6.28949 12.5795 6.28954 -8.94907
454 1 7.85726 14.1564 7.85715 -8.90589
455 1 9.43288 12.5812 6.28857 -8.93648
456 1 11.0085 14.1527 7.8604 -8.93703
457 1 12.5842 12.5842 6.28492 -8.90561
458 1 14.1522 14.1521 7.86181 -8.94695
459 1 15.7244 12.5794 6.28965 -8.95061
460 1 17.2967 14.1518 7.8621 -8.94965
461 1 18.8691 12.5794 6.28969 -8.94967
462 1 20.4415 14.1518 7.86211 -8.94964
463 1 22.0139 15.7242 6.28969 -8.94963
464 1 1.57242 17.2966 7.86211 -8.94963
465 1 3.14483 15.7242 6.28968 -8.94965
466 1 4.71726 17.2966 7.8621 -8.94968
467 1 6.28947 15.7244 6.28946 -8.94741
468 1 7.86201 17.2969 7.86202 -8.95021
469 1 9.43458 15.7242 6.28974 -8.9513
470 1 11.007 17.2968 7.86202 -8.94911
471 1 12.5794 15.7244 6.28962 -8.95041
472 1 14.1518 17.2967 7.86211 -8.9497
473 1 15.7242 15.7242 6.28967 -8.94962
474 1 17.2966 17.2966 7.86211 -8.94965
475 1 18.8691 15.7242 6.28969 -8.94963
476 1 20.4415 17.2966 7.86211 -8.94963
477 1 8.88142e-09 18.8691 6.28969 -8.94963
478 1 1.57242 20.4415 7.86211 -8.94963
479 1 3.14484 18.8691 6.28969 -8.94964
480 1 4.71726 20.4415 7.86211 -8.94963
481 1 6.28968 18.8691 6.28968 -8.94963
482 1 7.86211 20.4415 7.86211 -8.94967
483 1 9.43453 18.8691 6.28969 -8.94964
484 1 11.007 20.4415 7.86211 -8.94964
485 1 12.5794 18.8691 6.28968 -8.94964
486 1 14.1518 20.4415 7.86211 -8.94964
487 1 15.7242 18.8691 6.28969 -8.94963
488 1 17.2966 20.4415 7.86211 -8.94963
489 1 18.8691 18.8691 6.28969 -8.94963
490 1 20.4415 20.4415 7.86211 -8.94963
491 1 22.0139 12.5794 9.43453 -8.94966
492 1 3.14475 12.5794 9.43452 -8.95029
493 1 6.28684 12.5798 9.43439 -8.96067
494 1 9.3772 12.702 9.43449 -7.99608
495 1 12.587 12.5869 9.42986 -8.87337
496 1 15.7246 12.5795 9.43447 -8.95053
497 1 18.8691 12.5794 9.43453 -8.94971
498 1 22.0139 15.7242 9.43453 -8.94963
499 1 3.14483 15.7242 9.43452 -8.94963
500 1 6.28947 15.7244 9.43431 -8.94922
501 1 9.43448 15.7288 9.43459 -8.97283
502 1 12.5794 15.7245 9.43446 -8.95167
503 1 15.7242 15.7242 9.43452 -8.94973
504 1 18.8691 15.7242 9.43453 -8.94963
505 1 22.0139 18.8691 9.43453 -8.94963
506 1 3.14484 18.8691 9.43453 -8.94965
507 1 6.28968 18.8691 9.43452 -8.94962
508 1 9.43453 18.8692 9.43453 -8.95083
509 1 12.5794 18.8691 9.43452 -8.94968
510 1 15.7242 18.8691 9.43453 -8.94963
511 1 18.8691 18.8691 9.43453 -8.94963
688 3 10.2039 11.007 9.41847 3.4433
512 1 1.5724 11.007 11.007 -8.94971
513 1 4.7168 11.007 11.007 -8.95004
514 1 7.85488 11.007 11.007 -8.85184
515 1 11.1512 11.007 11.007 -6.9001
516 1 14.1564 11.007 11.007 -8.97322
517 1 17.2968 11.007 11.007 -8.95075
518 1 20.4415 11.007 11.007 -8.94968
519 1 1.57241 14.1518 11.007 -8.94971
520 1 4.71688 14.1519 11.007 -8.95121
521 1 7.85256 14.1609 11.007 -8.86167
522 1 11.0103 14.1539 11.007 -8.9235
523 1 14.1522 14.1521 11.007 -8.94966
524 1 17.2967 14.1518 11.007 -8.94964
525 1 20.4415 14.1518 11.007 -8.94964
526 1 1.57242 17.2966 11.007 -8.94963
527 1 4.71728 17.2966 11.007 -8.94992
528 1 7.86191 17.2971 11.007 -8.95044
529 1 11.0071 17.2969 11.007 -8.94858
530 1 14.1518 17.2966 11.007 -8.94977
531 1 17.2966 17.2966 11.007 -8.94965
532 1 20.4415 17.2966 11.007 -8.94963
533 1 1.57242 20.4415 11.007 -8.94963
534 1 4.71727 20.4415 11.007 -8.94964
535 1 7.8621 20.4415 11.007 -8.94971
536 1 11.007 20.4415 11.007 -8.94965
537 1 14.1518 20.4415 11.007 -8.94964
538 1 17.2966 20.4415 11.007 -8.94963
539 1 20.4415 20.4415 11.007 -8.94963
540 1 1.57241 11.007 14.1518 -8.94967
541 1 4.71704 11.007 14.1519 -8.94989
542 1 7.85852 11.007 14.155 -8.90418
543 1 11.065 11.007 14.2742 -8.04566
544 1 14.1544 11.007 14.152 -8.96372
545 1 17.2967 11.007 14.1518 -8.95024
546 1 20.4415 11.007 14.1518 -8.94965
547 1 22.0139 12.5794 12.5794 -8.94966
548 1 1.57242 14.1518 14.1518 -8.94967
549 1 3.14475 12.5794 12.5794 -8.95029
550 1 4.71708 14.1518 14.1519 -8.95052
551 1 6.28684 12.5798 12.5795 -8.96067
552 1 7.85726 14.1564 14.1567 -8.90589
553 1 9.3772 12.702 12.5794 -7.99608
554 1 11.0085 14.1527 14.1535 -8.93703
555 1 12.587 12.5869 12.584 -8.87337
556 1 14.1522 14.1521 14.1521 -8.94695
557 1 15.7246 12.5795 12.5794 -8.95053
558 1 17.2967 14.1518 14.1518 -8.94965
559 1 18.8691 12.5794 12.5794 -8.94971
560 1 20.4415 14.1518 14.1518 -8.94964
561 1 22.0139 15.7242 12.5794 -8.94963
562 1 1.57242 17.2966 14.1518 -8.94963
563 1 3.14483 15.7242 12.5794 -8.94963
564 1 4.71726 17.2966 14.1518 -8.94968
565 1 6.28947 15.7244 12.5796 -8.94922
566 1 7.86201 17.2969 14.1519 -8.95021
567 1 9.43448 15.7288 12.5793 -8.97283
568 1 11.007 17.2968 14.1519 -8.94911
569 1 12.5794 15.7245 12.5794 -8.95167
570 1 14.1518 17.2967 14.1518 -8.9497
571 1 15.7242 15.7242 12.5794 -8.94973
572 1 17.2966 17.2966 14.1518 -8.94965
573 1 18.8691 15.7242 12.5794 -8.94963
574 1 20.4415 17.2966 14.1518 -8.94963
575 1 22.0139 18.8691 12.5794 -8.94963
576 1 1.57242 20.4415 14.1518 -8.94963
577 1 3.14484 18.8691 12.5794 -8.94965
578 1 4.71726 20.4415 14.1518 -8.94963
579 1 6.28968 18.8691 12.5794 -8.94962
580 1 7.86211 20.4415 14.1518 -8.94967
581 1 9.43453 18.8692 12.5794 -8.95083
582 1 11.007 20.4415 14.1518 -8.94964
583 1 12.5794 18.8691 12.5794 -8.94968
584 1 14.1518 20.4415 14.1518 -8.94964
585 1 15.7242 18.8691 12.5794 -8.94963
586 1 17.2966 20.4415 14.1518 -8.94963
587 1 18.8691 18.8691 12.5794 -8.94963
588 1 20.4415 20.4415 14.1518 -8.94963
589 1 1.57242 11.007 17.2966 -8.94963
590 1 4.71728 11.007 17.2966 -8.94966
591 1 7.86217 11.007 17.2967 -8.95122
592 1 11.007 11.007 17.3013 -8.97155
593 1 14.1518 11.007 17.2966 -8.95145
594 1 17.2966 11.007 17.2966 -8.94962
595 1 20.4415 11.007 17.2966 -8.94963
596 1 22.0139 12.5794 15.7242 -8.94963
597 1 1.57242 14.1518 17.2966 -8.94963
598 1 3.14483 12.5794 15.7242 -8.94965
599 1 4.71726 14.1518 17.2966 -8.94971
600 1 6.28949 12.5795 15.7244 -8.94907
601 1 7.86203 14.1519 17.2968 -8.95027
602 1 9.43288 12.5812 15.7253 -8.93648
603 1 11.0069 14.1517 17.2966 -8.95125
604 1 12.5842 12.5842 15.729 -8.90561
605 1 14.152 14.152 17.2969 -8.9474
606 1 15.7244 12.5794 15.7243 -8.95061
607 1 17.2966 14.1518 17.2966 -8.94966
608 1 18.8691 12.5794 15.7242 -8.94967
609 1 20.4415 14.1518 17.2966 -8.94963
610 1 22.0139 15.7242 15.7242 -8.94963
611 1 1.57242 17.2966 17.2966 -8.94963
612 1 3.14483 15.7242 15.7242 -8.94965
613 1 4.71726 17.2966 17.2966 -8.94954
614 1 6.28947 15.7244 15.7244 -8.94741
615 1 7.86211 17.2966 17.2966 -8.9498
616 1 9.43458 15.7242 15.7242 -8.9513
617 1 11.0069 17.2966 17.2966 -8.94965
618 1 12.5794 15.7244 15.7243 -8.95041
619 1 14.1518 17.2966 17.2966 -8.94965
620 1 15.7242 15.7242 15.7242 -8.94962
621 1 17.2966 17.2966 17.2966 -8.94964
622 1 18.8691 15.7242 15.7242 -8.94963
623 1 20.4415 17.2966 17.2966 -8.94963
624 1 8.88142e-09 18.8691 15.7242 -8.94963
625 1 1.57242 20.4415 17.2966 -8.94963
626 1 3.14484 18.8691 15.7242 -8.94964
627 1 4.71726 20.4415 17.2966 -8.94963
628 1 6.28968 18.8691 15.7242 -8.94963
629 1 7.86211 20.4415 17.2966 -8.94963
630 1 9.43453 18.8691 15.7242 -8.94964
631 1 11.007 20.4415 17.2966 -8.94963
632 1 12.5794 18.8691 15.7242 -8.94964
633 1 14.1518 20.4415 17.2966 -8.94963
634 1 15.7242 18.8691 15.7242 -8.94963
635 1 17.2966 20.4415 17.2966 -8.94963
636 1 18.8691 18.8691 15.7242 -8.94963
637 1 20.4415 20.4415 17.2966 -8.94963
638 1 1.57242 11.007 20.4415 -8.94963
639 1 4.71726 11.007 20.4415 -8.94963
640 1 7.86211 11.007 20.4415 -8.94968
641 1 11.0069 11.007 20.4416 -8.95088
642 1 14.1518 11.007 20.4415 -8.94963
643 1 17.2966 11.007 20.4415 -8.94964
644 1 20.4415 11.007 20.4415 -8.94963
645 1 2.36116e-08 12.5794 18.8691 -8.94963
646 1 1.57242 14.1518 20.4415 -8.94963
647 1 3.14484 12.5794 18.8691 -8.94964
648 1 4.71726 14.1518 20.4415 -8.94963
649 1 6.28968 12.5794 18.8691 -8.9497
650 1 7.8621 14.1518 20.4415 -8.94964
651 1 9.43444 12.5795 18.8692 -8.94911
652 1 11.0069 14.1518 20.4415 -8.94964
653 1 12.5795 12.5795 18.8693 -8.9501
654 1 14.1518 14.1518 20.4415 -8.94962
655 1 15.7242 12.5794 18.869 -8.94978
656 1 17.2966 14.1518 20.4415 -8.94964
657 1 18.8691 12.5794 18.8691 -8.94963
658 1 20.4415 14.1518 20.4415 -8.94963
659 1 22.0139 15.7242 18.8691 -8.94963
660 1 1.57242 17.2966 20.4415 -8.94963
661 1 3.14484 15.7242 18.8691 -8.94964
662 1 4.71726 17.2966 20.4415 -8.94963
663 1 6.28968 15.7242 18.8691 -8.94964
664 1 7.86211 17.2966 20.4415 -8.94963
665 1 9.43453 15.7242 18.8691 -8.94965
666 1 11.007 17.2966 20.4415 -8.94963
667 1 12.5794 15.7242 18.869 -8.9498
668 1 14.1518 17.2966 20.4415 -8.94964
669 1 15.7242 15.7242 18.8691 -8.94954
670 1 17.2966 17.2966 20.4415 -8.94963
671 1 18.8691 15.7242 18.8691 -8.94963
672 1 20.4415 17.2966 20.4415 -8.94963
673 1 22.0139 18.8691 18.8691 -8.94963
674 1 1.57242 20.4415 20.4415 -8.94963
675 1 3.14484 18.8691 18.8691 -8.94963
676 1 4.71726 20.4415 20.4415 -8.94963
677 1 6.28969 18.8691 18.8691 -8.94964
678 1 7.86211 20.4415 20.4415 -8.94963
679 1 9.43453 18.8691 18.8691 -8.94963
680 1 11.007 20.4415 20.4415 -8.94963
681 1 12.5794 18.8691 18.8691 -8.94963
682 1 14.1518 20.4415 20.4415 -8.94963
683 1 15.7242 18.8691 18.8691 -8.94963
684 1 17.2966 20.4415 20.4415 -8.94963
685 1 18.8691 18.8691 18.8691 -8.94963
686 1 20.4415 20.4415 20.4415 -8.94963
687 3 10.2039 11.007 12.5954 3.4433
