ITEM: TIMESTEP
106
ITEM: NUMBER OF ATOMS
688
ITEM: BOX BOUNDS pp pp pp
0.0000000000000000e+00 2.2013900999999997e+01
0.0000000000000000e+00 2.2013900999999997e+01
0.0000000000000000e+00 2.2013900999999997e+01
ITEM: ATOMS id type x y z c_pot
1 1 22.0136 1.46943e-15 -1.32561e-16 -8.94886
2 1 1.57152 1.57186 1.57177 -8.94894
3 1 3.14415 1.63525e-15 4.52944e-16 -8.94954
4 1 4.71647 1.57179 1.57166 -8.94948
5 1 6.28923 2.87901e-15 1.05639e-15 -8.9494
6 1 7.86173 1.57172 1.57171 -8.94936
7 1 9.43441 2.30044e-17 9.30634e-16 -8.94943
8 1 11.007 1.57165 1.57175 -8.9494
9 1 12.5796 1.91472e-15 9.49911e-16 -8.94942
10 1 14.1523 1.57157 1.57183 -8.94939
11 1 15.7248 1.0653e-15 2.01462e-16 -8.94952
12 1 17.2977 1.57148 1.57184 -8.9494
13 1 18.8698 1.50063e-15 1.26928e-15 -8.9491
14 1 20.4418 1.57194 1.57211 -8.94918
15 1 22.0139 3.14435 2.03917e-15 -8.94954
16 1 1.57198 4.7169 1.57179 -8.94996
17 1 3.14374 3.14395 -2.02006e-15 -8.9495
18 1 4.71561 4.71598 1.57064 -8.95018
19 1 6.28893 3.14387 -2.50097e-14 -8.94933
20 1 7.86117 4.71569 1.57096 -8.94911
21 1 9.43421 3.14363 2.42136e-14 -8.94939
22 1 11.0069 4.71533 1.57097 -8.94928
23 1 12.5797 3.14349 -9.76057e-15 -8.94929
24 1 14.1531 4.71492 1.57078 -8.94984
25 1 15.7253 3.14328 1.98766e-15 -8.94967
26 1 17.2992 4.71477 1.57104 -8.94819
27 1 18.8704 3.14361 2.49353e-15 -8.94873
28 1 20.4425 4.71641 1.57192 -8.94944
29 1 22.0144 6.28936 2.96035e-15 -8.94941
30 1 1.57239 7.86207 1.57197 -8.94933
31 1 3.14445 6.28981 -1.88203e-14 -8.94994
32 1 4.7169 7.86271 1.57191 -8.94973
33 1 6.28873 6.28925 -2.36123e-13 -8.95158
34 1 7.86164 7.86208 1.57085 -8.95266
35 1 9.43371 6.28827 1.22958e-13 -8.94976
36 1 11.0064 7.86077 1.5699 -8.95123
37 1 12.5797 6.28794 -3.69049e-14 -8.95002
38 1 14.1546 7.8596 1.56852 -8.95215
39 1 15.7267 6.28718 9.53674e-15 -8.95017
40 1 17.2996 7.86049 1.57086 -8.94887
41 1 18.8709 6.28851 4.021e-15 -8.94924
42 1 20.4428 7.86155 1.57184 -8.94932
43 1 22.0145 9.43439 2.60267e-15 -8.94947
44 1 3.14453 9.43462 -5.24829e-15 -8.94949
45 1 6.28948 9.4351 -2.44778e-13 -8.9491
46 1 9.43416 9.43484 -3.75169e-13 -8.94826
47 1 12.58 9.43418 -3.13042e-13 -8.95329
48 1 15.7273 9.43347 1.68621e-14 -8.94911
49 1 18.8711 9.43405 5.16515e-15 -8.9493
50 1 -0.000579883 1.28308e-15 3.14424 -8.94913
51 1 1.57089 1.57161 4.71595 -8.94889
52 1 3.14362 -1.29245e-14 3.14358 -8.9495
53 1 4.71552 1.57078 4.71521 -8.95002
54 1 6.28906 -5.76615e-14 3.14364 -8.94938
55 1 7.86158 1.57089 4.71553 -8.94941
56 1 9.43449 -1.60342e-14 3.14372 -8.94944
57 1 11.0073 1.57095 4.7157 -8.94943
58 1 12.5798 -2.49338e-14 3.14387 -8.9494
59 1 14.1528 1.57078 4.71611 -8.95053
60 1 15.7251 -5.45105e-15 3.14405 -8.94997
61 1 17.2977 1.57138 4.71653 -8.94946
62 1 18.8696 1.1691e-15 3.14437 -8.94938
63 1 20.4414 1.57189 4.71675 -8.94944
64 1 22.0134 3.1441 3.14398 -8.94953
65 1 1.57025 4.71599 4.71542 -8.95003
66 1 3.14263 3.14305 3.14256 -8.94809
67 1 4.71133 4.71197 4.71089 -8.94445
68 1 6.28842 3.14298 3.14277 -8.94932
69 1 7.86001 4.71264 4.71292 -8.94795
70 1 9.43422 3.14286 3.14301 -8.94927
71 1 11.0075 4.71272 4.71308 -8.94745
72 1 12.58 3.14268 3.14312 -8.949
73 1 14.1562 4.71076 4.71225 -8.9494
74 1 15.7263 3.1421 3.14295 -8.94933
75 1 17.2998 4.71431 4.71529 -8.94894
76 1 18.8702 3.14354 3.14407 -8.94934
77 1 20.442 4.71623 4.71644 -8.94991
78 1 22.0142 6.28927 3.14407 -8.94971
79 1 1.57181 7.86223 4.7163 -8.94964
80 1 3.14362 6.28952 3.14338 -8.95054
81 1 4.71527 7.86273 4.7155 -8.95157
82 1 6.2867 6.28725 3.13981 -8.95178
83 1 7.85766 7.85715 4.70767 -8.95852
84 1 9.43348 6.28652 3.14081 -8.94807
85 1 11.0075 7.85667 4.70654 -8.95355
86 1 12.581 6.28606 3.13976 -8.95004
87 1 14.1662 7.84925 4.70132 -8.93422
88 1 15.7299 6.28424 3.13941 -8.94536
89 1 17.3029 7.85902 4.7136 -8.94999
90 1 18.8717 6.28797 3.14334 -8.94945
91 1 20.4433 7.86142 4.71619 -8.94992
92 1 0.000640096 9.43437 3.14398 -8.94946
93 1 3.14433 9.43472 3.14393 -8.94893
94 1 6.28997 9.43592 3.14518 -8.94927
95 1 9.43515 9.43463 3.14503 -8.94785
96 1 12.5833 9.4329 3.13485 -8.95967
97 1 15.7301 9.43249 3.13945 -8.94749
98 1 18.8721 9.43383 3.14314 -8.94918
99 1 22.013 5.04879e-15 6.28905 -8.94938
100 1 1.57047 1.57141 7.86119 -8.94926
101 1 3.14282 -8.17187e-14 6.28809 -8.94923
102 1 4.71436 1.56973 7.86013 -8.94972
103 1 6.28863 -9.97831e-13 6.28814 -8.95053
104 1 7.86146 1.56962 7.86087 -8.95128
105 1 9.43469 2.2896e-12 6.28832 -8.95012
106 1 11.0074 1.57064 7.86121 -8.94972
107 1 12.58 -4.74268e-13 6.28886 -8.95027
108 1 14.153 1.57074 7.86155 -8.95052
109 1 15.7253 -2.06853e-14 6.28913 -8.94997
110 1 17.2974 1.57169 7.862 -8.94955
111 1 18.8693 2.18968e-15 6.28944 -8.94959
112 1 20.4411 1.57188 7.86181 -8.94942
113 1 -0.00130224 3.14374 6.28871 -8.94936
114 1 1.56843 4.71492 7.8603 -8.94936
115 1 3.14113 3.14183 6.28677 -8.94742
116 1 4.7077 4.70843 7.8555 -8.94101
117 1 6.28666 3.13959 6.28626 -8.95158
118 1 7.85744 4.70524 7.85795 -8.95812
119 1 9.43431 3.14051 6.28696 -8.94995
120 1 11.0071 4.71082 7.85874 -8.95138
121 1 12.5805 3.14077 6.28776 -8.95183
122 1 14.1566 4.71057 7.85853 -8.94767
123 1 15.7265 3.1418 6.28819 -8.94907
124 1 17.2988 4.71525 7.86159 -8.94982
125 1 18.8698 3.14367 6.28922 -8.94966
126 1 20.4411 4.71615 7.86166 -8.94984
127 1 22.0129 6.28901 6.28879 -8.95054
128 1 1.56926 7.86195 7.86134 -8.95201
129 1 3.13921 6.28732 6.28637 -8.95183
130 1 4.70526 7.85852 7.85869 -8.96064
131 1 6.27363 6.27444 6.27323 -8.93069
132 1 7.81625 7.81919 7.82178 -8.85635
133 1 9.43263 6.27842 6.28139 -8.94654
134 1 11.0256 7.84236 7.8285 -8.89416
135 1 12.5884 6.27591 6.27748 -8.95043
136 1 14.1684 7.84949 7.85011 -8.93728
137 1 15.7316 6.28349 6.28473 -8.94675
138 1 17.3019 7.86025 7.86104 -8.95227
139 1 18.8715 6.28815 6.28876 -8.95032
140 1 20.4422 7.86172 7.86184 -8.95058
141 1 22.0143 9.43454 6.28884 -8.94972
142 1 3.14368 9.43554 6.28874 -8.94896
143 1 6.28898 9.43865 6.29097 -8.95067
144 1 9.42784 9.41596 6.29247 -8.91848
145 1 12.6189 9.40473 6.24692 -8.88718
146 1 15.738 9.43064 6.28172 -8.95405
147 1 18.8734 9.43381 6.28811 -8.95105
148 1 -0.00106067 4.86547e-15 9.43427 -8.94939
149 1 3.14252 -1.42761e-13 9.43388 -8.94924
150 1 6.28791 2.8702e-12 9.43376 -8.95153
151 1 9.43484 -1.97197e-12 9.43394 -8.94908
152 1 12.58 1.25928e-12 9.4344 -8.95035
153 1 15.7251 1.88565e-14 9.43453 -8.94943
154 1 18.8693 6.2925e-16 9.43446 -8.94946
155 1 22.0123 3.1436 9.43415 -8.94933
156 1 3.14064 3.14145 9.43335 -8.94888
157 1 6.28439 3.13632 9.4324 -8.9515
158 1 9.43432 3.14061 9.43327 -8.94736
159 1 12.5806 3.1413 9.43378 -8.95186
160 1 15.7256 3.14317 9.43452 -8.94932
161 1 18.8694 3.14381 9.43443 -8.94936
162 1 22.0114 6.28856 9.43409 -8.95071
163 1 3.13496 6.28466 9.43216 -8.95035
164 1 6.26388 6.26449 9.42077 -8.91693
165 1 9.42967 6.28186 9.43132 -9.00953
166 1 12.5882 6.27679 9.42479 -8.94384
167 1 15.7284 6.28676 9.43408 -8.94911
168 1 18.8702 6.28853 9.43453 -8.94989
169 1 22.0131 9.43487 9.43435 -8.94933
170 1 3.14211 9.43583 9.43421 -8.94994
171 1 6.28412 9.429 9.43586 -8.96867
172 1 9.36061 9.14904 9.44577 -8.05809
173 1 12.5931 9.40835 9.38634 -8.83704
174 1 15.7278 9.43444 9.4321 -8.95231
175 1 18.8704 9.43454 9.4346 -8.94961
176 1 1.57035 1.57136 11.007 -8.94928
177 1 4.71406 1.56958 11.007 -8.94918
178 1 7.86127 1.5687 11.007 -8.95356
179 1 11.0072 1.57094 11.007 -8.94975
180 1 14.1528 1.57146 11.007 -8.949
181 1 17.2974 1.57177 11.007 -8.94943
182 1 20.4411 1.57187 11.007 -8.94945
183 1 1.56808 4.71472 11.007 -8.94899
184 1 4.70765 4.70842 11.007 -8.94526
185 1 7.8546 4.69868 11.007 -8.96638
186 1 11.0074 4.71148 11.007 -8.95509
187 1 14.154 4.71491 11.007 -8.94683
188 1 17.2982 4.71561 11.007 -8.94866
189 1 20.4408 4.71605 11.007 -8.94961
190 1 1.56706 7.86149 11.007 -8.95436
191 1 4.69559 7.85414 11.007 -8.96732
192 1 7.7728 7.78429 11.007 -8.73257
193 1 11.0586 7.83634 11.007 -8.82745
194 1 14.1595 7.86221 11.007 -8.96729
195 1 17.2989 7.8615 11.007 -8.95095
196 1 20.441 7.86175 11.007 -8.95046
197 1 -0.00106067 3.60155e-15 12.5796 -8.94939
198 1 1.57047 1.57141 14.1527 -8.94926
199 1 3.14252 -9.65226e-14 12.58 -8.94924
200 1 4.71436 1.56973 14.1538 -8.94972
201 1 6.28791 -4.96023e-13 12.5801 -8.95153
202 1 7.86146 1.56962 14.153 -8.95128
203 1 9.43484 2.28508e-12 12.58 -8.94908
204 1 11.0074 1.57064 14.1527 -8.94972
205 1 12.58 -3.00197e-13 12.5795 -8.95035
206 1 14.153 1.57074 14.1523 -8.95052
207 1 15.7251 -1.96238e-14 12.5794 -8.94943
208 1 17.2974 1.57169 14.1519 -8.94955
209 1 18.8693 1.79739e-15 12.5794 -8.94946
210 1 20.4411 1.57188 14.1521 -8.94942
211 1 22.0123 3.1436 12.5798 -8.94933
212 1 1.56843 4.71492 14.1536 -8.94936
213 1 3.14064 3.14145 12.5805 -8.94888
214 1 4.7077 4.70843 14.1584 -8.94101
215 1 6.28439 3.13632 12.5815 -8.9515
216 1 7.85744 4.70524 14.156 -8.95812
217 1 9.43432 3.14061 12.5806 -8.94736
218 1 11.0071 4.71082 14.1552 -8.95138
219 1 12.5806 3.1413 12.5801 -8.95186
220 1 14.1566 4.71057 14.1554 -8.94767
221 1 15.7256 3.14317 12.5794 -8.94932
222 1 17.2988 4.71525 14.1523 -8.94982
223 1 18.8694 3.14381 12.5795 -8.94936
224 1 20.4411 4.71615 14.1522 -8.94984
225 1 22.0114 6.28856 12.5798 -8.95071
226 1 1.56926 7.86195 14.1526 -8.95201
227 1 3.13496 6.28466 12.5817 -8.95035
228 1 4.70526 7.85852 14.1552 -8.96064
229 1 6.26388 6.26449 12.5931 -8.91693
230 1 7.81625 7.81919 14.1921 -8.85633
231 1 9.42967 6.28186 12.5826 -9.00953
232 1 11.0256 7.84236 14.1854 -8.89416
233 1 12.5882 6.27679 12.5891 -8.94384
234 1 14.1684 7.84949 14.1638 -8.93728
235 1 15.7284 6.28676 12.5798 -8.94911
236 1 17.3019 7.86025 14.1529 -8.95227
237 1 18.8702 6.28853 12.5794 -8.94989
238 1 20.4422 7.86172 14.1521 -8.95058
239 1 22.0131 9.43487 12.5796 -8.94933
240 1 3.14211 9.43583 12.5797 -8.94994
241 1 6.28412 9.429 12.578 -8.96867
242 1 9.36059 9.14901 12.5681 -8.05817
243 1 12.5931 9.40835 12.6276 -8.83704
244 1 15.7278 9.43444 12.5818 -8.95231
245 1 18.8704 9.43454 12.5793 -8.94961
246 1 22.013 1.83485e-15 15.7248 -8.94938
247 1 1.57089 1.57161 17.298 -8.94889
248 1 3.14282 -2.92667e-14 15.7258 -8.94923
249 1 4.71552 1.57078 17.2987 -8.95002
250 1 6.28863 -2.307e-13 15.7258 -8.95053
251 1 7.86158 1.57089 17.2984 -8.94941
252 1 9.43469 3.13475e-13 15.7256 -8.95012
253 1 11.0073 1.57095 17.2982 -8.94943
254 1 12.58 -1.12792e-13 15.725 -8.95027
255 1 14.1528 1.57078 17.2978 -8.95053
256 1 15.7253 -1.01332e-14 15.7248 -8.94997
257 1 17.2977 1.57138 17.2974 -8.94946
258 1 18.8693 1.52933e-15 15.7245 -8.94959
259 1 20.4414 1.57189 17.2972 -8.94944
260 1 -0.00130224 3.14374 15.7252 -8.94936
261 1 1.57025 4.71599 17.2985 -8.95003
262 1 3.14113 3.14183 15.7271 -8.94742
263 1 4.71133 4.71197 17.303 -8.94445
264 1 6.28666 3.13959 15.7276 -8.95158
265 1 7.86001 4.71264 17.301 -8.94795
266 1 9.43431 3.14051 15.7269 -8.94995
267 1 11.0075 4.71272 17.3008 -8.94745
268 1 12.5805 3.14077 15.7261 -8.95183
269 1 14.1562 4.71076 17.3016 -8.9494
270 1 15.7265 3.1418 15.7257 -8.94907
271 1 17.2998 4.71431 17.2986 -8.94894
272 1 18.8698 3.14367 15.7247 -8.94966
273 1 20.442 4.71623 17.2975 -8.94991
274 1 22.0129 6.28901 15.7251 -8.95054
275 1 1.57181 7.86223 17.2976 -8.94964
276 1 3.13921 6.28732 15.7275 -8.95183
277 1 4.71527 7.86273 17.2984 -8.95157
278 1 6.27363 6.27444 15.7407 -8.93069
279 1 7.85766 7.85715 17.3062 -8.95852
280 1 9.43263 6.27842 15.7325 -8.94654
281 1 11.0075 7.85667 17.3074 -8.95355
282 1 12.5884 6.27591 15.7364 -8.95043
283 1 14.1662 7.84925 17.3126 -8.93422
284 1 15.7316 6.28349 15.7292 -8.94675
285 1 17.3029 7.85902 17.3003 -8.94999
286 1 18.8715 6.28815 15.7251 -8.95032
287 1 20.4433 7.86142 17.2977 -8.94992
288 1 22.0143 9.43454 15.7251 -8.94972
289 1 3.14368 9.43554 15.7252 -8.94896
290 1 6.28898 9.43865 15.7229 -8.95067
291 1 9.42784 9.41596 15.7214 -8.91848
292 1 12.6189 9.40473 15.767 -8.88718
293 1 15.738 9.43064 15.7322 -8.95405
294 1 18.8734 9.43381 15.7258 -8.95105
295 1 -0.000579883 1.68247e-15 18.8697 -8.94913
296 1 1.57152 1.57186 20.4421 -8.94894
297 1 3.14362 -7.64346e-17 18.8703 -8.9495
298 1 4.71647 1.57179 20.4422 -8.94948
299 1 6.28906 -6.32214e-15 18.8703 -8.94938
300 1 7.86173 1.57172 20.4422 -8.94936
301 1 9.43449 -9.11965e-17 18.8702 -8.94944
302 1 11.007 1.57165 20.4422 -8.9494
303 1 12.5798 -1.41888e-15 18.87 -8.9494
304 1 14.1523 1.57157 20.4421 -8.94939
305 1 15.7251 -3.10467e-16 18.8699 -8.94997
306 1 17.2977 1.57148 20.4421 -8.9494
307 1 18.8696 9.81745e-16 18.8695 -8.94938
308 1 20.4418 1.57194 20.4418 -8.94918
309 1 22.0134 3.1441 18.8699 -8.94953
310 1 1.57198 4.7169 20.4421 -8.94996
311 1 3.14263 3.14305 18.8713 -8.94809
312 1 4.71561 4.71598 20.4433 -8.95018
313 1 6.28842 3.14298 18.8711 -8.94932
314 1 7.86117 4.71569 20.4429 -8.94911
315 1 9.43422 3.14286 18.8709 -8.94927
316 1 11.0069 4.71533 20.4429 -8.94928
317 1 12.58 3.14268 18.8708 -8.949
318 1 14.1531 4.71492 20.4431 -8.94984
319 1 15.7263 3.1421 18.8709 -8.94933
320 1 17.2992 4.71477 20.4429 -8.94819
321 1 18.8702 3.14354 18.8698 -8.94934
322 1 20.4425 4.71641 20.442 -8.94944
323 1 22.0142 6.28927 18.8698 -8.94971
324 1 1.57239 7.86207 20.4419 -8.94933
325 1 3.14362 6.28952 18.8705 -8.95054
326 1 4.7169 7.86271 20.442 -8.94973
327 1 6.2867 6.28725 18.8741 -8.95178
328 1 7.86164 7.86208 20.4431 -8.95266
329 1 9.43348 6.28652 18.8731 -8.94807
330 1 11.0064 7.86077 20.444 -8.95123
331 1 12.581 6.28606 18.8741 -8.95004
332 1 14.1546 7.8596 20.4454 -8.95215
333 1 15.7299 6.28424 18.8745 -8.94536
334 1 17.2996 7.86049 20.443 -8.94887
335 1 18.8717 6.28797 18.8706 -8.94945
336 1 20.4428 7.86155 20.4421 -8.94932
337 1 0.000640096 9.43437 18.8699 -8.94946
338 1 3.14433 9.43472 18.87 -8.94893
339 1 6.28997 9.43592 18.8687 -8.94927
340 1 9.43515 9.43463 18.8689 -8.94785
341 1 12.5833 9.4329 18.879 -8.95967
342 1 15.7301 9.43249 18.8744 -8.94749
343 1 18.8721 9.43383 18.8708 -8.94918
344 1 1.57243 11.007 1.57195 -8.94952
345 1 4.71686 11.007 1.57203 -8.94968
346 1 7.86223 11.007 1.5735 -8.94681
347 1 11.0068 11.007 1.57162 -8.94682
348 1 14.1556 11.007 1.56836 -8.95008
349 1 17.2998 11.007 1.57081 -8.9492
350 1 20.4429 11.007 1.57181 -8.94941
351 1 22.0145 12.5795 3.17182e-16 -8.94947
352 1 1.57239 14.1518 1.57197 -8.94933
353 1 3.14453 12.5793 7.50959e-15 -8.94949
354 1 4.7169 14.1512 1.57191 -8.94973
355 1 6.28948 12.5788 2.35804e-13 -8.9491
356 1 7.86164 14.1518 1.57085 -8.95266
357 1 9.43416 12.5791 2.92594e-13 -8.94826
358 1 11.0064 14.1531 1.5699 -8.95123
359 1 12.58 12.5797 3.43819e-13 -8.95329
360 1 14.1546 14.1543 1.56852 -8.95215
361 1 15.7273 12.5804 2.63868e-14 -8.94911
362 1 17.2996 14.1534 1.57086 -8.94887
363 1 18.8711 12.5798 3.04404e-15 -8.9493
364 1 20.4428 14.1523 1.57184 -8.94932
365 1 22.0144 15.7245 8.03219e-16 -8.94941
366 1 1.57198 17.297 1.57179 -8.94996
367 1 3.14445 15.7241 1.93042e-14 -8.94994
368 1 4.71561 17.2979 1.57064 -8.95018
369 1 6.28873 15.7247 2.52755e-13 -8.95158
370 1 7.86117 17.2982 1.57096 -8.94911
371 1 9.43371 15.7256 -8.83926e-14 -8.94976
372 1 11.0069 17.2986 1.57097 -8.94928
373 1 12.5797 15.726 6.8818e-14 -8.95002
374 1 14.1531 17.299 1.57078 -8.94984
375 1 15.7267 15.7267 3.20143e-14 -8.95017
376 1 17.2992 17.2991 1.57104 -8.94819
377 1 18.8709 15.7254 2.7132e-15 -8.94924
378 1 20.4425 17.2975 1.57192 -8.94944
379 1 22.0139 18.8696 1.32682e-15 -8.94954
380 1 1.57152 20.442 1.57177 -8.94894
381 1 3.14374 18.87 8.90038e-15 -8.9495
382 1 4.71647 20.4421 1.57166 -8.94948
383 1 6.28893 18.87 3.124e-14 -8.94933
384 1 7.86173 20.4422 1.57171 -8.94936
385 1 9.43421 18.8703 -1.79953e-14 -8.94939
386 1 11.007 20.4423 1.57175 -8.9494
387 1 12.5797 18.8704 1.49365e-14 -8.94929
388 1 14.1523 20.4423 1.57183 -8.94939
389 1 15.7253 18.8706 3.40163e-15 -8.94967
390 1 17.2977 20.4424 1.57184 -8.9494
391 1 18.8704 18.8703 3.10125e-15 -8.94873
392 1 20.4418 20.442 1.57211 -8.94918
393 1 1.57214 11.007 4.71609 -8.94941
394 1 4.71655 11.007 4.71605 -8.94616
395 1 7.86711 11.007 4.72483 -8.94341
396 1 11.0124 11.007 4.71759 -8.99102
397 1 14.1652 11.007 4.7032 -8.94202
398 1 17.3033 11.007 4.71317 -8.949
399 1 20.4436 11.007 4.71598 -8.94982
400 1 0.000640096 12.5795 3.14398 -8.94946
401 1 1.57181 14.1517 4.7163 -8.94964
402 1 3.14433 12.5792 3.14393 -8.94893
403 1 4.71527 14.1512 4.7155 -8.95157
404 1 6.28997 12.578 3.14518 -8.94927
405 1 7.85766 14.1568 4.70767 -8.95852
406 1 9.43515 12.5793 3.14503 -8.94785
407 1 11.0075 14.1572 4.70654 -8.95355
408 1 12.5833 12.581 3.13485 -8.95967
409 1 14.1662 14.1646 4.70132 -8.93422
410 1 15.7301 12.5814 3.13945 -8.94749
411 1 17.3029 14.1549 4.7136 -8.94999
412 1 18.8721 12.5801 3.14314 -8.94918
413 1 20.4433 14.1525 4.71619 -8.94992
414 1 22.0142 15.7246 3.14407 -8.94971
415 1 1.57025 17.2979 4.71542 -8.95003
416 1 3.14362 15.7244 3.14338 -8.95054
417 1 4.71133 17.3019 4.71089 -8.94445
418 1 6.2867 15.7267 3.13981 -8.95178
419 1 7.86001 17.3013 4.71292 -8.94795
420 1 9.43348 15.7274 3.14081 -8.94807
421 1 11.0075 17.3012 4.71308 -8.94745
422 1 12.581 15.7278 3.13976 -8.95004
423 1 14.1562 17.3031 4.71225 -8.9494
424 1 15.7299 15.7297 3.13941 -8.94536
425 1 17.2998 17.2996 4.71529 -8.94894
426 1 18.8717 15.7259 3.14334 -8.94945
427 1 20.442 17.2977 4.71644 -8.94991
428 1 22.0134 18.8698 3.14398 -8.94953
429 1 1.57089 20.4423 4.71595 -8.94889
430 1 3.14263 18.8708 3.14256 -8.94809
431 1 4.71552 20.4431 4.71521 -8.95002
432 1 6.28842 18.8709 3.14277 -8.94932
433 1 7.86158 20.443 4.71553 -8.94941
434 1 9.43422 18.871 3.14301 -8.94927
435 1 11.0073 20.443 4.7157 -8.94943
436 1 12.58 18.8712 3.14312 -8.949
437 1 14.1528 20.4431 4.71611 -8.95053
438 1 15.7263 18.8718 3.14295 -8.94933
439 1 17.2977 20.4425 4.71653 -8.94946
440 1 18.8702 18.8704 3.14407 -8.94934
441 1 20.4414 20.442 4.71675 -8.94944
442 1 1.5721 11.007 7.86121 -8.94723
443 1 4.72085 11.007 7.8629 -8.93742
444 1 7.89091 11.007 7.88622 -8.83683
445 1 11.1004 11.0069 7.68266 -8.23774
446 1 14.1722 11.007 7.84514 -8.96526
447 1 17.3033 11.007 7.85989 -8.95197
448 1 20.4431 11.007 7.8616 -8.94995
449 1 22.0143 12.5794 6.28884 -8.94972
450 1 1.56926 14.1519 7.86134 -8.95201
451 1 3.14368 12.5784 6.28874 -8.94896
452 1 4.70526 14.1554 7.85869 -8.96064
453 1 6.28898 12.5753 6.29097 -8.95067
454 1 7.81625 14.1947 7.82178 -8.85632
455 1 9.42784 12.5979 6.29247 -8.91847
456 1 11.0256 14.1715 7.8285 -8.89415
457 1 12.6189 12.6092 6.24692 -8.88719
458 1 14.1684 14.1644 7.85011 -8.93728
459 1 15.738 12.5833 6.28172 -8.95405
460 1 17.3019 14.1537 7.86104 -8.95227
461 1 18.8734 12.5801 6.28811 -8.95105
462 1 20.4422 14.1522 7.86184 -8.95058
463 1 22.0129 15.7249 6.28879 -8.95054
464 1 1.56843 17.299 7.8603 -8.94936
465 1 3.13921 15.7266 6.28637 -8.95183
466 1 4.7077 17.3055 7.8555 -8.94101
467 1 6.27363 15.7395 6.27323 -8.93069
468 1 7.85744 17.3087 7.85795 -8.95812
469 1 9.43263 15.7355 6.28139 -8.94654
470 1 11.0071 17.3031 7.85874 -8.95138
471 1 12.5884 15.738 6.27748 -8.95043
472 1 14.1566 17.3033 7.85853 -8.94767
473 1 15.7316 15.7304 6.28473 -8.94675
474 1 17.2988 17.2986 7.86159 -8.94982
475 1 18.8715 15.7258 6.28876 -8.95032
476 1 20.4411 17.2978 7.86166 -8.94984
477 1 -0.00130224 18.8702 6.28871 -8.94936
478 1 1.57047 20.4425 7.86119 -8.94926
479 1 3.14113 18.8721 6.28677 -8.94742
480 1 4.71436 20.4442 7.86013 -8.94972
481 1 6.28666 18.8743 6.28626 -8.95158
482 1 7.86146 20.4443 7.86087 -8.95128
483 1 9.43431 18.8734 6.28696 -8.94995
484 1 11.0074 20.4433 7.86121 -8.94972
485 1 12.5805 18.8731 6.28776 -8.95183
486 1 14.153 20.4432 7.86155 -8.95052
487 1 15.7265 18.8721 6.28819 -8.94907
488 1 17.2974 20.4422 7.862 -8.94955
489 1 18.8698 18.8702 6.28922 -8.94966
490 1 20.4411 20.442 7.86181 -8.94942
491 1 22.0131 12.579 9.43435 -8.94933
492 1 3.14211 12.5781 9.43421 -8.94994
493 1 6.28412 12.5849 9.43586 -8.96867
494 1 9.36058 12.8649 9.44577 -8.05828
495 1 12.5931 12.6056 9.38634 -8.83704
496 1 15.7278 12.5795 9.4321 -8.95231
497 1 18.8704 12.5794 9.4346 -8.94961
498 1 22.0114 15.7253 9.43409 -8.95071
499 1 3.13496 15.7292 9.43216 -8.95035
500 1 6.26388 15.7494 9.42077 -8.91693
501 1 9.42967 15.732 9.43132 -9.00954
502 1 12.5882 15.7371 9.42479 -8.94384
503 1 15.7284 15.7271 9.43408 -8.94911
504 1 18.8702 15.7254 9.43453 -8.94989
505 1 22.0123 18.8703 9.43415 -8.94933
506 1 3.14064 18.8724 9.43335 -8.94888
507 1 6.28439 18.8776 9.4324 -8.9515
508 1 9.43432 18.8733 9.43327 -8.94736
509 1 12.5806 18.8726 9.43378 -8.95186
510 1 15.7256 18.8707 9.43452 -8.94932
511 1 18.8694 18.8701 9.43443 -8.94936
688 3 10.0716 11.0069 9.39834 2.36441
512 1 1.57227 11.007 11.007 -8.94486
513 1 4.72564 11.007 11.007 -8.93261
514 1 7.90578 11.007 11.007 -8.71625
515 1 11.2615 11.0069 11.007 -7.41912
516 1 14.1374 11.007 11.007 -9.01312
517 1 17.2951 11.007 11.007 -8.94446
518 1 20.4413 11.007 11.007 -8.94758
519 1 1.56706 14.1524 11.007 -8.95436
520 1 4.69559 14.1598 11.007 -8.96732
521 1 7.7728 14.2296 11.007 -8.73253
522 1 11.0586 14.1776 11.007 -8.82744
523 1 14.1595 14.1517 11.007 -8.96729
524 1 17.2989 14.1524 11.007 -8.95095
525 1 20.441 14.1521 11.007 -8.95046
526 1 1.56808 17.2992 11.007 -8.94899
527 1 4.70765 17.3055 11.007 -8.94526
528 1 7.8546 17.3152 11.007 -8.96638
529 1 11.0074 17.3024 11.007 -8.95509
530 1 14.154 17.299 11.007 -8.94683
531 1 17.2982 17.2983 11.007 -8.94866
532 1 20.4408 17.2979 11.007 -8.94961
533 1 1.57035 20.4425 11.007 -8.94928
534 1 4.71406 20.4443 11.007 -8.94918
535 1 7.86127 20.4452 11.007 -8.95356
536 1 11.0072 20.443 11.007 -8.94975
537 1 14.1528 20.4424 11.007 -8.949
538 1 17.2974 20.4421 11.007 -8.94943
539 1 20.4411 20.442 11.007 -8.94945
540 1 1.5721 11.007 14.1527 -8.94723
541 1 4.72085 11.007 14.151 -8.93742
542 1 7.89091 11.007 14.1277 -8.83683
543 1 11.1004 11.007 14.3312 -8.23773
544 1 14.1722 11.007 14.1688 -8.96526
545 1 17.3033 11.007 14.154 -8.95197
546 1 20.4431 11.007 14.1523 -8.94995
547 1 22.0131 12.579 12.5796 -8.94933
548 1 1.56926 14.1519 14.1526 -8.95201
549 1 3.14211 12.5781 12.5797 -8.94994
550 1 4.70526 14.1554 14.1552 -8.96064
551 1 6.28412 12.5849 12.578 -8.96867
552 1 7.81625 14.1947 14.1921 -8.85633
553 1 9.36059 12.8649 12.5681 -8.0582
554 1 11.0256 14.1715 14.1854 -8.89416
555 1 12.5931 12.6056 12.6276 -8.83704
556 1 14.1684 14.1644 14.1638 -8.93728
557 1 15.7278 12.5795 12.5818 -8.95231
558 1 17.3019 14.1537 14.1529 -8.95227
559 1 18.8704 12.5794 12.5793 -8.94961
560 1 20.4422 14.1522 14.1521 -8.95058
561 1 22.0114 15.7253 12.5798 -8.95071
562 1 1.56843 17.299 14.1536 -8.94936
563 1 3.13496 15.7292 12.5817 -8.95035
564 1 4.7077 17.3055 14.1584 -8.94101
565 1 6.26388 15.7494 12.5931 -8.91693
566 1 7.85744 17.3087 14.156 -8.95812
567 1 9.42967 15.732 12.5826 -9.00954
568 1 11.0071 17.3031 14.1552 -8.95138
569 1 12.5882 15.7371 12.5891 -8.94384
570 1 14.1566 17.3033 14.1554 -8.94767
571 1 15.7284 15.7271 12.5798 -8.94911
572 1 17.2988 17.2986 14.1523 -8.94982
573 1 18.8702 15.7254 12.5794 -8.94989
574 1 20.4411 17.2978 14.1522 -8.94984
575 1 22.0123 18.8703 12.5798 -8.94933
576 1 1.57047 20.4425 14.1527 -8.94926
577 1 3.14064 18.8724 12.5805 -8.94888
578 1 4.71436 20.4442 14.1538 -8.94972
579 1 6.28439 18.8776 12.5815 -8.9515
580 1 7.86146 20.4443 14.153 -8.95128
581 1 9.43432 18.8733 12.5806 -8.94736
582 1 11.0074 20.4433 14.1527 -8.94972
583 1 12.5806 18.8726 12.5801 -8.95186
584 1 14.153 20.4432 14.1523 -8.95052
585 1 15.7256 18.8707 12.5794 -8.94932
586 1 17.2974 20.4422 14.1519 -8.94955
587 1 18.8694 18.8701 12.5795 -8.94936
588 1 20.4411 20.442 14.1521 -8.94942
589 1 1.57214 11.007 17.2978 -8.94941
590 1 4.71655 11.007 17.2979 -8.94616
591 1 7.86711 11.007 17.2891 -8.94341
592 1 11.0124 11.007 17.2963 -8.99102
593 1 14.1652 11.007 17.3107 -8.94202
594 1 17.3033 11.007 17.3007 -8.949
595 1 20.4436 11.007 17.2979 -8.94982
596 1 22.0143 12.5794 15.7251 -8.94972
597 1 1.57181 14.1517 17.2976 -8.94964
598 1 3.14368 12.5784 15.7252 -8.94896
599 1 4.71527 14.1512 17.2984 -8.95157
600 1 6.28898 12.5753 15.7229 -8.95067
601 1 7.85766 14.1568 17.3062 -8.95852
602 1 9.42784 12.5979 15.7214 -8.91847
603 1 11.0075 14.1572 17.3074 -8.95355
604 1 12.6189 12.6092 15.767 -8.88718
605 1 14.1662 14.1646 17.3126 -8.93422
606 1 15.738 12.5833 15.7322 -8.95405
607 1 17.3029 14.1549 17.3003 -8.94999
608 1 18.8734 12.5801 15.7258 -8.95105
609 1 20.4433 14.1525 17.2977 -8.94992
610 1 22.0129 15.7249 15.7251 -8.95054
611 1 1.57025 17.2979 17.2985 -8.95003
612 1 3.13921 15.7266 15.7275 -8.95183
613 1 4.71133 17.3019 17.303 -8.94445
614 1 6.27363 15.7395 15.7407 -8.93069
615 1 7.86001 17.3013 17.301 -8.94795
616 1 9.43263 15.7355 15.7325 -8.94654
617 1 11.0075 17.3012 17.3008 -8.94745
618 1 12.5884 15.738 15.7364 -8.95043
619 1 14.1562 17.3031 17.3016 -8.9494
620 1 15.7316 15.7304 15.7292 -8.94675
621 1 17.2998 17.2996 17.2986 -8.94894
622 1 18.8715 15.7258 15.7251 -8.95032
623 1 20.442 17.2977 17.2975 -8.94991
624 1 -0.00130224 18.8702 15.7252 -8.94936
625 1 1.57089 20.4423 17.298 -8.94889
626 1 3.14113 18.8721 15.7271 -8.94742
627 1 4.71552 20.4431 17.2987 -8.95002
628 1 6.28666 18.8743 15.7276 -8.95158
629 1 7.86158 20.443 17.2984 -8.94941
630 1 9.43431 18.8734 15.7269 -8.94995
631 1 11.0073 20.443 17.2982 -8.94943
632 1 12.5805 18.8731 15.7261 -8.95183
633 1 14.1528 20.4431 17.2978 -8.95053
634 1 15.7265 18.8721 15.7257 -8.94907
635 1 17.2977 20.4425 17.2974 -8.94946
636 1 18.8698 18.8702 15.7247 -8.94966
637 1 20.4414 20.442 17.2972 -8.94944
638 1 1.57243 11.007 20.442 -8.94952
639 1 4.71686 11.007 20.4419 -8.94968
640 1 7.86223 11.007 20.4404 -8.94681
641 1 11.0068 11.007 20.4423 -8.94682
642 1 14.1556 11.007 20.4455 -8.95008
643 1 17.2998 11.007 20.4431 -8.9492
644 1 20.4429 11.007 20.4421 -8.94941
645 1 0.000640096 12.5795 18.8699 -8.94946
646 1 1.57239 14.1518 20.4419 -8.94933
647 1 3.14433 12.5792 18.87 -8.94893
648 1 4.7169 14.1512 20.442 -8.94973
649 1 6.28997 12.578 18.8687 -8.94927
650 1 7.86164 14.1518 20.4431 -8.95266
651 1 9.43515 12.5793 18.8689 -8.94785
652 1 11.0064 14.1531 20.444 -8.95123
653 1 12.5833 12.581 18.879 -8.95967
654 1 14.1546 14.1543 20.4454 -8.95215
655 1 15.7301 12.5814 18.8744 -8.94749
656 1 17.2996 14.1534 20.443 -8.94887
657 1 18.8721 12.5801 18.8708 -8.94918
658 1 20.4428 14.1523 20.4421 -8.94932
659 1 22.0142 15.7246 18.8698 -8.94971
660 1 1.57198 17.297 20.4421 -8.94996
661 1 3.14362 15.7244 18.8705 -8.95054
662 1 4.71561 17.2979 20.4433 -8.95018
663 1 6.2867 15.7267 18.8741 -8.95178
664 1 7.86117 17.2982 20.4429 -8.94911
665 1 9.43348 15.7274 18.8731 -8.94807
666 1 11.0069 17.2986 20.4429 -8.94928
667 1 12.581 15.7278 18.8741 -8.95004
668 1 14.1531 17.299 20.4431 -8.94984
669 1 15.7299 15.7297 18.8745 -8.94536
670 1 17.2992 17.2991 20.4429 -8.94819
671 1 18.8717 15.7259 18.8706 -8.94945
672 1 20.4425 17.2975 20.442 -8.94944
673 1 22.0134 18.8698 18.8699 -8.94953
674 1 1.57152 20.442 20.4421 -8.94894
675 1 3.14263 18.8708 18.8713 -8.94809
676 1 4.71647 20.4421 20.4422 -8.94948
677 1 6.28842 18.8709 18.8711 -8.94932
678 1 7.86173 20.4422 20.4422 -8.94936
679 1 9.43422 18.871 18.8709 -8.94927
680 1 11.007 20.4423 20.4422 -8.9494
681 1 12.58 18.8712 18.8708 -8.949
682 1 14.1523 20.4423 20.4421 -8.94939
683 1 15.7263 18.8718 18.8709 -8.94933
684 1 17.2977 20.4424 20.4421 -8.9494
685 1 18.8702 18.8704 18.8698 -8.94934
686 1 20.4418 20.442 20.4418 -8.94918
687 3 10.0716 11.0069 12.6156 2.36439
