ITEM: TIMESTEP
57
ITEM: NUMBER OF ATOMS
688
ITEM: BOX BOUNDS pp pp pp
0.0000000000000000e+00 2.2013900999999997e+01
0.0000000000000000e+00 2.2013900999999997e+01
0.0000000000000000e+00 2.2013900999999997e+01
ITEM: ATOMS id type x y z c_pot
1 1 22.0139 8.52607e-16 1.47891e-15 -8.94955
2 1 1.57235 1.57237 1.57237 -8.94945
3 1 3.14484 1.8907e-15 1.26574e-15 -8.94971
4 1 4.71725 1.57237 1.57237 -8.94971
5 1 6.28968 1.90757e-15 1.61737e-15 -8.94962
6 1 7.86209 1.57235 1.57236 -8.94962
7 1 9.43453 1.56214e-15 7.70563e-16 -8.94964
8 1 11.007 1.57234 1.57235 -8.94963
9 1 12.5794 1.31099e-15 -1.12835e-16 -8.94964
10 1 14.1518 1.57236 1.57237 -8.9496
11 1 15.7242 -4.05847e-16 1.29828e-16 -8.94964
12 1 17.2967 1.57233 1.57236 -8.94961
13 1 18.8691 6.47582e-16 1.79126e-15 -8.94957
14 1 20.4415 1.5724 1.57241 -8.9496
15 1 22.0139 3.14483 1.58757e-15 -8.94965
16 1 1.57238 4.71725 1.57237 -8.94975
17 1 3.14472 3.14472 1.93403e-15 -8.94953
18 1 4.7169 4.71692 1.57193 -8.94968
19 1 6.28966 3.14474 1.16313e-15 -8.94955
20 1 7.86202 4.71692 1.57207 -8.94927
21 1 9.43452 3.14471 1.4137e-15 -8.94962
22 1 11.007 4.71688 1.57207 -8.94949
23 1 12.5794 3.14472 1.01891e-15 -8.94958
24 1 14.1519 4.71694 1.57214 -8.94981
25 1 15.7242 3.14475 7.10301e-16 -8.94979
26 1 17.2971 4.71679 1.57207 -8.94868
27 1 18.8692 3.14473 1.67281e-15 -8.94931
28 1 20.4416 4.71721 1.57237 -8.94962
29 1 22.0139 6.28968 2.10423e-15 -8.94962
30 1 1.57236 7.86209 1.57236 -8.94956
31 1 3.14478 6.28971 2.33235e-15 -8.9497
32 1 4.71711 7.86222 1.57223 -8.94965
33 1 6.28942 6.28945 1.85028e-15 -8.95051
34 1 7.86181 7.86192 1.57128 -8.95184
35 1 9.43434 6.28922 1.19927e-15 -8.94952
36 1 11.0065 7.86146 1.57108 -8.95023
37 1 12.5793 6.28931 1.27037e-15 -8.9495
38 1 14.1527 7.86113 1.57051 -8.95159
39 1 15.7247 6.28914 8.11095e-16 -8.94991
40 1 17.297 7.86195 1.57212 -8.94946
41 1 18.8692 6.28964 1.85029e-15 -8.9497
42 1 20.4416 7.86209 1.57237 -8.9496
43 1 22.0139 9.43452 1.75018e-15 -8.94965
44 1 3.14472 9.43451 1.7578e-15 -8.94958
45 1 6.28947 9.43462 1.40352e-15 -8.94948
46 1 9.43423 9.43447 1.17833e-15 -8.94923
47 1 12.5795 9.43437 -1.01406e-15 -8.95266
48 1 15.7248 9.43436 1.49812e-16 -8.94924
49 1 18.8692 9.43451 2.18932e-15 -8.94965
50 1 -2.1546e-05 -6.72647e-17 3.14483 -8.94961
51 1 1.57231 1.57233 4.71718 -8.9495
52 1 3.14474 6.19344e-16 3.14474 -8.94962
53 1 4.717 1.57201 4.71696 -8.94988
54 1 6.28968 1.67921e-15 3.14476 -8.9496
55 1 7.86211 1.57209 4.71701 -8.94952
56 1 9.43453 2.06573e-15 3.14474 -8.94963
57 1 11.007 1.57204 4.71696 -8.94955
58 1 12.5794 1.91049e-15 3.14474 -8.94957
59 1 14.1519 1.57204 4.71708 -8.95008
60 1 15.7243 7.14825e-17 3.14477 -8.94975
61 1 17.2967 1.57231 4.71721 -8.94959
62 1 18.8691 3.97647e-16 3.14483 -8.94962
63 1 20.4415 1.5724 4.71725 -8.94963
64 1 22.0138 3.14478 3.14478 -8.94961
65 1 1.57193 4.71699 4.71696 -8.94976
66 1 3.14442 3.14444 3.1444 -8.94872
67 1 4.71497 4.71501 4.71472 -8.94541
68 1 6.28962 3.14453 3.14455 -8.94972
69 1 7.8619 4.71573 4.71591 -8.94887
70 1 9.43451 3.14442 3.14449 -8.94955
71 1 11.0071 4.71555 4.71588 -8.94812
72 1 12.5794 3.14443 3.14454 -8.94934
73 1 14.1531 4.71466 4.71579 -8.95019
74 1 15.7245 3.14428 3.14449 -8.9496
75 1 17.2972 4.71667 4.71689 -8.94911
76 1 18.8692 3.14474 3.14479 -8.94957
77 1 20.4415 4.71716 4.71719 -8.94968
78 1 22.0139 6.28966 3.14477 -8.94968
79 1 1.57215 7.86213 4.71705 -8.94956
80 1 3.14458 6.28968 3.14459 -8.95005
81 1 4.71627 7.8625 4.71637 -8.95083
82 1 6.28843 6.28853 3.14236 -8.95075
83 1 7.85874 7.85902 4.70939 -8.95691
84 1 9.43417 6.28838 3.14307 -8.94812
85 1 11.0058 7.85901 4.71057 -8.95161
86 1 12.5795 6.2885 3.14323 -8.94958
87 1 14.1619 7.85203 4.7062 -8.93234
88 1 15.7265 6.28732 3.14244 -8.94547
89 1 17.299 7.86105 4.71611 -8.95047
90 1 18.8696 6.28941 3.14455 -8.94969
91 1 20.4418 7.86199 4.7171 -8.94988
92 1 -3.76081e-06 9.43451 3.14474 -8.94961
93 1 3.14451 9.43451 3.14448 -8.94925
94 1 6.28936 9.4352 3.14427 -8.94949
95 1 9.43433 9.4346 3.14357 -8.94901
96 1 12.581 9.43339 3.13748 -8.95931
97 1 15.726 9.43391 3.14295 -8.94802
98 1 18.8695 9.43445 3.14454 -8.94946
99 1 22.0139 9.18752e-16 6.28968 -8.94966
100 1 1.57229 1.57232 7.86207 -8.94966
101 1 3.14465 1.37486e-15 6.28955 -8.9495
102 1 4.71673 1.57168 7.86175 -8.94959
103 1 6.28955 1.29503e-15 6.28946 -8.95021
104 1 7.86209 1.57125 7.86185 -8.95089
105 1 9.43461 1.59351e-15 6.28944 -8.9499
106 1 11.0072 1.57169 7.86185 -8.94958
107 1 12.5795 1.77068e-15 6.28953 -8.95001
108 1 14.1521 1.5719 7.862 -8.95003
109 1 15.7243 1.81942e-15 6.28962 -8.9497
110 1 17.2967 1.57233 7.86211 -8.94963
111 1 18.8691 1.01564e-15 6.28968 -8.94965
112 1 20.4415 1.57239 7.8621 -8.94963
113 1 -0.000137021 3.14473 6.28962 -8.94955
114 1 1.57153 4.71674 7.86176 -8.94942
115 1 3.14416 3.14418 6.28917 -8.9486
116 1 4.71364 4.71362 7.85936 -8.94345
117 1 6.28893 3.14279 6.28869 -8.95127
118 1 7.86068 4.71021 7.86032 -8.95763
119 1 9.43479 3.14314 6.28886 -8.94974
120 1 11.0069 4.71414 7.86116 -8.95011
121 1 12.5796 3.14323 6.28928 -8.95136
122 1 14.1536 4.71415 7.86129 -8.94928
123 1 15.7247 3.1441 6.28946 -8.94944
124 1 17.2971 4.71681 7.86212 -8.94973
125 1 18.8691 3.14474 6.28967 -8.94969
126 1 20.4415 4.71712 7.86206 -8.94965
127 1 22.0136 6.28956 6.28954 -8.95001
128 1 1.57095 7.86204 7.86183 -8.95116
129 1 3.14259 6.2888 6.28854 -8.95102
130 1 4.70911 7.86043 7.85974 -8.95852
131 1 6.27948 6.27976 6.27851 -8.9324
132 1 7.82274 7.82761 7.82598 -8.86396
133 1 9.43438 6.28338 6.28547 -8.94825
134 1 11.0186 7.85166 7.83795 -8.90322
135 1 12.5835 6.28097 6.28445 -8.95382
136 1 14.1643 7.85158 7.8549 -8.93361
137 1 15.7273 6.28682 6.28786 -8.94643
138 1 17.2994 7.86105 7.86197 -8.95139
139 1 18.8697 6.28932 6.28951 -8.94981
140 1 20.4417 7.86196 7.86206 -8.95021
141 1 22.0138 9.43451 6.28948 -8.94981
142 1 3.14364 9.43495 6.28895 -8.94917
143 1 6.28714 9.43787 6.2886 -8.95043
144 1 9.42509 9.41946 6.28831 -8.91582
145 1 12.6171 9.40251 6.24985 -8.87537
146 1 15.733 9.43218 6.28628 -8.95527
147 1 18.8707 9.43432 6.28935 -8.9509
148 1 -3.01241e-05 1.71939e-15 9.43453 -8.94965
149 1 3.14463 1.72088e-15 9.43449 -8.94954
150 1 6.28931 1.92914e-15 9.43435 -8.95062
151 1 9.43475 1.70748e-15 9.43436 -8.9496
152 1 12.5796 1.86276e-15 9.43447 -8.95005
153 1 15.7243 1.83293e-15 9.43454 -8.94962
154 1 18.8691 1.20746e-15 9.43452 -8.94963
155 1 22.0138 3.14472 9.43451 -8.94959
156 1 3.14416 3.14417 9.43438 -8.94949
157 1 6.28796 3.14098 9.43369 -8.95073
158 1 9.43508 3.14247 9.43398 -8.94725
159 1 12.5799 3.14311 9.43434 -8.95108
160 1 15.7246 3.14433 9.43464 -8.94955
161 1 18.8692 3.14471 9.43452 -8.94958
162 1 22.0133 6.28941 9.43442 -8.9501
163 1 3.14065 6.28774 9.4335 -8.94991
164 1 6.27326 6.27347 9.42464 -8.92244
165 1 9.43148 6.28702 9.43278 -9.00468
166 1 12.5829 6.28167 9.4297 -8.95012
167 1 15.7261 6.28808 9.43493 -8.94846
168 1 18.8696 6.28926 9.43457 -8.94946
169 1 22.0134 9.43461 9.43443 -8.94995
170 1 3.14171 9.43547 9.43404 -8.95062
171 1 6.2795 9.43155 9.43446 -8.96915
172 1 9.35347 9.18335 9.44374 -8.05729
173 1 12.5973 9.40743 9.38888 -8.82007
174 1 15.7288 9.4337 9.43376 -8.95286
175 1 18.8702 9.43434 9.43467 -8.95001
176 1 1.57228 1.57231 11.007 -8.94964
177 1 4.71671 1.57168 11.007 -8.94932
178 1 7.86204 1.57049 11.007 -8.95269
179 1 11.0072 1.57159 11.007 -8.94972
180 1 14.1521 1.5721 11.007 -8.94936
181 1 17.2968 1.5723 11.007 -8.94959
182 1 20.4415 1.57239 11.007 -8.94964
183 1 1.57156 4.71674 11.007 -8.94928
184 1 4.71402 4.71393 11.007 -8.94693
185 1 7.85914 4.70449 11.007 -8.96505
186 1 11.0071 4.7139 11.007 -8.9528
187 1 14.1525 4.71622 11.007 -8.9484
188 1 17.2972 4.71669 11.007 -8.94901
189 1 20.4415 4.71709 11.007 -8.94959
190 1 1.56978 7.86189 11.007 -8.95303
191 1 4.70147 7.858 11.007 -8.96412
192 1 7.786 7.79707 11.007 -8.75235
193 1 11.0434 7.84839 11.007 -8.8522
194 1 14.1568 7.86179 11.007 -8.96319
195 1 17.2984 7.86129 11.007 -8.94959
196 1 20.4415 7.8619 11.007 -8.95015
197 1 -3.01241e-05 1.78158e-15 12.5794 -8.94965
198 1 1.57229 1.57232 14.1518 -8.94966
199 1 3.14463 1.69866e-15 12.5794 -8.94954
200 1 4.71673 1.57168 14.1522 -8.94959
201 1 6.28931 1.68703e-15 12.5795 -8.95062
202 1 7.86209 1.57125 14.1521 -8.95089
203 1 9.43475 1.47371e-15 12.5795 -8.9496
204 1 11.0072 1.57169 14.1521 -8.94958
205 1 12.5796 1.74425e-15 12.5794 -8.95005
206 1 14.1521 1.5719 14.1519 -8.95003
207 1 15.7243 1.10789e-15 12.5794 -8.94962
208 1 17.2967 1.57233 14.1518 -8.94963
209 1 18.8691 1.48909e-15 12.5794 -8.94963
210 1 20.4415 1.57239 14.1518 -8.94963
211 1 22.0138 3.14472 12.5794 -8.94959
212 1 1.57153 4.71674 14.1521 -8.94942
213 1 3.14416 3.14417 12.5795 -8.94949
214 1 4.71364 4.71362 14.1545 -8.94345
215 1 6.28796 3.14098 12.5802 -8.95073
216 1 7.86068 4.71021 14.1536 -8.95763
217 1 9.43508 3.14247 12.5799 -8.94725
218 1 11.0069 4.71414 14.1527 -8.95011
219 1 12.5799 3.14311 12.5796 -8.95108
220 1 14.1536 4.71415 14.1526 -8.94928
221 1 15.7246 3.14433 12.5793 -8.94955
222 1 17.2971 4.71681 14.1518 -8.94973
223 1 18.8692 3.14471 12.5794 -8.94958
224 1 20.4415 4.71712 14.1518 -8.94965
225 1 22.0133 6.28941 12.5795 -8.9501
226 1 1.57095 7.86204 14.1521 -8.95116
227 1 3.14065 6.28774 12.5804 -8.94991
228 1 4.70911 7.86043 14.1542 -8.95852
229 1 6.27326 6.27347 12.5893 -8.92244
230 1 7.82274 7.82761 14.1879 -8.86396
231 1 9.43148 6.28702 12.5811 -9.00468
232 1 11.0186 7.85166 14.176 -8.90322
233 1 12.5829 6.28167 12.5842 -8.95012
234 1 14.1643 7.85158 14.159 -8.93361
235 1 15.7261 6.28808 12.579 -8.94846
236 1 17.2994 7.86105 14.1519 -8.95139
237 1 18.8696 6.28926 12.5793 -8.94946
238 1 20.4417 7.86196 14.1518 -8.95021
239 1 22.0134 9.43461 12.5795 -8.94995
240 1 3.14171 9.43547 12.5799 -8.95062
241 1 6.2795 9.43155 12.5794 -8.96915
242 1 9.35347 9.18335 12.5702 -8.05729
243 1 12.5973 9.40743 12.625 -8.82007
244 1 15.7288 9.4337 12.5801 -8.95286
245 1 18.8702 9.43434 12.5792 -8.95001
246 1 22.0139 1.44984e-15 15.7242 -8.94966
247 1 1.57231 1.57233 17.2967 -8.9495
248 1 3.14465 1.35329e-15 15.7243 -8.9495
249 1 4.717 1.57201 17.2969 -8.94988
250 1 6.28955 1.70696e-15 15.7244 -8.95021
251 1 7.86211 1.57209 17.2969 -8.94952
252 1 9.43461 1.61833e-15 15.7245 -8.9499
253 1 11.007 1.57204 17.2969 -8.94955
254 1 12.5795 2.17753e-15 15.7244 -8.95001
255 1 14.1519 1.57204 17.2968 -8.95008
256 1 15.7243 1.65089e-15 15.7243 -8.9497
257 1 17.2967 1.57231 17.2967 -8.94959
258 1 18.8691 1.73184e-15 15.7242 -8.94965
259 1 20.4415 1.5724 17.2966 -8.94963
260 1 -0.000137021 3.14473 15.7243 -8.94955
261 1 1.57193 4.71699 17.2969 -8.94976
262 1 3.14416 3.14418 15.7247 -8.9486
263 1 4.71497 4.71501 17.2992 -8.94541
264 1 6.28893 3.14279 15.7252 -8.95127
265 1 7.8619 4.71573 17.298 -8.94887
266 1 9.43479 3.14314 15.725 -8.94974
267 1 11.0071 4.71555 17.298 -8.94812
268 1 12.5796 3.14323 15.7246 -8.95136
269 1 14.1531 4.71466 17.2981 -8.95019
270 1 15.7247 3.1441 15.7244 -8.94944
271 1 17.2972 4.71667 17.297 -8.94911
272 1 18.8691 3.14474 15.7242 -8.94969
273 1 20.4415 4.71716 17.2967 -8.94968
274 1 22.0136 6.28956 15.7244 -8.95001
275 1 1.57215 7.86213 17.2969 -8.94956
276 1 3.14259 6.2888 15.7254 -8.95102
277 1 4.71627 7.8625 17.2975 -8.95083
278 1 6.27948 6.27976 15.7354 -8.9324
279 1 7.85874 7.85902 17.3045 -8.95691
280 1 9.43438 6.28338 15.7284 -8.94825
281 1 11.0058 7.85901 17.3033 -8.95161
282 1 12.5835 6.28097 15.7294 -8.95382
283 1 14.1619 7.85203 17.3077 -8.93234
284 1 15.7273 6.28682 15.726 -8.94643
285 1 17.299 7.86105 17.2978 -8.95047
286 1 18.8697 6.28932 15.7244 -8.94981
287 1 20.4418 7.86199 17.2968 -8.94988
288 1 22.0138 9.43451 15.7244 -8.94981
289 1 3.14364 9.43495 15.725 -8.94917
290 1 6.28714 9.43787 15.7253 -8.95043
291 1 9.42509 9.41946 15.7256 -8.91582
292 1 12.6171 9.40251 15.7641 -8.87537
293 1 15.733 9.43218 15.7276 -8.95527
294 1 18.8707 9.43432 15.7246 -8.9509
295 1 -2.1546e-05 1.08489e-15 18.8691 -8.94961
296 1 1.57235 1.57237 20.4415 -8.94945
297 1 3.14474 4.99541e-16 18.8692 -8.94962
298 1 4.71725 1.57237 20.4415 -8.94971
299 1 6.28968 1.7973e-15 18.8691 -8.9496
300 1 7.86209 1.57235 20.4415 -8.94962
301 1 9.43453 1.14443e-15 18.8692 -8.94963
302 1 11.007 1.57234 20.4415 -8.94963
303 1 12.5794 1.92714e-15 18.8692 -8.94957
304 1 14.1518 1.57236 20.4415 -8.9496
305 1 15.7243 3.16187e-16 18.8691 -8.94975
306 1 17.2967 1.57233 20.4415 -8.94961
307 1 18.8691 3.74617e-16 18.8691 -8.94962
308 1 20.4415 1.5724 20.4415 -8.9496
309 1 22.0138 3.14478 18.8691 -8.94961
310 1 1.57238 4.71725 20.4415 -8.94975
311 1 3.14442 3.14444 18.8695 -8.94872
312 1 4.7169 4.71692 20.442 -8.94968
313 1 6.28962 3.14453 18.8694 -8.94972
314 1 7.86202 4.71692 20.4418 -8.94927
315 1 9.43451 3.14442 18.8694 -8.94955
316 1 11.007 4.71688 20.4418 -8.94949
317 1 12.5794 3.14443 18.8694 -8.94934
318 1 14.1519 4.71694 20.4418 -8.94981
319 1 15.7245 3.14428 18.8694 -8.9496
320 1 17.2971 4.71679 20.4418 -8.94868
321 1 18.8692 3.14474 18.8691 -8.94957
322 1 20.4416 4.71721 20.4415 -8.94962
323 1 22.0139 6.28966 18.8691 -8.94968
324 1 1.57236 7.86209 20.4415 -8.94956
325 1 3.14458 6.28968 18.8693 -8.95005
326 1 4.71711 7.86222 20.4417 -8.94965
327 1 6.28843 6.28853 18.8715 -8.95075
328 1 7.86181 7.86192 20.4426 -8.95184
329 1 9.43417 6.28838 18.8708 -8.94812
330 1 11.0065 7.86146 20.4428 -8.95023
331 1 12.5795 6.2885 18.8707 -8.94958
332 1 14.1527 7.86113 20.4434 -8.95159
333 1 15.7265 6.28732 18.8715 -8.94547
334 1 17.297 7.86195 20.4418 -8.94946
335 1 18.8696 6.28941 18.8694 -8.94969
336 1 20.4416 7.86209 20.4415 -8.9496
337 1 -3.76081e-06 9.43451 18.8692 -8.94961
338 1 3.14451 9.43451 18.8694 -8.94925
339 1 6.28936 9.4352 18.8696 -8.94949
340 1 9.43433 9.4346 18.8703 -8.94901
341 1 12.581 9.43339 18.8764 -8.95931
342 1 15.726 9.43391 18.871 -8.94802
343 1 18.8695 9.43445 18.8694 -8.94946
344 1 1.57235 11.007 1.57235 -8.94965
345 1 4.71695 11.007 1.57207 -8.94967
346 1 7.86184 11.007 1.57231 -8.94834
347 1 11.0065 11.007 1.57122 -8.9479
348 1 14.153 11.007 1.57048 -8.94955
349 1 17.2971 11.007 1.5721 -8.94956
350 1 20.4416 11.007 1.57236 -8.94963
351 1 22.0139 12.5794 1.59455e-15 -8.94965
352 1 1.57236 14.1518 1.57236 -8.94956
353 1 3.14472 12.5794 1.53038e-15 -8.94958
354 1 4.71711 14.1517 1.57223 -8.94965
355 1 6.28947 12.5793 1.69098e-15 -8.94948
356 1 7.86181 14.152 1.57128 -8.95184
357 1 9.43423 12.5794 1.32978e-15 -8.94923
358 1 11.0065 14.1524 1.57108 -8.95023
359 1 12.5795 12.5795 -9.53384e-16 -8.95266
360 1 14.1527 14.1528 1.57051 -8.95159
361 1 15.7248 12.5795 3.00994e-16 -8.94924
362 1 17.297 14.152 1.57212 -8.94946
363 1 18.8692 12.5794 1.25654e-15 -8.94965
364 1 20.4416 14.1518 1.57237 -8.9496
365 1 22.0139 15.7242 1.92928e-15 -8.94962
366 1 1.57238 17.2967 1.57237 -8.94975
367 1 3.14478 15.7242 1.61887e-15 -8.9497
368 1 4.7169 17.297 1.57193 -8.94968
369 1 6.28942 15.7245 1.84337e-15 -8.95051
370 1 7.86202 17.297 1.57207 -8.94927
371 1 9.43434 15.7247 1.84561e-15 -8.94952
372 1 11.007 17.297 1.57207 -8.94949
373 1 12.5793 15.7246 1.396e-15 -8.9495
374 1 14.1519 17.297 1.57214 -8.94981
375 1 15.7247 15.7248 9.43141e-16 -8.94991
376 1 17.2971 17.2971 1.57207 -8.94868
377 1 18.8692 15.7243 1.68772e-15 -8.9497
378 1 20.4416 17.2967 1.57237 -8.94962
379 1 22.0139 18.8691 1.08387e-15 -8.94965
380 1 1.57235 20.4415 1.57237 -8.94945
381 1 3.14472 18.8692 1.42748e-15 -8.94953
382 1 4.71725 20.4415 1.57237 -8.94971
383 1 6.28966 18.8692 1.09686e-15 -8.94955
384 1 7.86209 20.4416 1.57236 -8.94962
385 1 9.43452 18.8692 9.3429e-16 -8.94962
386 1 11.007 20.4416 1.57235 -8.94963
387 1 12.5794 18.8692 1.43186e-15 -8.94958
388 1 14.1518 20.4415 1.57237 -8.9496
389 1 15.7242 18.8692 1.33873e-15 -8.94979
390 1 17.2967 20.4416 1.57236 -8.94961
391 1 18.8692 18.8692 1.63213e-15 -8.94931
392 1 20.4415 20.4415 1.57241 -8.9496
393 1 1.57205 11.007 4.71689 -8.94953
394 1 4.71607 11.007 4.71577 -8.94694
395 1 7.86402 11.007 4.71953 -8.94585
396 1 11.0106 11.007 4.71634 -8.99521
397 1 14.1597 11.007 4.70869 -8.94244
398 1 17.299 11.007 4.71604 -8.9492
399 1 20.4418 11.007 4.71705 -8.94976
400 1 -3.76081e-06 12.5794 3.14474 -8.94961
401 1 1.57215 14.1518 4.71705 -8.94956
402 1 3.14451 12.5794 3.14448 -8.94925
403 1 4.71627 14.1514 4.71637 -8.95083
404 1 6.28936 12.5787 3.14427 -8.94949
405 1 7.85874 14.1549 4.70939 -8.95691
406 1 9.43433 12.5793 3.14357 -8.94901
407 1 11.0058 14.1549 4.71057 -8.95161
408 1 12.581 12.5805 3.13748 -8.95931
409 1 14.1619 14.1619 4.7062 -8.93234
410 1 15.726 12.58 3.14295 -8.94802
411 1 17.299 14.1529 4.71611 -8.95047
412 1 18.8695 12.5795 3.14454 -8.94946
413 1 20.4418 14.1519 4.7171 -8.94988
414 1 22.0139 15.7242 3.14477 -8.94968
415 1 1.57193 17.2969 4.71696 -8.94976
416 1 3.14458 15.7242 3.14459 -8.95005
417 1 4.71497 17.2989 4.71472 -8.94541
418 1 6.28843 15.7254 3.14236 -8.95075
419 1 7.8619 17.2982 4.71591 -8.94887
420 1 9.43417 15.7255 3.14307 -8.94812
421 1 11.0071 17.2984 4.71588 -8.94812
422 1 12.5795 15.7254 3.14323 -8.94958
423 1 14.1531 17.2992 4.71579 -8.95019
424 1 15.7265 15.7266 3.14244 -8.94547
425 1 17.2972 17.2972 4.71689 -8.94911
426 1 18.8696 15.7245 3.14455 -8.94969
427 1 20.4415 17.2967 4.71719 -8.94968
428 1 22.0138 18.8691 3.14478 -8.94961
429 1 1.57231 20.4416 4.71718 -8.9495
430 1 3.14442 18.8695 3.1444 -8.94872
431 1 4.717 20.4419 4.71696 -8.94988
432 1 6.28962 18.8694 3.14455 -8.94972
433 1 7.86211 20.4418 4.71701 -8.94952
434 1 9.43451 18.8695 3.14449 -8.94955
435 1 11.007 20.4419 4.71696 -8.94955
436 1 12.5794 18.8695 3.14454 -8.94934
437 1 14.1519 20.4419 4.71708 -8.95008
438 1 15.7245 18.8696 3.14449 -8.9496
439 1 17.2967 20.4416 4.71721 -8.94959
440 1 18.8692 18.8692 3.14479 -8.94957
441 1 20.4415 20.4415 4.71725 -8.94963
442 1 1.57164 11.007 7.86153 -8.94834
443 1 4.71703 11.007 7.86103 -8.94023
444 1 7.87902 11.007 7.87527 -8.8572
445 1 11.1044 11.007 7.66217 -8.19331
446 1 14.1691 11.007 7.85078 -8.96673
447 1 17.3009 11.007 7.86175 -8.9516
448 1 20.4421 11.007 7.86203 -8.95014
449 1 22.0138 12.5794 6.28948 -8.94981
450 1 1.57095 14.1519 7.86183 -8.95116
451 1 3.14364 12.5789 6.28895 -8.94917
452 1 4.70911 14.1535 7.85974 -8.95852
453 1 6.28714 12.576 6.2886 -8.95043
454 1 7.82274 14.1863 7.82598 -8.86396
455 1 9.42509 12.5944 6.28831 -8.91582
456 1 11.0186 14.1622 7.83795 -8.90322
457 1 12.6171 12.6114 6.24985 -8.87537
458 1 14.1643 14.1623 7.8549 -8.93361
459 1 15.733 12.5817 6.28628 -8.95527
460 1 17.2994 14.1529 7.86197 -8.95139
461 1 18.8707 12.5796 6.28935 -8.9509
462 1 20.4417 14.1519 7.86206 -8.95021
463 1 22.0136 15.7243 6.28954 -8.95001
464 1 1.57153 17.2972 7.86176 -8.94942
465 1 3.14259 15.7251 6.28854 -8.95102
466 1 4.71364 17.3003 7.85936 -8.94345
467 1 6.27948 15.7341 6.27851 -8.9324
468 1 7.86068 17.3037 7.86032 -8.95763
469 1 9.43438 15.7305 6.28547 -8.94825
470 1 11.0069 17.2998 7.86116 -8.95011
471 1 12.5835 15.7329 6.28445 -8.95382
472 1 14.1536 17.2998 7.86129 -8.94928
473 1 15.7273 15.7271 6.28786 -8.94643
474 1 17.2971 17.2971 7.86212 -8.94973
475 1 18.8697 15.7246 6.28951 -8.94981
476 1 20.4415 17.2968 7.86206 -8.94965
477 1 -0.000137021 18.8692 6.28962 -8.94955
478 1 1.57229 20.4416 7.86207 -8.94966
479 1 3.14416 18.8697 6.28917 -8.9486
480 1 4.71673 20.4422 7.86175 -8.94959
481 1 6.28893 18.8711 6.28869 -8.95127
482 1 7.86209 20.4427 7.86185 -8.95089
483 1 9.43479 18.8708 6.28886 -8.94974
484 1 11.0072 20.4422 7.86185 -8.94958
485 1 12.5796 18.8707 6.28928 -8.95136
486 1 14.1521 20.442 7.862 -8.95003
487 1 15.7247 18.8698 6.28946 -8.94944
488 1 17.2967 20.4416 7.86211 -8.94963
489 1 18.8691 18.8692 6.28967 -8.94969
490 1 20.4415 20.4415 7.8621 -8.94963
491 1 22.0134 12.5793 9.43443 -8.94995
492 1 3.14171 12.5784 9.43404 -8.95062
493 1 6.2795 12.5824 9.43446 -8.96915
494 1 9.35347 12.8305 9.44374 -8.05729
495 1 12.5973 12.6065 9.38888 -8.82007
496 1 15.7288 12.5802 9.43376 -8.95286
497 1 18.8702 12.5796 9.43467 -8.95001
498 1 22.0133 15.7245 9.43442 -8.9501
499 1 3.14065 15.7262 9.4335 -8.94991
500 1 6.27326 15.7404 9.42464 -8.92244
501 1 9.43148 15.7269 9.43278 -9.00468
502 1 12.5829 15.7322 9.4297 -8.95012
503 1 15.7261 15.7258 9.43493 -8.94846
504 1 18.8696 15.7246 9.43457 -8.94946
505 1 22.0138 18.8692 9.43451 -8.94959
506 1 3.14416 18.8697 9.43438 -8.94949
507 1 6.28796 18.8729 9.43369 -8.95073
508 1 9.43508 18.8714 9.43398 -8.94725
509 1 12.5799 18.8708 9.43434 -8.95108
510 1 15.7246 18.8696 9.43464 -8.94955
511 1 18.8692 18.8692 9.43452 -8.94958
688 3 10.1259 11.007 9.39186 2.39936
512 1 1.57149 11.007 11.007 -8.94725
513 1 4.71866 11.007 11.007 -8.93676
514 1 7.88613 11.007 11.007 -8.74868
515 1 11.2909 11.007 11.007 -7.32831
516 1 14.1474 11.007 11.007 -9.01649
517 1 17.2976 11.007 11.007 -8.94685
518 1 20.4417 11.007 11.007 -8.94917
519 1 1.56978 14.152 11.007 -8.95303
520 1 4.70147 14.1559 11.007 -8.96412
521 1 7.786 14.2168 11.007 -8.75235
522 1 11.0434 14.1655 11.007 -8.8522
523 1 14.1568 14.1521 11.007 -8.96319
524 1 17.2984 14.1526 11.007 -8.94959
525 1 20.4415 14.152 11.007 -8.95015
526 1 1.57156 17.2972 11.007 -8.94928
527 1 4.71402 17.3 11.007 -8.94693
528 1 7.85914 17.3094 11.007 -8.96505
529 1 11.0071 17.3 11.007 -8.9528
530 1 14.1525 17.2977 11.007 -8.9484
531 1 17.2972 17.2972 11.007 -8.94901
532 1 20.4415 17.2968 11.007 -8.94959
533 1 1.57228 20.4416 11.007 -8.94964
534 1 4.71671 20.4422 11.007 -8.94932
535 1 7.86204 20.4434 11.007 -8.95269
536 1 11.0072 20.4423 11.007 -8.94972
537 1 14.1521 20.4418 11.007 -8.94936
538 1 17.2968 20.4416 11.007 -8.94959
539 1 20.4415 20.4415 11.007 -8.94964
540 1 1.57164 11.007 14.1524 -8.94834
541 1 4.71703 11.007 14.1529 -8.94023
542 1 7.87902 11.007 14.1386 -8.8572
543 1 11.1044 11.007 14.3517 -8.19331
544 1 14.1691 11.007 14.1631 -8.96673
545 1 17.3009 11.007 14.1522 -8.9516
546 1 20.4421 11.007 14.1519 -8.95014
547 1 22.0134 12.5793 12.5795 -8.94995
548 1 1.57095 14.1519 14.1521 -8.95116
549 1 3.14171 12.5784 12.5799 -8.95062
550 1 4.70911 14.1535 14.1542 -8.95852
551 1 6.2795 12.5824 12.5794 -8.96915
552 1 7.82274 14.1863 14.1879 -8.86396
553 1 9.35347 12.8305 12.5702 -8.05729
554 1 11.0186 14.1622 14.176 -8.90322
555 1 12.5973 12.6065 12.625 -8.82007
556 1 14.1643 14.1623 14.159 -8.93361
557 1 15.7288 12.5802 12.5801 -8.95286
558 1 17.2994 14.1529 14.1519 -8.95139
559 1 18.8702 12.5796 12.5792 -8.95001
560 1 20.4417 14.1519 14.1518 -8.95021
561 1 22.0133 15.7245 12.5795 -8.9501
562 1 1.57153 17.2972 14.1521 -8.94942
563 1 3.14065 15.7262 12.5804 -8.94991
564 1 4.71364 17.3003 14.1545 -8.94345
565 1 6.27326 15.7404 12.5893 -8.92244
566 1 7.86068 17.3037 14.1536 -8.95763
567 1 9.43148 15.7269 12.5811 -9.00468
568 1 11.0069 17.2998 14.1527 -8.95011
569 1 12.5829 15.7322 12.5842 -8.95012
570 1 14.1536 17.2998 14.1526 -8.94928
571 1 15.7261 15.7258 12.579 -8.94846
572 1 17.2971 17.2971 14.1518 -8.94973
573 1 18.8696 15.7246 12.5793 -8.94946
574 1 20.4415 17.2968 14.1518 -8.94965
575 1 22.0138 18.8692 12.5794 -8.94959
576 1 1.57229 20.4416 14.1518 -8.94966
577 1 3.14416 18.8697 12.5795 -8.94949
578 1 4.71673 20.4422 14.1522 -8.94959
579 1 6.28796 18.8729 12.5802 -8.95073
580 1 7.86209 20.4427 14.1521 -8.95089
581 1 9.43508 18.8714 12.5799 -8.94725
582 1 11.0072 20.4422 14.1521 -8.94958
583 1 12.5799 18.8708 12.5796 -8.95108
584 1 14.1521 20.442 14.1519 -8.95003
585 1 15.7246 18.8696 12.5793 -8.94955
586 1 17.2967 20.4416 14.1518 -8.94963
587 1 18.8692 18.8692 12.5794 -8.94958
588 1 20.4415 20.4415 14.1518 -8.94963
589 1 1.57205 11.007 17.297 -8.94953
590 1 4.71607 11.007 17.2981 -8.94694
591 1 7.86402 11.007 17.2944 -8.94585
592 1 11.0106 11.007 17.2976 -8.99521
593 1 14.1597 11.007 17.3052 -8.94244
594 1 17.299 11.007 17.2979 -8.9492
595 1 20.4418 11.007 17.2969 -8.94976
596 1 22.0138 12.5794 15.7244 -8.94981
597 1 1.57215 14.1518 17.2969 -8.94956
598 1 3.14364 12.5789 15.725 -8.94917
599 1 4.71627 14.1514 17.2975 -8.95083
600 1 6.28714 12.576 15.7253 -8.95043
601 1 7.85874 14.1549 17.3045 -8.95691
602 1 9.42509 12.5944 15.7256 -8.91582
603 1 11.0058 14.1549 17.3033 -8.95161
604 1 12.6171 12.6114 15.7641 -8.87537
605 1 14.1619 14.1619 17.3077 -8.93234
606 1 15.733 12.5817 15.7276 -8.95527
607 1 17.299 14.1529 17.2978 -8.95047
608 1 18.8707 12.5796 15.7246 -8.9509
609 1 20.4418 14.1519 17.2968 -8.94988
610 1 22.0136 15.7243 15.7244 -8.95001
611 1 1.57193 17.2969 17.2969 -8.94976
612 1 3.14259 15.7251 15.7254 -8.95102
613 1 4.71497 17.2989 17.2992 -8.94541
614 1 6.27948 15.7341 15.7354 -8.9324
615 1 7.8619 17.2982 17.298 -8.94887
616 1 9.43438 15.7305 15.7284 -8.94825
617 1 11.0071 17.2984 17.298 -8.94812
618 1 12.5835 15.7329 15.7294 -8.95382
619 1 14.1531 17.2992 17.2981 -8.95019
620 1 15.7273 15.7271 15.726 -8.94643
621 1 17.2972 17.2972 17.297 -8.94911
622 1 18.8697 15.7246 15.7244 -8.94981
623 1 20.4415 17.2967 17.2967 -8.94968
624 1 -0.000137021 18.8692 15.7243 -8.94955
625 1 1.57231 20.4416 17.2967 -8.9495
626 1 3.14416 18.8697 15.7247 -8.9486
627 1 4.717 20.4419 17.2969 -8.94988
628 1 6.28893 18.8711 15.7252 -8.95127
629 1 7.86211 20.4418 17.2969 -8.94952
630 1 9.43479 18.8708 15.725 -8.94974
631 1 11.007 20.4419 17.2969 -8.94955
632 1 12.5796 18.8707 15.7246 -8.95136
633 1 14.1519 20.4419 17.2968 -8.95008
634 1 15.7247 18.8698 15.7244 -8.94944
635 1 17.2967 20.4416 17.2967 -8.94959
636 1 18.8691 18.8692 15.7242 -8.94969
637 1 20.4415 20.4415 17.2966 -8.94963
638 1 1.57235 11.007 20.4416 -8.94965
639 1 4.71695 11.007 20.4418 -8.94967
640 1 7.86184 11.007 20.4416 -8.94834
641 1 11.0065 11.007 20.4427 -8.9479
642 1 14.153 11.007 20.4434 -8.94955
643 1 17.2971 11.007 20.4418 -8.94956
644 1 20.4416 11.007 20.4415 -8.94963
645 1 -3.76081e-06 12.5794 18.8692 -8.94961
646 1 1.57236 14.1518 20.4415 -8.94956
647 1 3.14451 12.5794 18.8694 -8.94925
648 1 4.71711 14.1517 20.4417 -8.94965
649 1 6.28936 12.5787 18.8696 -8.94949
650 1 7.86181 14.152 20.4426 -8.95184
651 1 9.43433 12.5793 18.8703 -8.94901
652 1 11.0065 14.1524 20.4428 -8.95023
653 1 12.581 12.5805 18.8764 -8.95931
654 1 14.1527 14.1528 20.4434 -8.95159
655 1 15.726 12.58 18.871 -8.94802
656 1 17.297 14.152 20.4418 -8.94946
657 1 18.8695 12.5795 18.8694 -8.94946
658 1 20.4416 14.1518 20.4415 -8.9496
659 1 22.0139 15.7242 18.8691 -8.94968
660 1 1.57238 17.2967 20.4415 -8.94975
661 1 3.14458 15.7242 18.8693 -8.95005
662 1 4.7169 17.297 20.442 -8.94968
663 1 6.28843 15.7254 18.8715 -8.95075
664 1 7.86202 17.297 20.4418 -8.94927
665 1 9.43417 15.7255 18.8708 -8.94812
666 1 11.007 17.297 20.4418 -8.94949
667 1 12.5795 15.7254 18.8707 -8.94958
668 1 14.1519 17.297 20.4418 -8.94981
669 1 15.7265 15.7266 18.8715 -8.94547
670 1 17.2971 17.2971 20.4418 -8.94868
671 1 18.8696 15.7245 18.8694 -8.94969
672 1 20.4416 17.2967 20.4415 -8.94962
673 1 22.0138 18.8691 18.8691 -8.94961
674 1 1.57235 20.4415 20.4415 -8.94945
675 1 3.14442 18.8695 18.8695 -8.94872
676 1 4.71725 20.4415 20.4415 -8.94971
677 1 6.28962 18.8694 18.8694 -8.94972
678 1 7.86209 20.4416 20.4415 -8.94962
679 1 9.43451 18.8695 18.8694 -8.94955
680 1 11.007 20.4416 20.4415 -8.94963
681 1 12.5794 18.8695 18.8694 -8.94934
682 1 14.1518 20.4415 20.4415 -8.9496
683 1 15.7245 18.8696 18.8694 -8.9496
684 1 17.2967 20.4416 20.4415 -8.94961
685 1 18.8692 18.8692 18.8691 -8.94957
686 1 20.4415 20.4415 20.4415 -8.9496
687 3 10.1259 11.007 12.622 2.39936
