ITEM: TIMESTEP
96
ITEM: NUMBER OF ATOMS
688
ITEM: BOX BOUNDS pp pp pp
0.0000000000000000e+00 2.2013900999999997e+01
0.0000000000000000e+00 2.2013900999999997e+01
0.0000000000000000e+00 2.2013900999999997e+01
ITEM: ATOMS id type x y z c_pot
1 1 22.0136 1.65706e-15 2.66941e-16 -8.94892
2 1 1.57162 1.5719 1.57184 -8.94898
3 1 3.14427 1.72557e-15 2.91215e-16 -8.94958
4 1 4.71659 1.57184 1.57175 -8.9495
5 1 6.28932 1.77178e-15 1.17558e-16 -8.94942
6 1 7.8618 1.57177 1.57178 -8.94938
7 1 9.43444 1.88286e-15 -1.02761e-16 -8.94946
8 1 11.007 1.57171 1.57182 -8.94942
9 1 12.5796 1.68448e-15 -2.10622e-17 -8.94945
10 1 14.1523 1.57166 1.5719 -8.9494
11 1 15.7247 1.30761e-15 -2.46916e-16 -8.94954
12 1 17.2975 1.57157 1.5719 -8.94943
13 1 18.8696 1.13003e-15 7.71546e-16 -8.94915
14 1 20.4417 1.57199 1.57216 -8.94922
15 1 22.0139 3.14441 1.32446e-15 -8.94956
16 1 1.572 4.71694 1.57185 -8.94995
17 1 3.14385 3.144 1.5655e-15 -8.94949
18 1 4.71572 4.71603 1.57073 -8.95014
19 1 6.28904 3.14394 1.62067e-15 -8.94933
20 1 7.86126 4.71578 1.57104 -8.94909
21 1 9.43426 3.14372 5.78266e-18 -8.94941
22 1 11.0068 4.71546 1.57106 -8.94928
23 1 12.5796 3.14361 7.41843e-16 -8.9493
24 1 14.1529 4.71511 1.5709 -8.94982
25 1 15.7252 3.14344 -1.4505e-16 -8.94968
26 1 17.299 4.71494 1.57111 -8.94819
27 1 18.8702 3.14372 8.61748e-17 -8.94874
28 1 20.4424 4.71651 1.57196 -8.94946
29 1 22.0143 6.2894 1.63886e-15 -8.94942
30 1 1.5723 7.86207 1.572 -8.94934
31 1 3.14444 6.28979 1.63604e-15 -8.94991
32 1 4.71686 7.86266 1.57191 -8.94972
33 1 6.28878 6.28924 2.01749e-15 -8.95155
34 1 7.86163 7.86208 1.57083 -8.95266
35 1 9.43373 6.28832 4.61531e-15 -8.94973
36 1 11.0063 7.86082 1.56994 -8.95119
37 1 12.5796 6.28806 4.82782e-15 -8.94997
38 1 14.1544 7.85972 1.56862 -8.95219
39 1 15.7265 6.28735 6.37781e-15 -8.9502
40 1 17.2994 7.86064 1.57095 -8.94889
41 1 18.8707 6.28865 1.6724e-15 -8.94928
42 1 20.4426 7.86162 1.57189 -8.94935
43 1 22.0143 9.43441 1.12593e-15 -8.94949
44 1 3.14444 9.4346 1.67013e-15 -8.9495
45 1 6.2894 9.43505 1.47155e-15 -8.94912
46 1 9.43412 9.43483 -6.84727e-15 -8.9483
47 1 12.5799 9.43421 1.83956e-14 -8.95331
48 1 15.727 9.43355 7.51498e-15 -8.9491
49 1 18.8708 9.43412 1.78387e-15 -8.94932
50 1 -0.000504854 1.26137e-15 3.14434 -8.94917
51 1 1.57107 1.57168 4.71611 -8.94893
52 1 3.14379 1.54109e-15 3.14374 -8.94953
53 1 4.71573 1.57088 4.71542 -8.95004
54 1 6.28918 1.72482e-15 3.14378 -8.9494
55 1 7.86169 1.57098 4.71569 -8.94943
56 1 9.43451 1.56452e-15 3.14383 -8.94946
57 1 11.0073 1.57103 4.71584 -8.94944
58 1 12.5798 1.73158e-15 3.14396 -8.94941
59 1 14.1527 1.57088 4.71624 -8.95053
60 1 15.725 1.21869e-15 3.14414 -8.94998
61 1 17.2976 1.57147 4.71662 -8.94948
62 1 18.8695 7.98019e-16 3.14444 -8.94941
63 1 20.4414 1.57195 4.71684 -8.94947
64 1 22.0134 3.14417 3.14408 -8.94954
65 1 1.57039 4.71607 4.71557 -8.95001
66 1 3.14281 3.14315 3.14273 -8.94812
67 1 4.7116 4.71216 4.71114 -8.9445
68 1 6.28858 3.14311 3.14294 -8.94934
69 1 7.86017 4.71286 4.71314 -8.94798
70 1 9.43427 3.14298 3.14315 -8.94928
71 1 11.0074 4.71293 4.71332 -8.94748
72 1 12.5799 3.14283 3.14327 -8.94902
73 1 14.1559 4.71098 4.71255 -8.94949
74 1 15.7261 3.14228 3.1431 -8.94936
75 1 17.2996 4.71448 4.71544 -8.94891
76 1 18.8701 3.14366 3.14416 -8.94935
77 1 20.442 4.71632 4.71654 -8.94989
78 1 22.0142 6.28931 3.14415 -8.94972
79 1 1.57177 7.86222 4.71634 -8.94963
80 1 3.14367 6.28953 3.14347 -8.95051
81 1 4.71525 7.86274 4.71547 -8.95154
82 1 6.28679 6.28732 3.13992 -8.95171
83 1 7.85759 7.85726 4.70764 -8.95838
84 1 9.43348 6.28666 3.14093 -8.94803
85 1 11.0074 7.85681 4.70667 -8.95341
86 1 12.5808 6.28622 3.13998 -8.94996
87 1 14.1661 7.8492 4.70142 -8.93393
88 1 15.7297 6.28439 3.13956 -8.94528
89 1 17.3027 7.85912 4.71378 -8.95002
90 1 18.8715 6.28811 3.14345 -8.94947
91 1 20.4431 7.86147 4.71627 -8.94993
92 1 0.000489769 9.43438 3.14403 -8.94947
93 1 3.14423 9.43469 3.14391 -8.94894
94 1 6.28984 9.43588 3.14501 -8.94927
95 1 9.43506 9.4347 3.14492 -8.94804
96 1 12.5831 9.43295 3.13492 -8.95983
97 1 15.7298 9.43256 3.13965 -8.94746
98 1 18.8718 9.4339 3.14326 -8.9492
99 1 22.0131 1.60309e-15 6.28917 -8.94942
100 1 1.57073 1.5715 7.86132 -8.94929
101 1 3.14307 9.73767e-16 6.28828 -8.94926
102 1 4.71467 1.56988 7.86031 -8.94974
103 1 6.28882 1.24555e-15 6.28831 -8.95052
104 1 7.86162 1.56977 7.86101 -8.95125
105 1 9.43473 1.91278e-15 6.28846 -8.95011
106 1 11.0074 1.57074 7.86132 -8.94968
107 1 12.5799 1.32738e-15 6.28896 -8.95026
108 1 14.1529 1.57082 7.86164 -8.95052
109 1 15.7252 7.6002e-16 6.28921 -8.94997
110 1 17.2974 1.57175 7.86204 -8.94956
111 1 18.8693 1.28612e-15 6.28949 -8.9496
112 1 20.4412 1.57193 7.86187 -8.94944
113 1 -0.00116243 3.14384 6.28883 -8.94937
114 1 1.56871 4.71508 7.86043 -8.94935
115 1 3.14145 3.14201 6.287 -8.94748
116 1 4.70816 4.70879 7.85575 -8.94113
117 1 6.28695 3.13985 6.28651 -8.95159
118 1 7.85774 4.70572 7.8582 -8.95817
119 1 9.43439 3.14073 6.28717 -8.94997
120 1 11.007 4.71122 7.85902 -8.95133
121 1 12.5804 3.14096 6.28798 -8.95186
122 1 14.1563 4.71077 7.85881 -8.94784
123 1 15.7263 3.14196 6.28835 -8.94911
124 1 17.2987 4.71535 7.8617 -8.94981
125 1 18.8697 3.14378 6.2893 -8.94966
126 1 20.4412 4.71622 7.86171 -8.94981
127 1 22.013 6.28906 6.28886 -8.95051
128 1 1.56931 7.86197 7.86136 -8.95198
129 1 3.13943 6.28744 6.28651 -8.95178
130 1 4.70535 7.8587 7.85868 -8.96053
131 1 6.27395 6.27481 6.27349 -8.93081
132 1 7.81642 7.81989 7.82197 -8.85677
133 1 9.43265 6.27881 6.28164 -8.94667
134 1 11.0251 7.84317 7.8288 -8.89459
135 1 12.588 6.27616 6.27793 -8.95072
136 1 14.1684 7.84939 7.85024 -8.93677
137 1 15.7314 6.28359 6.28495 -8.94661
138 1 17.3018 7.86024 7.86117 -8.95224
139 1 18.8714 6.28822 6.28886 -8.95029
140 1 20.4421 7.86172 7.86188 -8.95057
141 1 22.0142 9.43453 6.28887 -8.94973
142 1 3.14353 9.43552 6.28867 -8.94898
143 1 6.28866 9.43866 6.29067 -8.9507
144 1 9.42737 9.41607 6.29204 -8.91784
145 1 12.6192 9.40426 6.24662 -8.8859
146 1 15.7378 9.43064 6.28195 -8.95414
147 1 18.8732 9.43384 6.28825 -8.95108
148 1 -0.000874833 1.24958e-15 9.43432 -8.94943
149 1 3.14282 7.29338e-16 9.43397 -8.94927
150 1 6.28816 1.94446e-15 9.43384 -8.95148
151 1 9.4349 2.06294e-15 9.434 -8.94904
152 1 12.58 1.96261e-16 9.43444 -8.95032
153 1 15.725 7.61527e-16 9.43455 -8.94944
154 1 18.8693 6.99883e-16 9.43447 -8.94948
155 1 22.0125 3.1437 9.4342 -8.94935
156 1 3.14104 3.14169 9.43345 -8.94891
157 1 6.28479 3.13669 9.43253 -8.95149
158 1 9.43444 3.14092 9.43337 -8.94724
159 1 12.5805 3.1415 9.4339 -8.95187
160 1 15.7255 3.14325 9.43458 -8.94934
161 1 18.8695 3.14388 9.43446 -8.94937
162 1 22.0115 6.28861 9.43412 -8.95066
163 1 3.13533 6.28491 9.43223 -8.95032
164 1 6.2644 6.26514 9.42099 -8.91726
165 1 9.42974 6.28287 9.43146 -9.00939
166 1 12.5877 6.27726 9.42508 -8.94433
167 1 15.7283 6.28683 9.43423 -8.94904
168 1 18.8702 6.28855 9.43457 -8.94984
169 1 22.0131 9.43485 9.43434 -8.94937
170 1 3.1419 9.43586 9.43415 -8.94999
171 1 6.28357 9.42923 9.43569 -8.96862
172 1 9.36008 9.15124 9.44562 -8.05863
173 1 12.5938 9.40831 9.38571 -8.83522
174 1 15.7281 9.43438 9.43215 -8.95241
175 1 18.8705 9.4345 9.43463 -8.94964
176 1 1.57064 1.57146 11.007 -8.94931
177 1 4.71441 1.56975 11.007 -8.9492
178 1 7.86146 1.56888 11.007 -8.95349
179 1 11.0072 1.57105 11.007 -8.94966
180 1 14.1527 1.57151 11.007 -8.94901
181 1 17.2973 1.5718 11.007 -8.94945
182 1 20.4412 1.57191 11.007 -8.94947
183 1 1.56842 4.7149 11.007 -8.94901
184 1 4.70818 4.70883 11.007 -8.94532
185 1 7.85501 4.69931 11.007 -8.96646
186 1 11.0072 4.71202 11.007 -8.95499
187 1 14.1538 4.71508 11.007 -8.94691
188 1 17.2982 4.71566 11.007 -8.94864
189 1 20.441 4.71612 11.007 -8.94958
190 1 1.56717 7.86154 11.007 -8.95431
191 1 4.69576 7.85446 11.007 -8.96715
192 1 7.7733 7.78543 11.007 -8.73358
193 1 11.058 7.83779 11.007 -8.82891
194 1 14.1593 7.86233 11.007 -8.96719
195 1 17.2989 7.86146 11.007 -8.95086
196 1 20.4411 7.86173 11.007 -8.95043
197 1 -0.000874833 1.46859e-15 12.5796 -8.94943
198 1 1.57073 1.5715 14.1526 -8.94929
199 1 3.14282 1.45656e-15 12.5799 -8.94927
200 1 4.71467 1.56988 14.1536 -8.94974
201 1 6.28816 1.70106e-15 12.5801 -8.95148
202 1 7.86162 1.56977 14.1529 -8.95125
203 1 9.4349 1.3319e-15 12.5799 -8.94904
204 1 11.0074 1.57074 14.1526 -8.94968
205 1 12.58 6.17061e-16 12.5795 -8.95032
206 1 14.1529 1.57082 14.1523 -8.95052
207 1 15.725 1.33046e-15 12.5793 -8.94944
208 1 17.2974 1.57175 14.1519 -8.94956
209 1 18.8693 1.45903e-15 12.5794 -8.94948
210 1 20.4412 1.57193 14.152 -8.94944
211 1 22.0125 3.1437 12.5797 -8.94935
212 1 1.56871 4.71508 14.1535 -8.94935
213 1 3.14104 3.14169 12.5804 -8.94891
214 1 4.70816 4.70879 14.1581 -8.94113
215 1 6.28479 3.13669 12.5814 -8.95149
216 1 7.85774 4.70572 14.1557 -8.95817
217 1 9.43444 3.14092 12.5805 -8.94724
218 1 11.007 4.71122 14.1549 -8.95133
219 1 12.5805 3.1415 12.58 -8.95187
220 1 14.1563 4.71077 14.1551 -8.94784
221 1 15.7255 3.14325 12.5793 -8.94934
222 1 17.2987 4.71535 14.1522 -8.94981
223 1 18.8695 3.14388 12.5794 -8.94937
224 1 20.4412 4.71622 14.1522 -8.94981
225 1 22.0115 6.28861 12.5798 -8.95066
226 1 1.56931 7.86197 14.1525 -8.95198
227 1 3.13533 6.28491 12.5817 -8.95032
228 1 4.70535 7.8587 14.1552 -8.96053
229 1 6.2644 6.26514 12.5929 -8.91726
230 1 7.81642 7.81989 14.1919 -8.85677
231 1 9.42974 6.28287 12.5824 -9.00939
232 1 11.0251 7.84317 14.1851 -8.89459
233 1 12.5877 6.27726 12.5888 -8.94433
234 1 14.1684 7.84939 14.1637 -8.93677
235 1 15.7283 6.28683 12.5797 -8.94904
236 1 17.3018 7.86024 14.1527 -8.95224
237 1 18.8702 6.28855 12.5793 -8.94984
238 1 20.4421 7.86172 14.152 -8.95057
239 1 22.0131 9.43485 12.5796 -8.94937
240 1 3.1419 9.43586 12.5798 -8.94999
241 1 6.28357 9.42923 12.5782 -8.96862
242 1 9.36008 9.15124 12.5683 -8.05863
243 1 12.5938 9.40831 12.6282 -8.83522
244 1 15.7281 9.43438 12.5817 -8.95241
245 1 18.8705 9.4345 12.5793 -8.94964
246 1 22.0131 1.22963e-15 15.7247 -8.94942
247 1 1.57107 1.57168 17.2978 -8.94893
248 1 3.14307 1.20603e-15 15.7256 -8.94926
249 1 4.71573 1.57088 17.2985 -8.95004
250 1 6.28882 1.31658e-15 15.7256 -8.95052
251 1 7.86169 1.57098 17.2982 -8.94943
252 1 9.43473 1.77257e-15 15.7254 -8.95011
253 1 11.0073 1.57103 17.2981 -8.94944
254 1 12.5799 5.70851e-16 15.7249 -8.95026
255 1 14.1527 1.57088 17.2977 -8.95053
256 1 15.7252 6.54372e-16 15.7247 -8.94997
257 1 17.2976 1.57147 17.2973 -8.94948
258 1 18.8693 1.57273e-15 15.7244 -8.9496
259 1 20.4414 1.57195 17.2971 -8.94947
260 1 -0.00116243 3.14384 15.7251 -8.94937
261 1 1.57039 4.71607 17.2983 -8.95001
262 1 3.14145 3.14201 15.7269 -8.94748
263 1 4.7116 4.71216 17.3028 -8.9445
264 1 6.28695 3.13985 15.7274 -8.95159
265 1 7.86017 4.71286 17.3008 -8.94798
266 1 9.43439 3.14073 15.7267 -8.94997
267 1 11.0074 4.71293 17.3006 -8.94748
268 1 12.5804 3.14096 15.7259 -8.95186
269 1 14.1559 4.71098 17.3014 -8.94949
270 1 15.7263 3.14196 15.7255 -8.94911
271 1 17.2996 4.71448 17.2985 -8.94891
272 1 18.8697 3.14378 15.7246 -8.94966
273 1 20.442 4.71632 17.2974 -8.94989
274 1 22.013 6.28906 15.725 -8.95051
275 1 1.57177 7.86222 17.2976 -8.94963
276 1 3.13943 6.28744 15.7274 -8.95178
277 1 4.71525 7.86274 17.2984 -8.95154
278 1 6.27395 6.27481 15.7404 -8.93081
279 1 7.85759 7.85726 17.3063 -8.95838
280 1 9.43265 6.27881 15.7323 -8.94667
281 1 11.0074 7.85681 17.3072 -8.95341
282 1 12.588 6.27616 15.736 -8.95072
283 1 14.1661 7.8492 17.3125 -8.93393
284 1 15.7314 6.28359 15.729 -8.94661
285 1 17.3027 7.85912 17.3001 -8.95002
286 1 18.8714 6.28822 15.725 -8.95029
287 1 20.4431 7.86147 17.2976 -8.94993
288 1 22.0142 9.43453 15.725 -8.94973
289 1 3.14353 9.43552 15.7252 -8.94898
290 1 6.28866 9.43866 15.7232 -8.9507
291 1 9.42737 9.41607 15.7219 -8.91784
292 1 12.6192 9.40426 15.7673 -8.8859
293 1 15.7378 9.43064 15.732 -8.95414
294 1 18.8732 9.43384 15.7257 -8.95108
295 1 -0.000504854 1.74082e-15 18.8696 -8.94917
296 1 1.57162 1.5719 20.4421 -8.94898
297 1 3.14379 1.67763e-15 18.8702 -8.94953
298 1 4.71659 1.57184 20.4422 -8.9495
299 1 6.28918 1.79731e-15 18.8701 -8.9494
300 1 7.8618 1.57177 20.4421 -8.94938
301 1 9.43451 1.86913e-15 18.8701 -8.94946
302 1 11.007 1.57171 20.4421 -8.94942
303 1 12.5798 1.61265e-15 18.8699 -8.94941
304 1 14.1523 1.57166 20.442 -8.9494
305 1 15.725 5.32588e-16 18.8698 -8.94998
306 1 17.2975 1.57157 20.442 -8.94943
307 1 18.8695 6.39091e-16 18.8695 -8.94941
308 1 20.4417 1.57199 20.4417 -8.94922
309 1 22.0134 3.14417 18.8698 -8.94954
310 1 1.572 4.71694 20.4421 -8.94995
311 1 3.14281 3.14315 18.8712 -8.94812
312 1 4.71572 4.71603 20.4432 -8.95014
313 1 6.28858 3.14311 18.871 -8.94934
314 1 7.86126 4.71578 20.4429 -8.94909
315 1 9.43427 3.14298 18.8708 -8.94928
316 1 11.0068 4.71546 20.4428 -8.94928
317 1 12.5799 3.14283 18.8706 -8.94902
318 1 14.1529 4.71511 20.443 -8.94982
319 1 15.7261 3.14228 18.8708 -8.94936
320 1 17.299 4.71494 20.4428 -8.94819
321 1 18.8701 3.14366 18.8697 -8.94935
322 1 20.4424 4.71651 20.4419 -8.94946
323 1 22.0142 6.28931 18.8698 -8.94972
324 1 1.5723 7.86207 20.4419 -8.94934
325 1 3.14367 6.28953 18.8704 -8.95051
326 1 4.71686 7.86266 20.442 -8.94972
327 1 6.28679 6.28732 18.874 -8.95171
328 1 7.86163 7.86208 20.4431 -8.95266
329 1 9.43348 6.28666 18.873 -8.94803
330 1 11.0063 7.86082 20.444 -8.95119
331 1 12.5808 6.28622 18.8739 -8.94996
332 1 14.1544 7.85972 20.4453 -8.95219
333 1 15.7297 6.28439 18.8743 -8.94528
334 1 17.2994 7.86064 20.443 -8.94889
335 1 18.8715 6.28811 18.8705 -8.94947
336 1 20.4426 7.86162 20.442 -8.94935
337 1 0.000489769 9.43438 18.8699 -8.94947
338 1 3.14423 9.43469 18.87 -8.94894
339 1 6.28984 9.43588 18.8689 -8.94927
340 1 9.43506 9.4347 18.869 -8.94804
341 1 12.5831 9.43295 18.879 -8.95983
342 1 15.7298 9.43256 18.8743 -8.94746
343 1 18.8718 9.4339 18.8706 -8.9492
344 1 1.57231 11.007 1.57196 -8.94953
345 1 4.71676 11.007 1.57197 -8.94969
346 1 7.86211 11.007 1.57336 -8.94693
347 1 11.0067 11.007 1.57163 -8.94666
348 1 14.1553 11.007 1.56845 -8.95008
349 1 17.2995 11.007 1.57091 -8.94922
350 1 20.4427 11.007 1.57186 -8.94943
351 1 22.0143 12.5795 1.21648e-15 -8.94949
352 1 1.5723 14.1518 1.572 -8.94934
353 1 3.14444 12.5793 1.63175e-15 -8.9495
354 1 4.71686 14.1512 1.57191 -8.94972
355 1 6.2894 12.5789 1.63869e-15 -8.94912
356 1 7.86163 14.1518 1.57083 -8.95266
357 1 9.43412 12.5791 -6.9506e-15 -8.9483
358 1 11.0063 14.1531 1.56994 -8.95119
359 1 12.5799 12.5797 1.83713e-14 -8.95331
360 1 14.1544 14.1542 1.56862 -8.95219
361 1 15.727 12.5804 7.3215e-15 -8.9491
362 1 17.2994 14.1533 1.57095 -8.94889
363 1 18.8708 12.5798 1.50294e-15 -8.94932
364 1 20.4426 14.1523 1.57189 -8.94935
365 1 22.0143 15.7245 1.83917e-15 -8.94942
366 1 1.572 17.297 1.57185 -8.94995
367 1 3.14444 15.7241 1.57455e-15 -8.94991
368 1 4.71572 17.2979 1.57073 -8.95014
369 1 6.28878 15.7247 2.05917e-15 -8.95155
370 1 7.86126 17.2981 1.57104 -8.94909
371 1 9.43373 15.7256 4.61827e-15 -8.94973
372 1 11.0068 17.2984 1.57106 -8.94928
373 1 12.5796 15.7258 5.37755e-15 -8.94997
374 1 14.1529 17.2988 1.5709 -8.94982
375 1 15.7265 15.7265 6.96837e-15 -8.9502
376 1 17.299 17.299 1.57111 -8.94819
377 1 18.8707 15.7253 1.72621e-15 -8.94928
378 1 20.4424 17.2974 1.57196 -8.94946
379 1 22.0139 18.8695 6.75484e-16 -8.94956
380 1 1.57162 20.442 1.57184 -8.94898
381 1 3.14385 18.8699 1.92997e-15 -8.94949
382 1 4.71659 20.4421 1.57175 -8.9495
383 1 6.28904 18.87 1.78497e-15 -8.94933
384 1 7.8618 20.4421 1.57178 -8.94938
385 1 9.43426 18.8702 -2.8548e-16 -8.94941
386 1 11.007 20.4422 1.57182 -8.94942
387 1 12.5796 18.8703 6.15092e-16 -8.9493
388 1 14.1523 20.4422 1.5719 -8.9494
389 1 15.7252 18.8705 9.05809e-16 -8.94968
390 1 17.2975 20.4423 1.5719 -8.94943
391 1 18.8702 18.8702 1.03471e-15 -8.94874
392 1 20.4417 20.4419 1.57216 -8.94922
393 1 1.57201 11.007 4.71609 -8.94942
394 1 4.71635 11.007 4.71587 -8.94618
395 1 7.86679 11.007 4.72437 -8.94346
396 1 11.0124 11.007 4.71794 -8.99162
397 1 14.165 11.007 4.70334 -8.94196
398 1 17.303 11.007 4.71339 -8.94901
399 1 20.4434 11.007 4.71607 -8.94982
400 1 0.000489769 12.5795 3.14403 -8.94947
401 1 1.57177 14.1517 4.71634 -8.94963
402 1 3.14423 12.5792 3.14391 -8.94894
403 1 4.71525 14.1512 4.71547 -8.95154
404 1 6.28984 12.578 3.14501 -8.94927
405 1 7.85759 14.1566 4.70764 -8.95838
406 1 9.43506 12.5792 3.14492 -8.94804
407 1 11.0074 14.1571 4.70667 -8.95341
408 1 12.5831 12.581 3.13492 -8.95983
409 1 14.1661 14.1647 4.70142 -8.93393
410 1 15.7298 12.5813 3.13965 -8.94746
411 1 17.3027 14.1548 4.71378 -8.95002
412 1 18.8718 12.58 3.14326 -8.9492
413 1 20.4431 14.1524 4.71627 -8.94993
414 1 22.0142 15.7246 3.14415 -8.94972
415 1 1.57039 17.2978 4.71557 -8.95001
416 1 3.14367 15.7244 3.14347 -8.95051
417 1 4.7116 17.3017 4.71114 -8.9445
418 1 6.28679 15.7266 3.13992 -8.95171
419 1 7.86017 17.301 4.71314 -8.94798
420 1 9.43348 15.7272 3.14093 -8.94803
421 1 11.0074 17.301 4.71332 -8.94748
422 1 12.5808 15.7277 3.13998 -8.94996
423 1 14.1559 17.3029 4.71255 -8.94949
424 1 15.7297 15.7295 3.13956 -8.94528
425 1 17.2996 17.2994 4.71544 -8.94891
426 1 18.8715 15.7258 3.14345 -8.94947
427 1 20.442 17.2976 4.71654 -8.94989
428 1 22.0134 18.8697 3.14408 -8.94954
429 1 1.57107 20.4422 4.71611 -8.94893
430 1 3.14281 18.8707 3.14273 -8.94812
431 1 4.71573 20.443 4.71542 -8.95004
432 1 6.28858 18.8708 3.14294 -8.94934
433 1 7.86169 20.4429 4.71569 -8.94943
434 1 9.43427 18.8709 3.14315 -8.94928
435 1 11.0073 20.4429 4.71584 -8.94944
436 1 12.5799 18.8711 3.14327 -8.94902
437 1 14.1527 20.443 4.71624 -8.95053
438 1 15.7261 18.8716 3.1431 -8.94936
439 1 17.2976 20.4424 4.71662 -8.94948
440 1 18.8701 18.8702 3.14416 -8.94935
441 1 20.4414 20.442 4.71684 -8.94947
442 1 1.57193 11.007 7.86118 -8.94729
443 1 4.72041 11.007 7.86268 -8.93753
444 1 7.89004 11.007 7.88545 -8.83873
445 1 11.101 11.007 7.67976 -8.23453
446 1 14.1723 11.007 7.84508 -8.9651
447 1 17.3033 11.007 7.86006 -8.95196
448 1 20.443 11.007 7.86165 -8.94997
449 1 22.0142 12.5794 6.28887 -8.94973
450 1 1.56931 14.1519 7.86136 -8.95198
451 1 3.14353 12.5784 6.28867 -8.94898
452 1 4.70535 14.1552 7.85868 -8.96053
453 1 6.28866 12.5752 6.29067 -8.9507
454 1 7.81642 14.194 7.82197 -8.85677
455 1 9.42737 12.5978 6.29204 -8.91784
456 1 11.0251 14.1707 7.8288 -8.89459
457 1 12.6192 12.6096 6.24662 -8.8859
458 1 14.1684 14.1645 7.85024 -8.93677
459 1 15.7378 12.5833 6.28195 -8.95414
460 1 17.3018 14.1537 7.86117 -8.95224
461 1 18.8732 12.5801 6.28825 -8.95108
462 1 20.4421 14.1522 7.86188 -8.95057
463 1 22.013 15.7248 6.28886 -8.95051
464 1 1.56871 17.2988 7.86043 -8.94935
465 1 3.13943 15.7265 6.28651 -8.95178
466 1 4.70816 17.3051 7.85575 -8.94113
467 1 6.27395 15.7391 6.27349 -8.93081
468 1 7.85774 17.3082 7.8582 -8.95817
469 1 9.43265 15.7351 6.28164 -8.94667
470 1 11.007 17.3027 7.85902 -8.95133
471 1 12.588 15.7377 6.27793 -8.95072
472 1 14.1563 17.3031 7.85881 -8.94784
473 1 15.7314 15.7303 6.28495 -8.94661
474 1 17.2987 17.2985 7.8617 -8.94981
475 1 18.8714 15.7257 6.28886 -8.95029
476 1 20.4412 17.2977 7.86171 -8.94981
477 1 -0.00116243 18.8701 6.28883 -8.94937
478 1 1.57073 20.4424 7.86132 -8.94929
479 1 3.14145 18.8719 6.287 -8.94748
480 1 4.71467 20.444 7.86031 -8.94974
481 1 6.28695 18.8741 6.28651 -8.95159
482 1 7.86162 20.4441 7.86101 -8.95125
483 1 9.43439 18.8732 6.28717 -8.94997
484 1 11.0074 20.4432 7.86132 -8.94968
485 1 12.5804 18.8729 6.28798 -8.95186
486 1 14.1529 20.4431 7.86164 -8.95052
487 1 15.7263 18.8719 6.28835 -8.94911
488 1 17.2974 20.4422 7.86204 -8.94956
489 1 18.8697 18.8701 6.2893 -8.94966
490 1 20.4412 20.442 7.86187 -8.94944
491 1 22.0131 12.5791 9.43434 -8.94937
492 1 3.1419 12.578 9.43415 -8.94999
493 1 6.28357 12.5847 9.43569 -8.96862
494 1 9.36008 12.8627 9.44562 -8.05863
495 1 12.5938 12.6056 9.38571 -8.83522
496 1 15.7281 12.5795 9.43215 -8.95241
497 1 18.8705 12.5794 9.43463 -8.94964
498 1 22.0115 15.7253 9.43412 -8.95066
499 1 3.13533 15.729 9.43223 -8.95032
500 1 6.2644 15.7488 9.42099 -8.91726
501 1 9.42974 15.731 9.43146 -9.00939
502 1 12.5877 15.7366 9.42508 -8.94433
503 1 15.7283 15.7271 9.43423 -8.94904
504 1 18.8702 15.7254 9.43457 -8.94984
505 1 22.0125 18.8702 9.4342 -8.94935
506 1 3.14104 18.8722 9.43345 -8.94891
507 1 6.28479 18.8772 9.43253 -8.95149
508 1 9.43444 18.873 9.43337 -8.94724
509 1 12.5805 18.8724 9.4339 -8.95187
510 1 15.7255 18.8706 9.43458 -8.94934
511 1 18.8695 18.87 9.43446 -8.94937
688 3 10.0769 11.007 9.39776 2.36252
512 1 1.57208 11.007 11.007 -8.945
513 1 4.72496 11.007 11.007 -8.9329
514 1 7.90424 11.007 11.007 -8.7192
515 1 11.2652 11.007 11.007 -7.41049
516 1 14.1384 11.007 11.007 -9.0137
517 1 17.2954 11.007 11.007 -8.94469
518 1 20.4414 11.007 11.007 -8.94769
519 1 1.56717 14.1524 11.007 -8.95431
520 1 4.69576 14.1594 11.007 -8.96715
521 1 7.7733 14.2285 11.007 -8.73358
522 1 11.058 14.1761 11.007 -8.82891
523 1 14.1593 14.1516 11.007 -8.96719
524 1 17.2989 14.1524 11.007 -8.95086
525 1 20.4411 14.1522 11.007 -8.95043
526 1 1.56842 17.299 11.007 -8.94901
527 1 4.70818 17.3051 11.007 -8.94532
528 1 7.85501 17.3146 11.007 -8.96646
529 1 11.0072 17.3019 11.007 -8.95499
530 1 14.1538 17.2988 11.007 -8.94691
531 1 17.2982 17.2982 11.007 -8.94864
532 1 20.441 17.2978 11.007 -8.94958
533 1 1.57064 20.4424 11.007 -8.94931
534 1 4.71441 20.4442 11.007 -8.9492
535 1 7.86146 20.445 11.007 -8.95349
536 1 11.0072 20.4429 11.007 -8.94966
537 1 14.1527 20.4424 11.007 -8.94901
538 1 17.2973 20.4421 11.007 -8.94945
539 1 20.4412 20.442 11.007 -8.94947
540 1 1.57193 11.007 14.1527 -8.94729
541 1 4.72041 11.007 14.1512 -8.93753
542 1 7.89004 11.007 14.1285 -8.83873
543 1 11.101 11.007 14.3341 -8.23453
544 1 14.1723 11.007 14.1688 -8.9651
545 1 17.3033 11.007 14.1538 -8.95196
546 1 20.443 11.007 14.1523 -8.94997
547 1 22.0131 12.5791 12.5796 -8.94937
548 1 1.56931 14.1519 14.1525 -8.95198
549 1 3.1419 12.578 12.5798 -8.94999
550 1 4.70535 14.1552 14.1552 -8.96053
551 1 6.28357 12.5847 12.5782 -8.96862
552 1 7.81642 14.194 14.1919 -8.85677
553 1 9.36008 12.8627 12.5683 -8.05863
554 1 11.0251 14.1707 14.1851 -8.89459
555 1 12.5938 12.6056 12.6282 -8.83522
556 1 14.1684 14.1645 14.1637 -8.93677
557 1 15.7281 12.5795 12.5817 -8.95241
558 1 17.3018 14.1537 14.1527 -8.95224
559 1 18.8705 12.5794 12.5793 -8.94964
560 1 20.4421 14.1522 14.152 -8.95057
561 1 22.0115 15.7253 12.5798 -8.95066
562 1 1.56871 17.2988 14.1535 -8.94935
563 1 3.13533 15.729 12.5817 -8.95032
564 1 4.70816 17.3051 14.1581 -8.94113
565 1 6.2644 15.7488 12.5929 -8.91726
566 1 7.85774 17.3082 14.1557 -8.95817
567 1 9.42974 15.731 12.5824 -9.00939
568 1 11.007 17.3027 14.1549 -8.95133
569 1 12.5877 15.7366 12.5888 -8.94433
570 1 14.1563 17.3031 14.1551 -8.94784
571 1 15.7283 15.7271 12.5797 -8.94904
572 1 17.2987 17.2985 14.1522 -8.94981
573 1 18.8702 15.7254 12.5793 -8.94984
574 1 20.4412 17.2977 14.1522 -8.94981
575 1 22.0125 18.8702 12.5797 -8.94935
576 1 1.57073 20.4424 14.1526 -8.94929
577 1 3.14104 18.8722 12.5804 -8.94891
578 1 4.71467 20.444 14.1536 -8.94974
579 1 6.28479 18.8772 12.5814 -8.95149
580 1 7.86162 20.4441 14.1529 -8.95125
581 1 9.43444 18.873 12.5805 -8.94724
582 1 11.0074 20.4432 14.1526 -8.94968
583 1 12.5805 18.8724 12.58 -8.95187
584 1 14.1529 20.4431 14.1523 -8.95052
585 1 15.7255 18.8706 12.5793 -8.94934
586 1 17.2974 20.4422 14.1519 -8.94956
587 1 18.8695 18.87 12.5794 -8.94937
588 1 20.4412 20.442 14.152 -8.94944
589 1 1.57201 11.007 17.2978 -8.94942
590 1 4.71635 11.007 17.298 -8.94618
591 1 7.86679 11.007 17.2895 -8.94346
592 1 11.0124 11.007 17.296 -8.99162
593 1 14.165 11.007 17.3106 -8.94196
594 1 17.303 11.007 17.3005 -8.94901
595 1 20.4434 11.007 17.2978 -8.94982
596 1 22.0142 12.5794 15.725 -8.94973
597 1 1.57177 14.1517 17.2976 -8.94963
598 1 3.14353 12.5784 15.7252 -8.94898
599 1 4.71525 14.1512 17.2984 -8.95154
600 1 6.28866 12.5752 15.7232 -8.9507
601 1 7.85759 14.1566 17.3063 -8.95838
602 1 9.42737 12.5978 15.7219 -8.91784
603 1 11.0074 14.1571 17.3072 -8.95341
604 1 12.6192 12.6096 15.7673 -8.8859
605 1 14.1661 14.1647 17.3125 -8.93393
606 1 15.7378 12.5833 15.732 -8.95414
607 1 17.3027 14.1548 17.3001 -8.95002
608 1 18.8732 12.5801 15.7257 -8.95108
609 1 20.4431 14.1524 17.2976 -8.94993
610 1 22.013 15.7248 15.725 -8.95051
611 1 1.57039 17.2978 17.2983 -8.95001
612 1 3.13943 15.7265 15.7274 -8.95178
613 1 4.7116 17.3017 17.3028 -8.9445
614 1 6.27395 15.7391 15.7404 -8.93081
615 1 7.86017 17.301 17.3008 -8.94798
616 1 9.43265 15.7351 15.7323 -8.94667
617 1 11.0074 17.301 17.3006 -8.94748
618 1 12.588 15.7377 15.736 -8.95072
619 1 14.1559 17.3029 17.3014 -8.94949
620 1 15.7314 15.7303 15.729 -8.94661
621 1 17.2996 17.2994 17.2985 -8.94891
622 1 18.8714 15.7257 15.725 -8.95029
623 1 20.442 17.2976 17.2974 -8.94989
624 1 -0.00116243 18.8701 15.7251 -8.94937
625 1 1.57107 20.4422 17.2978 -8.94893
626 1 3.14145 18.8719 15.7269 -8.94748
627 1 4.71573 20.443 17.2985 -8.95004
628 1 6.28695 18.8741 15.7274 -8.95159
629 1 7.86169 20.4429 17.2982 -8.94943
630 1 9.43439 18.8732 15.7267 -8.94997
631 1 11.0073 20.4429 17.2981 -8.94944
632 1 12.5804 18.8729 15.7259 -8.95186
633 1 14.1527 20.443 17.2977 -8.95053
634 1 15.7263 18.8719 15.7255 -8.94911
635 1 17.2976 20.4424 17.2973 -8.94948
636 1 18.8697 18.8701 15.7246 -8.94966
637 1 20.4414 20.442 17.2971 -8.94947
638 1 1.57231 11.007 20.4419 -8.94953
639 1 4.71676 11.007 20.4419 -8.94969
640 1 7.86211 11.007 20.4405 -8.94693
641 1 11.0067 11.007 20.4423 -8.94666
642 1 14.1553 11.007 20.4455 -8.95008
643 1 17.2995 11.007 20.443 -8.94922
644 1 20.4427 11.007 20.442 -8.94943
645 1 0.000489769 12.5795 18.8699 -8.94947
646 1 1.5723 14.1518 20.4419 -8.94934
647 1 3.14423 12.5792 18.87 -8.94894
648 1 4.71686 14.1512 20.442 -8.94972
649 1 6.28984 12.578 18.8689 -8.94927
650 1 7.86163 14.1518 20.4431 -8.95266
651 1 9.43506 12.5792 18.869 -8.94804
652 1 11.0063 14.1531 20.444 -8.95119
653 1 12.5831 12.581 18.879 -8.95983
654 1 14.1544 14.1542 20.4453 -8.95219
655 1 15.7298 12.5813 18.8743 -8.94746
656 1 17.2994 14.1533 20.443 -8.94889
657 1 18.8718 12.58 18.8706 -8.9492
658 1 20.4426 14.1523 20.442 -8.94935
659 1 22.0142 15.7246 18.8698 -8.94972
660 1 1.572 17.297 20.4421 -8.94995
661 1 3.14367 15.7244 18.8704 -8.95051
662 1 4.71572 17.2979 20.4432 -8.95014
663 1 6.28679 15.7266 18.874 -8.95171
664 1 7.86126 17.2981 20.4429 -8.94909
665 1 9.43348 15.7272 18.873 -8.94803
666 1 11.0068 17.2984 20.4428 -8.94928
667 1 12.5808 15.7277 18.8739 -8.94996
668 1 14.1529 17.2988 20.443 -8.94982
669 1 15.7297 15.7295 18.8743 -8.94528
670 1 17.299 17.299 20.4428 -8.94819
671 1 18.8715 15.7258 18.8705 -8.94947
672 1 20.4424 17.2974 20.4419 -8.94946
673 1 22.0134 18.8697 18.8698 -8.94954
674 1 1.57162 20.442 20.4421 -8.94898
675 1 3.14281 18.8707 18.8712 -8.94812
676 1 4.71659 20.4421 20.4422 -8.9495
677 1 6.28858 18.8708 18.871 -8.94934
678 1 7.8618 20.4421 20.4421 -8.94938
679 1 9.43427 18.8709 18.8708 -8.94928
680 1 11.007 20.4422 20.4421 -8.94942
681 1 12.5799 18.8711 18.8706 -8.94902
682 1 14.1523 20.4422 20.442 -8.9494
683 1 15.7261 18.8716 18.8708 -8.94936
684 1 17.2975 20.4423 20.442 -8.94943
685 1 18.8701 18.8702 18.8697 -8.94935
686 1 20.4417 20.4419 20.4417 -8.94922
687 3 10.0769 11.007 12.6161 2.36252
