ITEM: TIMESTEP
110
ITEM: NUMBER OF ATOMS
688
ITEM: BOX BOUNDS pp pp pp
0.0000000000000000e+00 2.2013900999999997e+01
0.0000000000000000e+00 2.2013900999999997e+01
0.0000000000000000e+00 2.2013900999999997e+01
ITEM: ATOMS id type x y z c_pot
1 1 22.0136 -2.28631e-15 3.79429e-17 -8.94885
2 1 1.5715 1.57185 1.57175 -8.94893
3 1 3.14413 -8.4142e-15 2.21142e-15 -8.94954
4 1 4.71644 1.57178 1.57164 -8.94948
5 1 6.28921 -1.32876e-14 4.59419e-15 -8.94939
6 1 7.86171 1.57171 1.5717 -8.94935
7 1 9.43441 -3.75187e-14 3.29321e-15 -8.94943
8 1 11.007 1.57164 1.57174 -8.94939
9 1 12.5796 -3.34484e-15 3.59972e-15 -8.94942
10 1 14.1524 1.57155 1.57182 -8.94939
11 1 15.7248 -4.85316e-15 1.09612e-15 -8.94952
12 1 17.2977 1.57146 1.57183 -8.94939
13 1 18.8698 2.56434e-16 1.44996e-15 -8.94909
14 1 20.4418 1.57193 1.5721 -8.94917
15 1 22.0139 3.14434 2.45225e-15 -8.94954
16 1 1.57198 4.7169 1.57177 -8.94997
17 1 3.14373 3.14394 -1.43767e-13 -8.9495
18 1 4.71559 4.71598 1.57063 -8.95018
19 1 6.28892 3.14386 -2.6598e-13 -8.94933
20 1 7.86116 4.71568 1.57094 -8.94911
21 1 9.43421 3.14362 5.62164e-14 -8.94939
22 1 11.0069 4.71531 1.57095 -8.94928
23 1 12.5797 3.14347 -2.23702e-13 -8.94929
24 1 14.1531 4.71489 1.57077 -8.94985
25 1 15.7253 3.14325 -2.51834e-14 -8.94967
26 1 17.2992 4.71474 1.57103 -8.94819
27 1 18.8704 3.14359 1.64342e-15 -8.94873
28 1 20.4425 4.7164 1.57191 -8.94943
29 1 22.0144 6.28935 -7.41798e-15 -8.9494
30 1 1.5724 7.86208 1.57197 -8.94933
31 1 3.14445 6.28982 2.83522e-14 -8.94994
32 1 4.71691 7.86272 1.57191 -8.94974
33 1 6.28873 6.28925 -5.3115e-12 -8.95159
34 1 7.86165 7.86208 1.57085 -8.95266
35 1 9.43371 6.28826 -6.85793e-12 -8.94977
36 1 11.0064 7.86076 1.56989 -8.95123
37 1 12.5797 6.28792 -1.45684e-12 -8.95003
38 1 14.1546 7.85958 1.56851 -8.95214
39 1 15.7268 6.28715 -1.60401e-13 -8.95017
40 1 17.2997 7.86046 1.57084 -8.94886
41 1 18.8709 6.28848 1.68918e-15 -8.94924
42 1 20.4428 7.86154 1.57183 -8.94932
43 1 22.0145 9.43439 -8.59816e-18 -8.94947
44 1 3.14455 9.43463 7.93817e-14 -8.94949
45 1 6.2895 9.43511 -7.33639e-12 -8.94909
46 1 9.43418 9.43484 -4.50908e-12 -8.94826
47 1 12.58 9.43417 -9.05377e-12 -8.95329
48 1 15.7273 9.43345 -3.59765e-13 -8.94911
49 1 18.8711 9.43404 1.73975e-14 -8.94929
50 1 -0.000592977 -4.02406e-15 3.14423 -8.94912
51 1 1.57086 1.5716 4.71592 -8.94888
52 1 3.1436 -4.65505e-13 3.14356 -8.9495
53 1 4.71548 1.57076 4.71517 -8.95002
54 1 6.28904 -3.40194e-13 3.14361 -8.94938
55 1 7.86156 1.57087 4.7155 -8.94941
56 1 9.43448 -4.22183e-13 3.1437 -8.94944
57 1 11.0073 1.57093 4.71567 -8.94943
58 1 12.5798 -3.35935e-13 3.14385 -8.94939
59 1 14.1528 1.57077 4.71609 -8.95053
60 1 15.7251 -1.70838e-13 3.14403 -8.94997
61 1 17.2978 1.57137 4.71651 -8.94946
62 1 18.8696 -1.96417e-15 3.14436 -8.94938
63 1 20.4414 1.57188 4.71673 -8.94944
64 1 22.0134 3.14409 3.14396 -8.94953
65 1 1.57023 4.71598 4.7154 -8.95004
66 1 3.1426 3.14304 3.14253 -8.94809
67 1 4.71129 4.71194 4.71085 -8.94445
68 1 6.28839 3.14297 3.14274 -8.94932
69 1 7.85998 4.71261 4.71288 -8.94794
70 1 9.43421 3.14284 3.14298 -8.94927
71 1 11.0075 4.71269 4.71304 -8.94745
72 1 12.5801 3.14265 3.14309 -8.949
73 1 14.1562 4.71072 4.7122 -8.94939
74 1 15.7263 3.14208 3.14293 -8.94932
75 1 17.2998 4.71428 4.71527 -8.94895
76 1 18.8703 3.14352 3.14405 -8.94933
77 1 20.442 4.71621 4.71643 -8.94991
78 1 22.0143 6.28926 3.14406 -8.94971
79 1 1.57182 7.86223 4.7163 -8.94964
80 1 3.14362 6.28952 3.14337 -8.95055
81 1 4.71528 7.86273 4.7155 -8.95157
82 1 6.28669 6.28724 3.1398 -8.95179
83 1 7.85768 7.85713 4.70768 -8.95855
84 1 9.43348 6.28649 3.14079 -8.94808
85 1 11.0076 7.85665 4.70652 -8.95357
86 1 12.581 6.28603 3.13972 -8.95005
87 1 14.1662 7.84927 4.7013 -8.93427
88 1 15.73 6.28422 3.13939 -8.94537
89 1 17.303 7.859 4.71357 -8.94999
90 1 18.8718 6.28795 3.14333 -8.94944
91 1 20.4433 7.86141 4.71618 -8.94992
92 1 0.00066944 9.43437 3.14397 -8.94946
93 1 3.14435 9.43472 3.14394 -8.94893
94 1 6.29 9.43592 3.14521 -8.94928
95 1 9.43516 9.43462 3.14505 -8.94782
96 1 12.5833 9.43289 3.13485 -8.95964
97 1 15.7302 9.43247 3.13942 -8.9475
98 1 18.8721 9.43382 3.14312 -8.94918
99 1 22.0129 -3.74653e-14 6.28903 -8.94938
100 1 1.57042 1.5714 7.86117 -8.94926
101 1 3.14278 -4.71239e-13 6.28805 -8.94922
102 1 4.7143 1.5697 7.8601 -8.94972
103 1 6.2886 -2.5576e-11 6.28811 -8.95053
104 1 7.86143 1.56959 7.86084 -8.95129
105 1 9.43468 -1.8779e-11 6.28829 -8.95012
106 1 11.0074 1.57062 7.86119 -8.94973
107 1 12.58 -1.36455e-11 6.28884 -8.95027
108 1 14.153 1.57072 7.86154 -8.95051
109 1 15.7253 -4.54118e-13 6.28911 -8.94997
110 1 17.2974 1.57169 7.86199 -8.94954
111 1 18.8693 4.29051e-15 6.28943 -8.94958
112 1 20.4411 1.57188 7.8618 -8.94942
113 1 -0.00132746 3.14373 6.28869 -8.94935
114 1 1.56838 4.7149 7.86027 -8.94936
115 1 3.14108 3.1418 6.28673 -8.94741
116 1 4.70762 4.70837 7.85546 -8.941
117 1 6.28662 3.13954 6.28622 -8.95158
118 1 7.85739 4.70515 7.8579 -8.95811
119 1 9.43429 3.14047 6.28692 -8.94995
120 1 11.0071 4.71074 7.85869 -8.95138
121 1 12.5806 3.14074 6.28772 -8.95183
122 1 14.1566 4.71054 7.85848 -8.94764
123 1 15.7265 3.14177 6.28816 -8.94906
124 1 17.2988 4.71524 7.86157 -8.94983
125 1 18.8698 3.14366 6.2892 -8.94966
126 1 20.4411 4.71614 7.86164 -8.94984
127 1 22.0129 6.28901 6.28878 -8.95055
128 1 1.56925 7.86195 7.86134 -8.95202
129 1 3.13918 6.2873 6.28635 -8.95183
130 1 4.70525 7.85849 7.85869 -8.96066
131 1 6.27358 6.27438 6.27319 -8.93066
132 1 7.81623 7.81907 7.82175 -8.85629
133 1 9.43263 6.27835 6.28135 -8.94651
134 1 11.0257 7.84222 7.82845 -8.8941
135 1 12.5884 6.27587 6.27741 -8.95038
136 1 14.1684 7.84951 7.85009 -8.93736
137 1 15.7317 6.28348 6.28469 -8.94677
138 1 17.3019 7.86025 7.86102 -8.95227
139 1 18.8715 6.28814 6.28874 -8.95032
140 1 20.4422 7.86172 7.86184 -8.95058
141 1 22.0144 9.43454 6.28884 -8.94972
142 1 3.14371 9.43554 6.28875 -8.94895
143 1 6.28904 9.43865 6.29103 -8.95066
144 1 9.42793 9.41594 6.29255 -8.91859
145 1 12.6188 9.40482 6.24698 -8.88741
146 1 15.738 9.43065 6.28168 -8.95404
147 1 18.8734 9.43381 6.28809 -8.95105
148 1 -0.00109628 4.18334e-14 9.43427 -8.94938
149 1 3.14246 -1.43755e-12 9.43386 -8.94924
150 1 6.28786 -2.02694e-11 9.43374 -8.95154
151 1 9.43482 -4.08243e-10 9.43393 -8.94909
152 1 12.5801 -2.3156e-11 9.43439 -8.95036
153 1 15.7251 -3.12811e-14 9.43453 -8.94943
154 1 18.8693 -1.87246e-14 9.43445 -8.94946
155 1 22.0123 3.14358 9.43414 -8.94933
156 1 3.14057 3.14141 9.43334 -8.94888
157 1 6.28432 3.13626 9.43238 -8.9515
158 1 9.43429 3.14055 9.43325 -8.94738
159 1 12.5806 3.14127 9.43376 -8.95186
160 1 15.7256 3.14316 9.43451 -8.94932
161 1 18.8694 3.1438 9.43443 -8.94936
162 1 22.0114 6.28855 9.43409 -8.95072
163 1 3.1349 6.28462 9.43215 -8.95036
164 1 6.2638 6.26438 9.42074 -8.91687
165 1 9.42966 6.28168 9.43129 -9.00955
166 1 12.5882 6.2767 9.42475 -8.94377
167 1 15.7285 6.28675 9.43406 -8.94912
168 1 18.8702 6.28853 9.43452 -8.94989
169 1 22.0131 9.43487 9.43435 -8.94932
170 1 3.14215 9.43583 9.43422 -8.94993
171 1 6.28421 9.42896 9.43589 -8.96867
172 1 9.3607 9.14869 9.44581 -8.05797
173 1 12.593 9.40833 9.38646 -8.83737
174 1 15.7278 9.43445 9.4321 -8.9523
175 1 18.8704 9.43455 9.43459 -8.9496
176 1 1.5703 1.57134 11.007 -8.94928
177 1 4.71399 1.56955 11.007 -8.94917
178 1 7.86123 1.56867 11.007 -8.95357
179 1 11.0072 1.57092 11.007 -8.94976
180 1 14.1528 1.57145 11.007 -8.949
181 1 17.2974 1.57176 11.007 -8.94943
182 1 20.441 1.57186 11.007 -8.94945
183 1 1.56802 4.71469 11.007 -8.94899
184 1 4.70757 4.70835 11.007 -8.94525
185 1 7.85453 4.69857 11.007 -8.96636
186 1 11.0074 4.71137 11.007 -8.9551
187 1 14.154 4.71487 11.007 -8.94682
188 1 17.2982 4.71561 11.007 -8.94867
189 1 20.4408 4.71604 11.007 -8.94961
190 1 1.56705 7.86149 11.007 -8.95436
191 1 4.69557 7.85408 11.007 -8.96735
192 1 7.77271 7.78409 11.0069 -8.73242
193 1 11.0587 7.83608 11.007 -8.82721
194 1 14.1595 7.86218 11.007 -8.96729
195 1 17.2989 7.8615 11.007 -8.95097
196 1 20.441 7.86176 11.007 -8.95047
197 1 -0.00109628 -2.1746e-14 12.5796 -8.94938
198 1 1.57042 1.5714 14.1527 -8.94926
199 1 3.14246 -3.66149e-13 12.58 -8.94924
200 1 4.7143 1.5697 14.1538 -8.94972
201 1 6.28786 -2.85912e-11 12.5802 -8.95154
202 1 7.86143 1.56959 14.1531 -8.95129
203 1 9.43482 -8.18235e-11 12.58 -8.94909
204 1 11.0074 1.57062 14.1527 -8.94973
205 1 12.5801 -1.82382e-11 12.5795 -8.95036
206 1 14.153 1.57072 14.1524 -8.95051
207 1 15.7251 -3.92903e-13 12.5794 -8.94943
208 1 17.2974 1.57169 14.1519 -8.94954
209 1 18.8693 -9.23746e-15 12.5794 -8.94946
210 1 20.4411 1.57188 14.1521 -8.94942
211 1 22.0123 3.14358 12.5798 -8.94933
212 1 1.56838 4.7149 14.1536 -8.94936
213 1 3.14057 3.14141 12.5806 -8.94888
214 1 4.70762 4.70837 14.1584 -8.941
215 1 6.28432 3.13626 12.5815 -8.9515
216 1 7.85739 4.70515 14.156 -8.95811
217 1 9.43429 3.14055 12.5806 -8.94738
218 1 11.0071 4.71074 14.1552 -8.95138
219 1 12.5806 3.14127 12.5801 -8.95186
220 1 14.1566 4.71054 14.1554 -8.94764
221 1 15.7256 3.14316 12.5794 -8.94932
222 1 17.2988 4.71524 14.1523 -8.94983
223 1 18.8694 3.1438 12.5795 -8.94936
224 1 20.4411 4.71614 14.1523 -8.94984
225 1 22.0114 6.28855 12.5798 -8.95072
226 1 1.56925 7.86195 14.1526 -8.95202
227 1 3.1349 6.28462 12.5818 -8.95036
228 1 4.70525 7.85849 14.1552 -8.96066
229 1 6.2638 6.26438 12.5932 -8.91687
230 1 7.81623 7.81907 14.1922 -8.85628
231 1 9.42966 6.28168 12.5826 -9.00955
232 1 11.0257 7.84222 14.1854 -8.89409
233 1 12.5882 6.2767 12.5892 -8.94377
234 1 14.1684 7.84951 14.1638 -8.93736
235 1 15.7285 6.28675 12.5798 -8.94912
236 1 17.3019 7.86025 14.1529 -8.95227
237 1 18.8702 6.28853 12.5794 -8.94989
238 1 20.4422 7.86172 14.1521 -8.95058
239 1 22.0131 9.43487 12.5796 -8.94932
240 1 3.14215 9.43583 12.5797 -8.94993
241 1 6.28421 9.42896 12.578 -8.96867
242 1 9.3607 9.14867 12.5681 -8.058
243 1 12.593 9.40833 12.6274 -8.83737
244 1 15.7278 9.43445 12.5818 -8.9523
245 1 18.8704 9.43455 12.5793 -8.9496
246 1 22.0129 -1.28618e-14 15.7249 -8.94938
247 1 1.57086 1.5716 17.298 -8.94888
248 1 3.14278 -5.68661e-13 15.7259 -8.94922
249 1 4.71548 1.57076 17.2987 -8.95002
250 1 6.2886 -4.47808e-12 15.7258 -8.95053
251 1 7.86156 1.57087 17.2984 -8.94941
252 1 9.43468 -4.37983e-12 15.7256 -8.95012
253 1 11.0073 1.57093 17.2982 -8.94943
254 1 12.58 -2.49193e-12 15.7251 -8.95027
255 1 14.1528 1.57077 17.2978 -8.95053
256 1 15.7253 -2.79167e-13 15.7248 -8.94997
257 1 17.2978 1.57137 17.2974 -8.94946
258 1 18.8693 8.39697e-17 15.7245 -8.94958
259 1 20.4414 1.57188 17.2972 -8.94944
260 1 -0.00132746 3.14373 15.7252 -8.94935
261 1 1.57023 4.71598 17.2985 -8.95004
262 1 3.14108 3.1418 15.7272 -8.94741
263 1 4.71129 4.71194 17.303 -8.94445
264 1 6.28662 3.13954 15.7277 -8.95158
265 1 7.85998 4.71261 17.301 -8.94794
266 1 9.43429 3.14047 15.727 -8.94995
267 1 11.0075 4.71269 17.3009 -8.94745
268 1 12.5806 3.14074 15.7262 -8.95183
269 1 14.1562 4.71072 17.3017 -8.94939
270 1 15.7265 3.14177 15.7257 -8.94906
271 1 17.2998 4.71428 17.2986 -8.94895
272 1 18.8698 3.14366 15.7247 -8.94966
273 1 20.442 4.71621 17.2975 -8.94991
274 1 22.0129 6.28901 15.7251 -8.95055
275 1 1.57182 7.86223 17.2976 -8.94964
276 1 3.13918 6.2873 15.7276 -8.95183
277 1 4.71528 7.86273 17.2984 -8.95157
278 1 6.27358 6.27438 15.7407 -8.93066
279 1 7.85768 7.85713 17.3062 -8.95855
280 1 9.43263 6.27835 15.7325 -8.94651
281 1 11.0076 7.85665 17.3074 -8.95357
282 1 12.5884 6.27587 15.7365 -8.95038
283 1 14.1662 7.84927 17.3126 -8.93427
284 1 15.7317 6.28348 15.7292 -8.94677
285 1 17.303 7.859 17.3003 -8.94999
286 1 18.8715 6.28814 15.7252 -8.95032
287 1 20.4433 7.86141 17.2977 -8.94992
288 1 22.0144 9.43454 15.7251 -8.94972
289 1 3.14371 9.43554 15.7251 -8.94895
290 1 6.28904 9.43865 15.7229 -8.95066
291 1 9.42793 9.41594 15.7214 -8.91859
292 1 12.6188 9.40482 15.7669 -8.88741
293 1 15.738 9.43065 15.7322 -8.95404
294 1 18.8734 9.43381 15.7258 -8.95105
295 1 -0.000592977 -2.12198e-15 18.8697 -8.94912
296 1 1.5715 1.57185 20.4421 -8.94893
297 1 3.1436 -7.91985e-14 18.8703 -8.9495
298 1 4.71644 1.57178 20.4423 -8.94948
299 1 6.28904 -8.89036e-14 18.8703 -8.94938
300 1 7.86171 1.57171 20.4422 -8.94935
301 1 9.43448 -5.54034e-14 18.8702 -8.94944
302 1 11.007 1.57164 20.4422 -8.94939
303 1 12.5798 -7.68734e-14 18.8701 -8.94939
304 1 14.1524 1.57155 20.4421 -8.94939
305 1 15.7251 -3.2392e-14 18.8699 -8.94997
306 1 17.2977 1.57146 20.4421 -8.94939
307 1 18.8696 -5.65722e-16 18.8695 -8.94938
308 1 20.4418 1.57193 20.4418 -8.94917
309 1 22.0134 3.14409 18.8699 -8.94953
310 1 1.57198 4.7169 20.4421 -8.94997
311 1 3.1426 3.14304 18.8714 -8.94809
312 1 4.71559 4.71598 20.4433 -8.95018
313 1 6.28839 3.14297 18.8712 -8.94932
314 1 7.86116 4.71568 20.443 -8.94911
315 1 9.43421 3.14284 18.8709 -8.94927
316 1 11.0069 4.71531 20.4429 -8.94928
317 1 12.5801 3.14265 18.8708 -8.949
318 1 14.1531 4.71489 20.4431 -8.94985
319 1 15.7263 3.14208 18.871 -8.94932
320 1 17.2992 4.71474 20.4429 -8.94819
321 1 18.8703 3.14352 18.8698 -8.94933
322 1 20.4425 4.7164 20.442 -8.94943
323 1 22.0143 6.28926 18.8698 -8.94971
324 1 1.5724 7.86208 20.4419 -8.94933
325 1 3.14362 6.28952 18.8705 -8.95055
326 1 4.71691 7.86272 20.442 -8.94974
327 1 6.28669 6.28724 18.8741 -8.95179
328 1 7.86165 7.86208 20.4431 -8.95266
329 1 9.43348 6.28649 18.8731 -8.94808
330 1 11.0064 7.86076 20.444 -8.95123
331 1 12.581 6.28603 18.8742 -8.95005
332 1 14.1546 7.85958 20.4454 -8.95214
333 1 15.73 6.28422 18.8745 -8.94537
334 1 17.2997 7.86046 20.4431 -8.94886
335 1 18.8718 6.28795 18.8706 -8.94944
336 1 20.4428 7.86154 20.4421 -8.94932
337 1 0.00066944 9.43437 18.8699 -8.94946
338 1 3.14435 9.43472 18.87 -8.94893
339 1 6.29 9.43592 18.8687 -8.94928
340 1 9.43516 9.43462 18.8689 -8.94782
341 1 12.5833 9.43289 18.8791 -8.95964
342 1 15.7302 9.43247 18.8745 -8.9475
343 1 18.8721 9.43382 18.8708 -8.94918
344 1 1.57246 11.007 1.57195 -8.94952
345 1 4.71689 11.007 1.57204 -8.94968
346 1 7.86225 11.007 1.57352 -8.94679
347 1 11.0068 11.007 1.57161 -8.94685
348 1 14.1556 11.007 1.56835 -8.95008
349 1 17.2999 11.007 1.57079 -8.9492
350 1 20.4429 11.007 1.5718 -8.9494
351 1 22.0145 12.5795 2.52346e-15 -8.94947
352 1 1.5724 14.1518 1.57197 -8.94933
353 1 3.14455 12.5793 -7.53295e-14 -8.94949
354 1 4.71691 14.1512 1.57191 -8.94974
355 1 6.2895 12.5788 5.25439e-12 -8.94909
356 1 7.86165 14.1518 1.57085 -8.95266
357 1 9.43418 12.5791 -1.69367e-11 -8.94826
358 1 11.0064 14.1531 1.56989 -8.95123
359 1 12.58 12.5797 5.81471e-12 -8.95329
360 1 14.1546 14.1543 1.56851 -8.95214
361 1 15.7273 12.5804 2.7791e-15 -8.94911
362 1 17.2997 14.1534 1.57084 -8.94886
363 1 18.8711 12.5799 -3.40272e-16 -8.94929
364 1 20.4428 14.1524 1.57183 -8.94932
365 1 22.0144 15.7245 1.39946e-14 -8.9494
366 1 1.57198 17.297 1.57177 -8.94997
367 1 3.14445 15.7241 -4.94181e-14 -8.94994
368 1 4.71559 17.2979 1.57063 -8.95018
369 1 6.28873 15.7247 7.77845e-12 -8.95159
370 1 7.86116 17.2982 1.57094 -8.94911
371 1 9.43371 15.7256 1.34431e-11 -8.94977
372 1 11.0069 17.2986 1.57095 -8.94928
373 1 12.5797 15.726 1.52597e-12 -8.95003
374 1 14.1531 17.299 1.57077 -8.94985
375 1 15.7268 15.7268 2.03355e-13 -8.95017
376 1 17.2992 17.2992 1.57103 -8.94819
377 1 18.8709 15.7254 4.20961e-15 -8.94924
378 1 20.4425 17.2975 1.57191 -8.94943
379 1 22.0139 18.8696 1.42464e-15 -8.94954
380 1 1.5715 20.442 1.57175 -8.94893
381 1 3.14373 18.87 1.87309e-13 -8.9495
382 1 4.71644 20.4421 1.57164 -8.94948
383 1 6.28892 18.87 4.70181e-13 -8.94933
384 1 7.86171 20.4422 1.5717 -8.94935
385 1 9.43421 18.8703 6.88053e-14 -8.94939
386 1 11.007 20.4423 1.57174 -8.94939
387 1 12.5797 18.8704 3.63383e-13 -8.94929
388 1 14.1524 20.4423 1.57182 -8.94939
389 1 15.7253 18.8706 3.77823e-14 -8.94967
390 1 17.2977 20.4424 1.57183 -8.94939
391 1 18.8704 18.8703 5.17994e-15 -8.94873
392 1 20.4418 20.442 1.5721 -8.94917
393 1 1.57217 11.007 4.71609 -8.94941
394 1 4.71659 11.007 4.71608 -8.94616
395 1 7.86717 11.007 4.72491 -8.9434
396 1 11.0125 11.007 4.71752 -8.99091
397 1 14.1652 11.007 4.70318 -8.94203
398 1 17.3033 11.007 4.71314 -8.949
399 1 20.4436 11.007 4.71596 -8.94981
400 1 0.00066944 12.5795 3.14397 -8.94946
401 1 1.57182 14.1517 4.7163 -8.94964
402 1 3.14435 12.5792 3.14394 -8.94893
403 1 4.71528 14.1512 4.7155 -8.95157
404 1 6.29 12.578 3.14521 -8.94928
405 1 7.85768 14.1568 4.70768 -8.95855
406 1 9.43516 12.5793 3.14505 -8.94782
407 1 11.0076 14.1573 4.70652 -8.95357
408 1 12.5833 12.581 3.13485 -8.95964
409 1 14.1662 14.1646 4.7013 -8.93427
410 1 15.7302 12.5814 3.13942 -8.9475
411 1 17.303 14.1549 4.71357 -8.94999
412 1 18.8721 12.5801 3.14312 -8.94918
413 1 20.4433 14.1525 4.71618 -8.94992
414 1 22.0143 15.7246 3.14406 -8.94971
415 1 1.57023 17.2979 4.7154 -8.95004
416 1 3.14362 15.7244 3.14337 -8.95055
417 1 4.71129 17.302 4.71085 -8.94445
418 1 6.28669 15.7267 3.1398 -8.95179
419 1 7.85998 17.3013 4.71288 -8.94794
420 1 9.43348 15.7274 3.14079 -8.94808
421 1 11.0075 17.3012 4.71304 -8.94745
422 1 12.581 15.7279 3.13972 -8.95005
423 1 14.1562 17.3032 4.7122 -8.94939
424 1 15.73 15.7297 3.13939 -8.94537
425 1 17.2998 17.2996 4.71527 -8.94895
426 1 18.8718 15.726 3.14333 -8.94944
427 1 20.442 17.2977 4.71643 -8.94991
428 1 22.0134 18.8698 3.14396 -8.94953
429 1 1.57086 20.4423 4.71592 -8.94888
430 1 3.1426 18.8709 3.14253 -8.94809
431 1 4.71548 20.4431 4.71517 -8.95002
432 1 6.28839 18.8709 3.14274 -8.94932
433 1 7.86156 20.443 4.7155 -8.94941
434 1 9.43421 18.8711 3.14298 -8.94927
435 1 11.0073 20.443 4.71567 -8.94943
436 1 12.5801 18.8712 3.14309 -8.949
437 1 14.1528 20.4431 4.71609 -8.95053
438 1 15.7263 18.8718 3.14293 -8.94932
439 1 17.2978 20.4425 4.71651 -8.94946
440 1 18.8703 18.8704 3.14405 -8.94933
441 1 20.4414 20.442 4.71673 -8.94944
442 1 1.57213 11.007 7.86122 -8.94722
443 1 4.72093 11.007 7.86294 -8.93741
444 1 7.89107 11.007 7.88635 -8.83645
445 1 11.1004 11.0069 7.68318 -8.23842
446 1 14.1721 11.007 7.84516 -8.9653
447 1 17.3033 11.007 7.85987 -8.95197
448 1 20.4431 11.007 7.86159 -8.94994
449 1 22.0144 12.5794 6.28884 -8.94972
450 1 1.56925 14.152 7.86134 -8.95202
451 1 3.14371 12.5784 6.28875 -8.94895
452 1 4.70525 14.1554 7.85869 -8.96066
453 1 6.28904 12.5753 6.29103 -8.95066
454 1 7.81623 14.1948 7.82175 -8.85628
455 1 9.42793 12.598 6.29255 -8.91859
456 1 11.0257 14.1717 7.82845 -8.89409
457 1 12.6188 12.6091 6.24698 -8.88741
458 1 14.1684 14.1644 7.85009 -8.93736
459 1 15.738 12.5833 6.28168 -8.95404
460 1 17.3019 14.1536 7.86102 -8.95227
461 1 18.8734 12.5801 6.28809 -8.95105
462 1 20.4422 14.1522 7.86184 -8.95058
463 1 22.0129 15.7249 6.28878 -8.95055
464 1 1.56838 17.299 7.86027 -8.94936
465 1 3.13918 15.7266 6.28635 -8.95183
466 1 4.70762 17.3055 7.85546 -8.941
467 1 6.27358 15.7395 6.27319 -8.93066
468 1 7.85739 17.3087 7.8579 -8.95811
469 1 9.43263 15.7355 6.28135 -8.94651
470 1 11.0071 17.3032 7.85869 -8.95138
471 1 12.5884 15.738 6.27741 -8.95038
472 1 14.1566 17.3034 7.85848 -8.94764
473 1 15.7317 15.7304 6.28469 -8.94677
474 1 17.2988 17.2987 7.86157 -8.94983
475 1 18.8715 15.7258 6.28874 -8.95032
476 1 20.4411 17.2978 7.86164 -8.94984
477 1 -0.00132746 18.8702 6.28869 -8.94935
478 1 1.57042 20.4425 7.86117 -8.94926
479 1 3.14108 18.8721 6.28673 -8.94741
480 1 4.7143 20.4442 7.8601 -8.94972
481 1 6.28662 18.8744 6.28622 -8.95158
482 1 7.86143 20.4443 7.86084 -8.95129
483 1 9.43429 18.8734 6.28692 -8.94995
484 1 11.0074 20.4433 7.86119 -8.94973
485 1 12.5806 18.8732 6.28772 -8.95183
486 1 14.153 20.4432 7.86154 -8.95051
487 1 15.7265 18.8721 6.28816 -8.94906
488 1 17.2974 20.4422 7.86199 -8.94954
489 1 18.8698 18.8702 6.2892 -8.94966
490 1 20.4411 20.442 7.8618 -8.94942
491 1 22.0131 12.579 9.43435 -8.94932
492 1 3.14215 12.5781 9.43422 -8.94993
493 1 6.28421 12.5849 9.43589 -8.96867
494 1 9.36069 12.8652 9.44581 -8.05803
495 1 12.593 12.6056 9.38646 -8.83737
496 1 15.7278 12.5794 9.4321 -8.9523
497 1 18.8704 12.5794 9.43459 -8.9496
498 1 22.0114 15.7254 9.43409 -8.95072
499 1 3.1349 15.7293 9.43215 -8.95036
500 1 6.2638 15.7495 9.42074 -8.91687
501 1 9.42966 15.7322 9.43129 -9.00955
502 1 12.5882 15.7372 9.42475 -8.94377
503 1 15.7285 15.7271 9.43406 -8.94912
504 1 18.8702 15.7254 9.43452 -8.94989
505 1 22.0123 18.8703 9.43414 -8.94933
506 1 3.14057 18.8725 9.43334 -8.94888
507 1 6.28432 18.8776 9.43238 -8.9515
508 1 9.43429 18.8733 9.43325 -8.94738
509 1 12.5806 18.8726 9.43376 -8.95186
510 1 15.7256 18.8707 9.43451 -8.94932
511 1 18.8694 18.8701 9.43443 -8.94936
688 3 10.0705 11.0069 9.39843 2.36491
512 1 1.57231 11.007 11.007 -8.94483
513 1 4.72575 11.007 11.007 -8.93257
514 1 7.906 11.007 11.007 -8.71565
515 1 11.2609 11.0069 11.0069 -7.42097
516 1 14.1373 11.007 11.007 -9.01301
517 1 17.295 11.007 11.007 -8.94441
518 1 20.4413 11.007 11.007 -8.94756
519 1 1.56705 14.1524 11.007 -8.95436
520 1 4.69557 14.1598 11.007 -8.96735
521 1 7.77271 14.2298 11.0069 -8.73241
522 1 11.0587 14.1778 11.007 -8.8272
523 1 14.1595 14.1517 11.007 -8.96729
524 1 17.2989 14.1524 11.007 -8.95097
525 1 20.441 14.1521 11.007 -8.95047
526 1 1.56802 17.2992 11.007 -8.94899
527 1 4.70757 17.3056 11.007 -8.94525
528 1 7.85453 17.3153 11.007 -8.96636
529 1 11.0074 17.3025 11.007 -8.9551
530 1 14.154 17.299 11.007 -8.94682
531 1 17.2982 17.2983 11.007 -8.94867
532 1 20.4408 17.2979 11.007 -8.94961
533 1 1.5703 20.4426 11.007 -8.94928
534 1 4.71399 20.4444 11.007 -8.94917
535 1 7.86123 20.4452 11.007 -8.95357
536 1 11.0072 20.443 11.007 -8.94976
537 1 14.1528 20.4425 11.007 -8.949
538 1 17.2974 20.4421 11.007 -8.94943
539 1 20.441 20.442 11.007 -8.94945
540 1 1.57213 11.007 14.1527 -8.94722
541 1 4.72093 11.007 14.151 -8.93741
542 1 7.89107 11.007 14.1275 -8.83645
543 1 11.1004 11.007 14.3307 -8.23841
544 1 14.1721 11.007 14.1687 -8.9653
545 1 17.3033 11.007 14.154 -8.95197
546 1 20.4431 11.007 14.1523 -8.94994
547 1 22.0131 12.579 12.5796 -8.94932
548 1 1.56925 14.152 14.1526 -8.95202
549 1 3.14215 12.5781 12.5797 -8.94993
550 1 4.70525 14.1554 14.1552 -8.96066
551 1 6.28421 12.5849 12.578 -8.96867
552 1 7.81623 14.1948 14.1922 -8.85628
553 1 9.36069 12.8652 12.5681 -8.05802
554 1 11.0257 14.1717 14.1854 -8.89409
555 1 12.593 12.6056 12.6274 -8.83737
556 1 14.1684 14.1644 14.1638 -8.93736
557 1 15.7278 12.5794 12.5818 -8.9523
558 1 17.3019 14.1536 14.1529 -8.95227
559 1 18.8704 12.5794 12.5793 -8.9496
560 1 20.4422 14.1522 14.1521 -8.95058
561 1 22.0114 15.7254 12.5798 -8.95072
562 1 1.56838 17.299 14.1536 -8.94936
563 1 3.1349 15.7293 12.5818 -8.95036
564 1 4.70762 17.3055 14.1584 -8.941
565 1 6.2638 15.7495 12.5932 -8.91687
566 1 7.85739 17.3087 14.156 -8.95811
567 1 9.42966 15.7322 12.5826 -9.00955
568 1 11.0071 17.3032 14.1552 -8.95138
569 1 12.5882 15.7372 12.5892 -8.94377
570 1 14.1566 17.3034 14.1554 -8.94764
571 1 15.7285 15.7271 12.5798 -8.94912
572 1 17.2988 17.2987 14.1523 -8.94983
573 1 18.8702 15.7254 12.5794 -8.94989
574 1 20.4411 17.2978 14.1523 -8.94984
575 1 22.0123 18.8703 12.5798 -8.94933
576 1 1.57042 20.4425 14.1527 -8.94926
577 1 3.14057 18.8725 12.5806 -8.94888
578 1 4.7143 20.4442 14.1538 -8.94972
579 1 6.28432 18.8776 12.5815 -8.9515
580 1 7.86143 20.4443 14.1531 -8.95129
581 1 9.43429 18.8733 12.5806 -8.94738
582 1 11.0074 20.4433 14.1527 -8.94973
583 1 12.5806 18.8726 12.5801 -8.95186
584 1 14.153 20.4432 14.1524 -8.95051
585 1 15.7256 18.8707 12.5794 -8.94932
586 1 17.2974 20.4422 14.1519 -8.94954
587 1 18.8694 18.8701 12.5795 -8.94936
588 1 20.4411 20.442 14.1521 -8.94942
589 1 1.57217 11.007 17.2978 -8.94941
590 1 4.71659 11.007 17.2978 -8.94616
591 1 7.86717 11.007 17.289 -8.9434
592 1 11.0125 11.007 17.2964 -8.99091
593 1 14.1652 11.007 17.3107 -8.94203
594 1 17.3033 11.007 17.3008 -8.949
595 1 20.4436 11.007 17.2979 -8.94981
596 1 22.0144 12.5794 15.7251 -8.94972
597 1 1.57182 14.1517 17.2976 -8.94964
598 1 3.14371 12.5784 15.7251 -8.94895
599 1 4.71528 14.1512 17.2984 -8.95157
600 1 6.28904 12.5753 15.7229 -8.95066
601 1 7.85768 14.1568 17.3062 -8.95855
602 1 9.42793 12.598 15.7214 -8.91859
603 1 11.0076 14.1573 17.3074 -8.95357
604 1 12.6188 12.6091 15.7669 -8.88741
605 1 14.1662 14.1646 17.3126 -8.93427
606 1 15.738 12.5833 15.7322 -8.95404
607 1 17.303 14.1549 17.3003 -8.94999
608 1 18.8734 12.5801 15.7258 -8.95105
609 1 20.4433 14.1525 17.2977 -8.94992
610 1 22.0129 15.7249 15.7251 -8.95055
611 1 1.57023 17.2979 17.2985 -8.95004
612 1 3.13918 15.7266 15.7276 -8.95183
613 1 4.71129 17.302 17.303 -8.94445
614 1 6.27358 15.7395 15.7407 -8.93066
615 1 7.85998 17.3013 17.301 -8.94794
616 1 9.43263 15.7355 15.7325 -8.94651
617 1 11.0075 17.3012 17.3009 -8.94745
618 1 12.5884 15.738 15.7365 -8.95038
619 1 14.1562 17.3032 17.3017 -8.94939
620 1 15.7317 15.7304 15.7292 -8.94677
621 1 17.2998 17.2996 17.2986 -8.94895
622 1 18.8715 15.7258 15.7252 -8.95032
623 1 20.442 17.2977 17.2975 -8.94991
624 1 -0.00132746 18.8702 15.7252 -8.94935
625 1 1.57086 20.4423 17.298 -8.94888
626 1 3.14108 18.8721 15.7272 -8.94741
627 1 4.71548 20.4431 17.2987 -8.95002
628 1 6.28662 18.8744 15.7277 -8.95158
629 1 7.86156 20.443 17.2984 -8.94941
630 1 9.43429 18.8734 15.727 -8.94995
631 1 11.0073 20.443 17.2982 -8.94943
632 1 12.5806 18.8732 15.7262 -8.95183
633 1 14.1528 20.4431 17.2978 -8.95053
634 1 15.7265 18.8721 15.7257 -8.94906
635 1 17.2978 20.4425 17.2974 -8.94946
636 1 18.8698 18.8702 15.7247 -8.94966
637 1 20.4414 20.442 17.2972 -8.94944
638 1 1.57246 11.007 20.442 -8.94952
639 1 4.71689 11.007 20.4419 -8.94968
640 1 7.86225 11.007 20.4404 -8.94679
641 1 11.0068 11.007 20.4423 -8.94685
642 1 14.1556 11.007 20.4456 -8.95008
643 1 17.2999 11.007 20.4431 -8.9492
644 1 20.4429 11.007 20.4421 -8.9494
645 1 0.00066944 12.5795 18.8699 -8.94946
646 1 1.5724 14.1518 20.4419 -8.94933
647 1 3.14435 12.5792 18.87 -8.94893
648 1 4.71691 14.1512 20.442 -8.94974
649 1 6.29 12.578 18.8687 -8.94928
650 1 7.86165 14.1518 20.4431 -8.95266
651 1 9.43516 12.5793 18.8689 -8.94782
652 1 11.0064 14.1531 20.444 -8.95123
653 1 12.5833 12.581 18.8791 -8.95964
654 1 14.1546 14.1543 20.4454 -8.95214
655 1 15.7302 12.5814 18.8745 -8.9475
656 1 17.2997 14.1534 20.4431 -8.94886
657 1 18.8721 12.5801 18.8708 -8.94918
658 1 20.4428 14.1524 20.4421 -8.94932
659 1 22.0143 15.7246 18.8698 -8.94971
660 1 1.57198 17.297 20.4421 -8.94997
661 1 3.14362 15.7244 18.8705 -8.95055
662 1 4.71559 17.2979 20.4433 -8.95018
663 1 6.28669 15.7267 18.8741 -8.95179
664 1 7.86116 17.2982 20.443 -8.94911
665 1 9.43348 15.7274 18.8731 -8.94808
666 1 11.0069 17.2986 20.4429 -8.94928
667 1 12.581 15.7279 18.8742 -8.95005
668 1 14.1531 17.299 20.4431 -8.94985
669 1 15.73 15.7297 18.8745 -8.94537
670 1 17.2992 17.2992 20.4429 -8.94819
671 1 18.8718 15.726 18.8706 -8.94944
672 1 20.4425 17.2975 20.442 -8.94943
673 1 22.0134 18.8698 18.8699 -8.94953
674 1 1.5715 20.442 20.4421 -8.94893
675 1 3.1426 18.8709 18.8714 -8.94809
676 1 4.71644 20.4421 20.4423 -8.94948
677 1 6.28839 18.8709 18.8712 -8.94932
678 1 7.86171 20.4422 20.4422 -8.94935
679 1 9.43421 18.8711 18.8709 -8.94927
680 1 11.007 20.4423 20.4422 -8.94939
681 1 12.5801 18.8712 18.8708 -8.949
682 1 14.1524 20.4423 20.4421 -8.94939
683 1 15.7263 18.8718 18.871 -8.94932
684 1 17.2977 20.4424 20.4421 -8.94939
685 1 18.8703 18.8704 18.8698 -8.94933
686 1 20.4418 20.442 20.4418 -8.94917
687 3 10.0705 11.0069 12.6155 2.36487
