ITEM: TIMESTEP
36
ITEM: NUMBER OF ATOMS
688
ITEM: BOX BOUNDS pp pp pp
0.0000000000000000e+00 2.2013900999999997e+01
0.0000000000000000e+00 2.2013900999999997e+01
0.0000000000000000e+00 2.2013900999999997e+01
ITEM: ATOMS id type x y z c_pot
1 1 22.0139 9.9528e-17 5.03055e-16 -8.94963
2 1 1.57242 1.57242 1.57242 -8.94963
3 1 3.14484 4.07228e-16 2.13711e-16 -8.94963
4 1 4.71726 1.57242 1.57242 -8.94963
5 1 6.28969 2.58065e-16 5.1358e-16 -8.94963
6 1 7.86211 1.57242 1.57242 -8.94963
7 1 9.43453 5.56499e-16 4.6097e-16 -8.94963
8 1 11.007 1.57242 1.57242 -8.94963
9 1 12.5794 4.97134e-16 2.94468e-16 -8.94963
10 1 14.1518 1.57242 1.57242 -8.94963
11 1 15.7242 -2.65883e-16 -2.52989e-17 -8.94963
12 1 17.2966 1.57242 1.57242 -8.94963
13 1 18.8691 4.48892e-16 1.58549e-16 -8.94963
14 1 20.4415 1.57242 1.57242 -8.94963
15 1 22.0139 3.14484 4.13068e-16 -8.94963
16 1 1.57242 4.71726 1.57242 -8.94963
17 1 3.14484 3.14484 3.87767e-16 -8.94963
18 1 4.71726 4.71726 1.57242 -8.94963
19 1 6.28969 3.14484 8.1357e-16 -8.94963
20 1 7.86211 4.71726 1.57242 -8.94963
21 1 9.43453 3.14484 2.73403e-16 -8.94963
22 1 11.007 4.71726 1.57242 -8.94963
23 1 12.5794 3.14484 1.51104e-16 -8.94963
24 1 14.1518 4.71726 1.57242 -8.94963
25 1 15.7242 3.14484 4.37926e-18 -8.94963
26 1 17.2966 4.71726 1.57242 -8.94963
27 1 18.8691 3.14484 4.40098e-16 -8.94963
28 1 20.4415 4.71726 1.57242 -8.94963
29 1 22.0139 6.28969 5.79626e-16 -8.94963
30 1 1.57242 7.86211 1.57242 -8.94963
31 1 3.14484 6.28969 9.02282e-16 -8.94963
32 1 4.71726 7.86211 1.57242 -8.94963
33 1 6.28969 6.28969 5.4631e-16 -8.94963
34 1 7.86211 7.86211 1.57242 -8.94963
35 1 9.43453 6.28969 1.99722e-16 -8.94963
36 1 11.007 7.86211 1.57242 -8.94964
37 1 12.5794 6.28969 1.77415e-16 -8.94963
38 1 14.1518 7.86211 1.57242 -8.94963
39 1 15.7242 6.28969 -1.41908e-16 -8.94963
40 1 17.2966 7.86211 1.57242 -8.94963
41 1 18.8691 6.28969 3.9968e-16 -8.94963
42 1 20.4415 7.86211 1.57242 -8.94963
43 1 22.0139 9.43453 2.77819e-16 -8.94963
44 1 3.14484 9.43453 4.87015e-16 -8.94963
45 1 6.28969 9.43453 3.00787e-16 -8.94963
46 1 9.43453 9.43453 7.76774e-16 -8.94964
47 1 12.5794 9.43453 -3.51446e-17 -8.94965
48 1 15.7242 9.43453 -1.52444e-16 -8.94963
49 1 18.8691 9.43453 2.07028e-16 -8.94963
50 1 3.55323e-11 2.8583e-16 3.14484 -8.94963
51 1 1.57242 1.57242 4.71726 -8.94963
52 1 3.14484 -7.10546e-17 3.14484 -8.94963
53 1 4.71726 1.57242 4.71726 -8.94963
54 1 6.28969 7.36378e-16 3.14484 -8.94963
55 1 7.86211 1.57242 4.71726 -8.94963
56 1 9.43453 7.21598e-16 3.14484 -8.94963
57 1 11.007 1.57242 4.71726 -8.94963
58 1 12.5794 3.65735e-16 3.14484 -8.94963
59 1 14.1518 1.57242 4.71726 -8.94963
60 1 15.7242 1.47617e-16 3.14484 -8.94963
61 1 17.2966 1.57242 4.71726 -8.94963
62 1 18.8691 1.3625e-17 3.14484 -8.94963
63 1 20.4415 1.57242 4.71726 -8.94963
64 1 22.0139 3.14484 3.14484 -8.94963
65 1 1.57242 4.71726 4.71726 -8.94963
66 1 3.14484 3.14484 3.14484 -8.94963
67 1 4.71726 4.71726 4.71726 -8.94961
68 1 6.28969 3.14484 3.14484 -8.94963
69 1 7.86211 4.71727 4.71727 -8.94971
70 1 9.43453 3.14484 3.14484 -8.94963
71 1 11.0069 4.71727 4.71727 -8.94965
72 1 12.5794 3.14484 3.14484 -8.94963
73 1 14.1518 4.71726 4.71726 -8.94964
74 1 15.7242 3.14484 3.14484 -8.94963
75 1 17.2966 4.71726 4.71726 -8.94963
76 1 18.8691 3.14484 3.14484 -8.94963
77 1 20.4415 4.71726 4.71726 -8.94963
78 1 22.0139 6.28969 3.14484 -8.94963
79 1 1.57242 7.86211 4.71726 -8.94963
80 1 3.14484 6.28969 3.14484 -8.94963
81 1 4.71726 7.86211 4.71726 -8.94966
82 1 6.28969 6.28969 3.14484 -8.94963
83 1 7.86209 7.86209 4.71721 -8.94989
84 1 9.43453 6.28969 3.14484 -8.94965
85 1 11.0069 7.86215 4.7173 -8.95091
86 1 12.5794 6.28969 3.14485 -8.94971
87 1 14.1518 7.86205 4.71721 -8.94874
88 1 15.7242 6.28968 3.14484 -8.94961
89 1 17.2966 7.86211 4.71726 -8.94964
90 1 18.8691 6.28969 3.14484 -8.94963
91 1 20.4415 7.86211 4.71726 -8.94963
92 1 3.98019e-09 9.43453 3.14484 -8.94963
93 1 3.14484 9.43453 3.14484 -8.94964
94 1 6.28969 9.43453 3.14484 -8.94966
95 1 9.4345 9.4345 3.14481 -8.94936
96 1 12.5794 9.4345 3.14478 -8.94975
97 1 15.7242 9.43453 3.14485 -8.9497
98 1 18.8691 9.43453 3.14484 -8.94963
99 1 22.0139 2.27589e-16 6.28969 -8.94963
100 1 1.57242 1.57242 7.86211 -8.94963
101 1 3.14484 1.35131e-16 6.28969 -8.94963
102 1 4.71726 1.57242 7.86211 -8.94963
103 1 6.28969 2.37656e-16 6.28969 -8.94963
104 1 7.86211 1.57242 7.86211 -8.94964
105 1 9.43453 5.85654e-16 6.28969 -8.94963
106 1 11.007 1.57242 7.86211 -8.94964
107 1 12.5794 4.06837e-16 6.28969 -8.94963
108 1 14.1518 1.57242 7.86211 -8.94963
109 1 15.7242 4.51326e-16 6.28969 -8.94963
110 1 17.2966 1.57242 7.86211 -8.94963
111 1 18.8691 5.79839e-16 6.28969 -8.94963
112 1 20.4415 1.57242 7.86211 -8.94963
113 1 1.27997e-09 3.14484 6.28969 -8.94963
114 1 1.57242 4.71726 7.86211 -8.94963
115 1 3.14484 3.14484 6.28969 -8.94963
116 1 4.71727 4.71727 7.86211 -8.94968
117 1 6.28968 3.14484 6.28969 -8.94963
118 1 7.86208 4.7172 7.86208 -8.94981
119 1 9.43453 3.14484 6.28969 -8.94964
120 1 11.007 4.71723 7.86208 -8.94937
121 1 12.5794 3.14484 6.28969 -8.94963
122 1 14.1518 4.71726 7.86211 -8.94966
123 1 15.7242 3.14484 6.28969 -8.94963
124 1 17.2966 4.71726 7.86211 -8.94964
125 1 18.8691 3.14484 6.28969 -8.94963
126 1 20.4415 4.71726 7.86211 -8.94963
127 1 22.0139 6.28969 6.28969 -8.94963
128 1 1.57242 7.86211 7.86211 -8.94964
129 1 3.14484 6.28969 6.28969 -8.94964
130 1 4.71722 7.86209 7.86209 -8.95001
131 1 6.28963 6.28963 6.28963 -8.94875
132 1 7.86013 7.86023 7.86009 -8.92062
133 1 9.43454 6.28972 6.28973 -8.95093
134 1 11.0076 7.86171 7.86142 -8.94158
135 1 12.5794 6.28963 6.28967 -8.94996
136 1 14.1519 7.862 7.86199 -8.94836
137 1 15.7242 6.28969 6.28968 -8.94964
138 1 17.2966 7.86211 7.86211 -8.94964
139 1 18.8691 6.28969 6.28969 -8.94963
140 1 20.4415 7.86211 7.86211 -8.94963
141 1 22.0139 9.43453 6.28969 -8.94963
142 1 3.14484 9.43453 6.28969 -8.94964
143 1 6.28962 9.43447 6.28963 -8.94924
144 1 9.43382 9.43377 6.2892 -8.94085
145 1 12.5813 9.43254 6.28776 -8.92058
146 1 15.7243 9.43452 6.28968 -8.95006
147 1 18.8691 9.43453 6.28969 -8.94964
148 1 1.11696e-10 6.25754e-16 9.43453 -8.94963
149 1 3.14484 1.60868e-16 9.43453 -8.94963
150 1 6.28969 5.54382e-16 9.43453 -8.94963
151 1 9.43453 3.31887e-16 9.43453 -8.94966
152 1 12.5794 6.27223e-16 9.43453 -8.94963
153 1 15.7242 3.71225e-16 9.43453 -8.94963
154 1 18.8691 2.96978e-16 9.43453 -8.94963
155 1 22.0139 3.14484 9.43453 -8.94963
156 1 3.14484 3.14484 9.43453 -8.94963
157 1 6.28969 3.14484 9.43453 -8.94963
158 1 9.43453 3.1448 9.43453 -8.95026
159 1 12.5794 3.14484 9.43453 -8.94966
160 1 15.7242 3.14484 9.43453 -8.94963
161 1 18.8691 3.14484 9.43453 -8.94963
162 1 22.0139 6.28969 9.43453 -8.94963
163 1 3.14484 6.28969 9.43453 -8.94963
164 1 6.28968 6.28968 9.43447 -8.95048
165 1 9.43451 6.28738 9.43458 -8.96719
166 1 12.5794 6.28961 9.43451 -8.95106
167 1 15.7242 6.28969 9.43453 -8.94972
168 1 18.8691 6.28969 9.43453 -8.94963
169 1 22.0139 9.43453 9.43453 -8.94964
170 1 3.14482 9.43453 9.43453 -8.94992
171 1 6.28847 9.43432 9.43448 -8.95801
172 1 9.39195 9.34718 9.43428 -7.95435
173 1 12.5843 9.43018 9.43264 -8.88752
174 1 15.7244 9.43449 9.43451 -8.9504
175 1 18.8691 9.43453 9.43453 -8.94966
176 1 1.57242 1.57242 11.007 -8.94963
177 1 4.71726 1.57242 11.007 -8.94963
178 1 7.86211 1.57242 11.007 -8.94965
179 1 11.007 1.57242 11.007 -8.94964
180 1 14.1518 1.57242 11.007 -8.94963
181 1 17.2966 1.57242 11.007 -8.94963
182 1 20.4415 1.57242 11.007 -8.94963
183 1 1.57242 4.71726 11.007 -8.94963
184 1 4.71727 4.71727 11.007 -8.94978
185 1 7.86205 4.71714 11.007 -8.94983
186 1 11.007 4.71719 11.007 -8.94909
187 1 14.1518 4.71726 11.007 -8.94969
188 1 17.2966 4.71726 11.007 -8.94964
189 1 20.4415 4.71726 11.007 -8.94963
190 1 1.57242 7.86211 11.007 -8.94965
191 1 4.71717 7.86208 11.007 -8.95031
192 1 7.8582 7.85838 11.007 -8.89154
193 1 11.0084 7.86116 11.007 -8.93249
194 1 14.1519 7.862 11.007 -8.9493
195 1 17.2966 7.86211 11.007 -8.94965
196 1 20.4415 7.86211 11.007 -8.94963
197 1 1.11697e-10 6.46143e-16 12.5794 -8.94963
198 1 1.57242 1.57242 14.1518 -8.94963
199 1 3.14484 1.58983e-16 12.5794 -8.94963
200 1 4.71726 1.57242 14.1518 -8.94963
201 1 6.28969 5.68695e-16 12.5794 -8.94963
202 1 7.86211 1.57242 14.1518 -8.94964
203 1 9.43453 3.36385e-16 12.5794 -8.94966
204 1 11.007 1.57242 14.1518 -8.94964
205 1 12.5794 6.47019e-16 12.5794 -8.94963
206 1 14.1518 1.57242 14.1518 -8.94963
207 1 15.7242 3.51939e-16 12.5794 -8.94963
208 1 17.2966 1.57242 14.1518 -8.94963
209 1 18.8691 2.88599e-16 12.5794 -8.94963
210 1 20.4415 1.57242 14.1518 -8.94963
211 1 22.0139 3.14484 12.5794 -8.94963
212 1 1.57242 4.71726 14.1518 -8.94963
213 1 3.14484 3.14484 12.5794 -8.94963
214 1 4.71727 4.71727 14.1518 -8.94968
215 1 6.28969 3.14484 12.5794 -8.94963
216 1 7.86208 4.7172 14.1518 -8.94981
217 1 9.43453 3.1448 12.5794 -8.95026
218 1 11.007 4.71723 14.1518 -8.94937
219 1 12.5794 3.14484 12.5794 -8.94966
220 1 14.1518 4.71726 14.1518 -8.94966
221 1 15.7242 3.14484 12.5794 -8.94963
222 1 17.2966 4.71726 14.1518 -8.94964
223 1 18.8691 3.14484 12.5794 -8.94963
224 1 20.4415 4.71726 14.1518 -8.94963
225 1 22.0139 6.28969 12.5794 -8.94963
226 1 1.57242 7.86211 14.1518 -8.94964
227 1 3.14484 6.28969 12.5794 -8.94963
228 1 4.71722 7.86209 14.1518 -8.95001
229 1 6.28968 6.28968 12.5794 -8.95048
230 1 7.86013 7.86023 14.1538 -8.92062
231 1 9.43451 6.28738 12.5793 -8.96719
232 1 11.0076 7.86171 14.1525 -8.94158
233 1 12.5794 6.28961 12.5794 -8.95106
234 1 14.1519 7.862 14.1519 -8.94836
235 1 15.7242 6.28969 12.5794 -8.94972
236 1 17.2966 7.86211 14.1518 -8.94964
237 1 18.8691 6.28969 12.5794 -8.94963
238 1 20.4415 7.86211 14.1518 -8.94963
239 1 22.0139 9.43453 12.5794 -8.94964
240 1 3.14482 9.43453 12.5794 -8.94992
241 1 6.28847 9.43432 12.5794 -8.95801
242 1 9.39195 9.34718 12.5796 -7.95435
243 1 12.5843 9.43018 12.5813 -8.88752
244 1 15.7244 9.43449 12.5794 -8.9504
245 1 18.8691 9.43453 12.5794 -8.94966
246 1 22.0139 1.46082e-16 15.7242 -8.94963
247 1 1.57242 1.57242 17.2966 -8.94963
248 1 3.14484 1.61034e-16 15.7242 -8.94963
249 1 4.71726 1.57242 17.2966 -8.94963
250 1 6.28969 2.37327e-16 15.7242 -8.94963
251 1 7.86211 1.57242 17.2966 -8.94963
252 1 9.43453 6.22209e-16 15.7242 -8.94963
253 1 11.007 1.57242 17.2966 -8.94963
254 1 12.5794 3.03004e-16 15.7242 -8.94963
255 1 14.1518 1.57242 17.2966 -8.94963
256 1 15.7242 4.89319e-16 15.7242 -8.94963
257 1 17.2966 1.57242 17.2966 -8.94963
258 1 18.8691 6.28331e-16 15.7242 -8.94963
259 1 20.4415 1.57242 17.2966 -8.94963
260 1 1.27997e-09 3.14484 15.7242 -8.94963
261 1 1.57242 4.71726 17.2966 -8.94963
262 1 3.14484 3.14484 15.7242 -8.94963
263 1 4.71726 4.71726 17.2966 -8.94961
264 1 6.28968 3.14484 15.7242 -8.94963
265 1 7.86211 4.71727 17.2966 -8.94971
266 1 9.43453 3.14484 15.7242 -8.94964
267 1 11.0069 4.71727 17.2966 -8.94965
268 1 12.5794 3.14484 15.7242 -8.94963
269 1 14.1518 4.71726 17.2966 -8.94964
270 1 15.7242 3.14484 15.7242 -8.94963
271 1 17.2966 4.71726 17.2966 -8.94963
272 1 18.8691 3.14484 15.7242 -8.94963
273 1 20.4415 4.71726 17.2966 -8.94963
274 1 22.0139 6.28969 15.7242 -8.94963
275 1 1.57242 7.86211 17.2966 -8.94963
276 1 3.14484 6.28969 15.7242 -8.94964
277 1 4.71726 7.86211 17.2966 -8.94966
278 1 6.28963 6.28963 15.7243 -8.94875
279 1 7.86209 7.86209 17.2967 -8.94989
280 1 9.43454 6.28972 15.7242 -8.95093
281 1 11.0069 7.86215 17.2966 -8.95091
282 1 12.5794 6.28963 15.7242 -8.94996
283 1 14.1518 7.86205 17.2967 -8.94874
284 1 15.7242 6.28969 15.7242 -8.94964
285 1 17.2966 7.86211 17.2966 -8.94964
286 1 18.8691 6.28969 15.7242 -8.94963
287 1 20.4415 7.86211 17.2966 -8.94963
288 1 22.0139 9.43453 15.7242 -8.94963
289 1 3.14484 9.43453 15.7242 -8.94964
290 1 6.28962 9.43447 15.7243 -8.94924
291 1 9.43382 9.43377 15.7247 -8.94085
292 1 12.5813 9.43254 15.7261 -8.92058
293 1 15.7243 9.43452 15.7242 -8.95006
294 1 18.8691 9.43453 15.7242 -8.94964
295 1 3.55319e-11 2.59984e-16 18.8691 -8.94963
296 1 1.57242 1.57242 20.4415 -8.94963
297 1 3.14484 -7.53205e-17 18.8691 -8.94963
298 1 4.71726 1.57242 20.4415 -8.94963
299 1 6.28969 7.76583e-16 18.8691 -8.94963
300 1 7.86211 1.57242 20.4415 -8.94963
301 1 9.43453 7.09699e-16 18.8691 -8.94963
302 1 11.007 1.57242 20.4415 -8.94963
303 1 12.5794 3.80015e-16 18.8691 -8.94963
304 1 14.1518 1.57242 20.4415 -8.94963
305 1 15.7242 9.58647e-17 18.8691 -8.94963
306 1 17.2966 1.57242 20.4415 -8.94963
307 1 18.8691 -2.10006e-17 18.8691 -8.94963
308 1 20.4415 1.57242 20.4415 -8.94963
309 1 22.0139 3.14484 18.8691 -8.94963
310 1 1.57242 4.71726 20.4415 -8.94963
311 1 3.14484 3.14484 18.8691 -8.94963
312 1 4.71726 4.71726 20.4415 -8.94963
313 1 6.28969 3.14484 18.8691 -8.94963
314 1 7.86211 4.71726 20.4415 -8.94963
315 1 9.43453 3.14484 18.8691 -8.94963
316 1 11.007 4.71726 20.4415 -8.94963
317 1 12.5794 3.14484 18.8691 -8.94963
318 1 14.1518 4.71726 20.4415 -8.94963
319 1 15.7242 3.14484 18.8691 -8.94963
320 1 17.2966 4.71726 20.4415 -8.94963
321 1 18.8691 3.14484 18.8691 -8.94963
322 1 20.4415 4.71726 20.4415 -8.94963
323 1 22.0139 6.28969 18.8691 -8.94963
324 1 1.57242 7.86211 20.4415 -8.94963
325 1 3.14484 6.28969 18.8691 -8.94963
326 1 4.71726 7.86211 20.4415 -8.94963
327 1 6.28969 6.28969 18.8691 -8.94963
328 1 7.86211 7.86211 20.4415 -8.94963
329 1 9.43453 6.28969 18.8691 -8.94965
330 1 11.007 7.86211 20.4415 -8.94964
331 1 12.5794 6.28969 18.8691 -8.94971
332 1 14.1518 7.86211 20.4415 -8.94963
333 1 15.7242 6.28968 18.8691 -8.94961
334 1 17.2966 7.86211 20.4415 -8.94963
335 1 18.8691 6.28969 18.8691 -8.94963
336 1 20.4415 7.86211 20.4415 -8.94963
337 1 3.98019e-09 9.43453 18.8691 -8.94963
338 1 3.14484 9.43453 18.8691 -8.94964
339 1 6.28969 9.43453 18.8691 -8.94966
340 1 9.4345 9.4345 18.8691 -8.94936
341 1 12.5794 9.4345 18.8691 -8.94975
342 1 15.7242 9.43453 18.8691 -8.9497
343 1 18.8691 9.43453 18.8691 -8.94963
344 1 1.57242 11.007 1.57242 -8.94963
345 1 4.71726 11.007 1.57242 -8.94963
346 1 7.86211 11.007 1.57242 -8.94966
347 1 11.007 11.007 1.57237 -8.95027
348 1 14.1518 11.007 1.57242 -8.94963
349 1 17.2966 11.007 1.57242 -8.94963
350 1 20.4415 11.007 1.57242 -8.94963
351 1 22.0139 12.5794 2.48369e-16 -8.94963
352 1 1.57242 14.1518 1.57242 -8.94963
353 1 3.14484 12.5794 4.77926e-16 -8.94963
354 1 4.71726 14.1518 1.57242 -8.94963
355 1 6.28969 12.5794 2.88204e-16 -8.94963
356 1 7.86211 14.1518 1.57242 -8.94963
357 1 9.43453 12.5794 7.67767e-16 -8.94964
358 1 11.007 14.1518 1.57242 -8.94964
359 1 12.5794 12.5794 -3.22401e-17 -8.94965
360 1 14.1518 14.1518 1.57242 -8.94963
361 1 15.7242 12.5794 -1.64131e-16 -8.94963
362 1 17.2966 14.1518 1.57242 -8.94963
363 1 18.8691 12.5794 3.54151e-16 -8.94963
364 1 20.4415 14.1518 1.57242 -8.94963
365 1 22.0139 15.7242 5.18362e-16 -8.94963
366 1 1.57242 17.2966 1.57242 -8.94963
367 1 3.14484 15.7242 8.46681e-16 -8.94963
368 1 4.71726 17.2966 1.57242 -8.94963
369 1 6.28969 15.7242 6.11731e-16 -8.94963
370 1 7.86211 17.2966 1.57242 -8.94963
371 1 9.43453 15.7242 3.06199e-16 -8.94963
372 1 11.007 17.2966 1.57242 -8.94963
373 1 12.5794 15.7242 1.81043e-16 -8.94963
374 1 14.1518 17.2966 1.57242 -8.94963
375 1 15.7242 15.7242 -1.96193e-16 -8.94963
376 1 17.2966 17.2966 1.57242 -8.94963
377 1 18.8691 15.7242 4.37467e-16 -8.94963
378 1 20.4415 17.2966 1.57242 -8.94963
379 1 22.0139 18.8691 4.49321e-16 -8.94963
380 1 1.57242 20.4415 1.57242 -8.94963
381 1 3.14484 18.8691 4.35953e-16 -8.94963
382 1 4.71726 20.4415 1.57242 -8.94963
383 1 6.28969 18.8691 7.29248e-16 -8.94963
384 1 7.86211 20.4415 1.57242 -8.94963
385 1 9.43453 18.8691 2.29177e-16 -8.94963
386 1 11.007 20.4415 1.57242 -8.94963
387 1 12.5794 18.8691 1.34603e-16 -8.94963
388 1 14.1518 20.4415 1.57242 -8.94963
389 1 15.7242 18.8691 1.7286e-17 -8.94963
390 1 17.2966 20.4415 1.57242 -8.94963
391 1 18.8691 18.8691 5.87127e-16 -8.94963
392 1 20.4415 20.4415 1.57242 -8.94963
393 1 1.57242 11.007 4.71726 -8.94963
394 1 4.71727 11.007 4.71727 -8.94969
395 1 7.86214 11.007 4.71724 -8.95087
396 1 11.007 11.007 4.71489 -8.96614
397 1 14.1517 11.007 4.71731 -8.95136
398 1 17.2966 11.007 4.71726 -8.94962
399 1 20.4415 11.007 4.71726 -8.94963
400 1 3.98019e-09 12.5794 3.14484 -8.94963
401 1 1.57242 14.1518 4.71726 -8.94963
402 1 3.14484 12.5794 3.14484 -8.94964
403 1 4.71726 14.1518 4.71726 -8.94966
404 1 6.28969 12.5794 3.14484 -8.94966
405 1 7.86209 14.1518 4.71721 -8.94989
406 1 9.4345 12.5794 3.14481 -8.94936
407 1 11.0069 14.1517 4.7173 -8.95091
408 1 12.5794 12.5794 3.14478 -8.94975
409 1 14.1518 14.1518 4.71721 -8.94874
410 1 15.7242 12.5794 3.14485 -8.9497
411 1 17.2966 14.1518 4.71726 -8.94964
412 1 18.8691 12.5794 3.14484 -8.94963
413 1 20.4415 14.1518 4.71726 -8.94963
414 1 22.0139 15.7242 3.14484 -8.94963
415 1 1.57242 17.2966 4.71726 -8.94963
416 1 3.14484 15.7242 3.14484 -8.94963
417 1 4.71726 17.2966 4.71726 -8.94961
418 1 6.28969 15.7242 3.14484 -8.94963
419 1 7.86211 17.2966 4.71727 -8.94971
420 1 9.43453 15.7242 3.14484 -8.94965
421 1 11.0069 17.2966 4.71727 -8.94965
422 1 12.5794 15.7242 3.14485 -8.94971
423 1 14.1518 17.2966 4.71726 -8.94964
424 1 15.7242 15.7242 3.14484 -8.94961
425 1 17.2966 17.2966 4.71726 -8.94963
426 1 18.8691 15.7242 3.14484 -8.94963
427 1 20.4415 17.2966 4.71726 -8.94963
428 1 22.0139 18.8691 3.14484 -8.94963
429 1 1.57242 20.4415 4.71726 -8.94963
430 1 3.14484 18.8691 3.14484 -8.94963
431 1 4.71726 20.4415 4.71726 -8.94963
432 1 6.28969 18.8691 3.14484 -8.94963
433 1 7.86211 20.4415 4.71726 -8.94963
434 1 9.43453 18.8691 3.14484 -8.94963
435 1 11.007 20.4415 4.71726 -8.94963
436 1 12.5794 18.8691 3.14484 -8.94963
437 1 14.1518 20.4415 4.71726 -8.94963
438 1 15.7242 18.8691 3.14484 -8.94963
439 1 17.2966 20.4415 4.71726 -8.94963
440 1 18.8691 18.8691 3.14484 -8.94963
441 1 20.4415 20.4415 4.71726 -8.94963
442 1 1.57242 11.007 7.86211 -8.94965
443 1 4.71717 11.007 7.86209 -8.95024
444 1 7.85893 11.007 7.85956 -8.90968
445 1 11.0495 11.007 7.7745 -7.98757
446 1 14.1529 11.007 7.86205 -8.96031
447 1 17.2967 11.007 7.86211 -8.9499
448 1 20.4415 11.007 7.86211 -8.94964
449 1 22.0139 12.5794 6.28969 -8.94963
450 1 1.57242 14.1518 7.86211 -8.94964
451 1 3.14484 12.5794 6.28969 -8.94964
452 1 4.71722 14.1518 7.86209 -8.95001
453 1 6.28962 12.5794 6.28963 -8.94924
454 1 7.86013 14.1537 7.86009 -8.92062
455 1 9.43382 12.5801 6.2892 -8.94085
456 1 11.0076 14.1522 7.86142 -8.94158
457 1 12.5813 12.5814 6.28776 -8.92058
458 1 14.1519 14.1519 7.86199 -8.94836
459 1 15.7243 12.5794 6.28968 -8.95006
460 1 17.2966 14.1518 7.86211 -8.94964
461 1 18.8691 12.5794 6.28969 -8.94964
462 1 20.4415 14.1518 7.86211 -8.94963
463 1 22.0139 15.7242 6.28969 -8.94963
464 1 1.57242 17.2966 7.86211 -8.94963
465 1 3.14484 15.7242 6.28969 -8.94964
466 1 4.71727 17.2966 7.86211 -8.94968
467 1 6.28963 15.7243 6.28963 -8.94875
468 1 7.86208 17.2967 7.86208 -8.94981
469 1 9.43454 15.7242 6.28973 -8.95093
470 1 11.007 17.2967 7.86208 -8.94937
471 1 12.5794 15.7243 6.28967 -8.94996
472 1 14.1518 17.2966 7.86211 -8.94966
473 1 15.7242 15.7242 6.28968 -8.94964
474 1 17.2966 17.2966 7.86211 -8.94964
475 1 18.8691 15.7242 6.28969 -8.94963
476 1 20.4415 17.2966 7.86211 -8.94963
477 1 1.27997e-09 18.8691 6.28969 -8.94963
478 1 1.57242 20.4415 7.86211 -8.94963
479 1 3.14484 18.8691 6.28969 -8.94963
480 1 4.71726 20.4415 7.86211 -8.94963
481 1 6.28968 18.8691 6.28969 -8.94963
482 1 7.86211 20.4415 7.86211 -8.94964
483 1 9.43453 18.8691 6.28969 -8.94964
484 1 11.007 20.4415 7.86211 -8.94964
485 1 12.5794 18.8691 6.28969 -8.94963
486 1 14.1518 20.4415 7.86211 -8.94963
487 1 15.7242 18.8691 6.28969 -8.94963
488 1 17.2966 20.4415 7.86211 -8.94963
489 1 18.8691 18.8691 6.28969 -8.94963
490 1 20.4415 20.4415 7.86211 -8.94963
491 1 22.0139 12.5794 9.43453 -8.94964
492 1 3.14482 12.5794 9.43453 -8.94992
493 1 6.28847 12.5796 9.43448 -8.95801
494 1 9.39195 12.6667 9.43428 -7.95435
495 1 12.5843 12.5837 9.43264 -8.88752
496 1 15.7244 12.5794 9.43451 -8.9504
497 1 18.8691 12.5794 9.43453 -8.94966
498 1 22.0139 15.7242 9.43453 -8.94963
499 1 3.14484 15.7242 9.43453 -8.94963
500 1 6.28968 15.7242 9.43447 -8.95048
501 1 9.43451 15.7265 9.43458 -8.96719
502 1 12.5794 15.7243 9.43451 -8.95106
503 1 15.7242 15.7242 9.43453 -8.94972
504 1 18.8691 15.7242 9.43453 -8.94963
505 1 22.0139 18.8691 9.43453 -8.94963
506 1 3.14484 18.8691 9.43453 -8.94963
507 1 6.28969 18.8691 9.43453 -8.94963
508 1 9.43453 18.8691 9.43453 -8.95026
509 1 12.5794 18.8691 9.43453 -8.94966
510 1 15.7242 18.8691 9.43453 -8.94963
511 1 18.8691 18.8691 9.43453 -8.94963
688 3 10.2131 11.007 9.4266 3.92385
512 1 1.57242 11.007 11.007 -8.94967
513 1 4.71707 11.007 11.007 -8.95071
514 1 7.85562 11.007 11.007 -8.86588
515 1 11.1054 11.007 11.007 -6.74455
516 1 14.1543 11.007 11.007 -8.96606
517 1 17.2967 11.007 11.007 -8.95026
518 1 20.4415 11.007 11.007 -8.94965
519 1 1.57242 14.1518 11.007 -8.94965
520 1 4.71717 14.1518 11.007 -8.95031
521 1 7.8582 14.1555 11.007 -8.89154
522 1 11.0084 14.1527 11.007 -8.93249
523 1 14.1519 14.1519 11.007 -8.9493
524 1 17.2966 14.1518 11.007 -8.94965
525 1 20.4415 14.1518 11.007 -8.94963
526 1 1.57242 17.2966 11.007 -8.94963
527 1 4.71727 17.2966 11.007 -8.94978
528 1 7.86205 17.2968 11.007 -8.94983
529 1 11.007 17.2967 11.007 -8.94909
530 1 14.1518 17.2966 11.007 -8.94969
531 1 17.2966 17.2966 11.007 -8.94964
532 1 20.4415 17.2966 11.007 -8.94963
533 1 1.57242 20.4415 11.007 -8.94963
534 1 4.71726 20.4415 11.007 -8.94963
535 1 7.86211 20.4415 11.007 -8.94965
536 1 11.007 20.4415 11.007 -8.94964
537 1 14.1518 20.4415 11.007 -8.94963
538 1 17.2966 20.4415 11.007 -8.94963
539 1 20.4415 20.4415 11.007 -8.94963
540 1 1.57242 11.007 14.1518 -8.94965
541 1 4.71717 11.007 14.1518 -8.95024
542 1 7.85893 11.007 14.1543 -8.90968
543 1 11.0495 11.007 14.2394 -7.98757
544 1 14.1529 11.007 14.1519 -8.96031
545 1 17.2967 11.007 14.1518 -8.9499
546 1 20.4415 11.007 14.1518 -8.94964
547 1 22.0139 12.5794 12.5794 -8.94964
548 1 1.57242 14.1518 14.1518 -8.94964
549 1 3.14482 12.5794 12.5794 -8.94992
550 1 4.71722 14.1518 14.1518 -8.95001
551 1 6.28847 12.5796 12.5794 -8.95801
552 1 7.86013 14.1537 14.1538 -8.92062
553 1 9.39195 12.6667 12.5796 -7.95435
554 1 11.0076 14.1522 14.1525 -8.94158
555 1 12.5843 12.5837 12.5813 -8.88752
556 1 14.1519 14.1519 14.1519 -8.94836
557 1 15.7244 12.5794 12.5794 -8.9504
558 1 17.2966 14.1518 14.1518 -8.94964
559 1 18.8691 12.5794 12.5794 -8.94966
560 1 20.4415 14.1518 14.1518 -8.94963
561 1 22.0139 15.7242 12.5794 -8.94963
562 1 1.57242 17.2966 14.1518 -8.94963
563 1 3.14484 15.7242 12.5794 -8.94963
564 1 4.71727 17.2966 14.1518 -8.94968
565 1 6.28968 15.7242 12.5794 -8.95048
566 1 7.86208 17.2967 14.1518 -8.94981
567 1 9.43451 15.7265 12.5793 -8.96719
568 1 11.007 17.2967 14.1518 -8.94937
569 1 12.5794 15.7243 12.5794 -8.95106
570 1 14.1518 17.2966 14.1518 -8.94966
571 1 15.7242 15.7242 12.5794 -8.94972
572 1 17.2966 17.2966 14.1518 -8.94964
573 1 18.8691 15.7242 12.5794 -8.94963
574 1 20.4415 17.2966 14.1518 -8.94963
575 1 22.0139 18.8691 12.5794 -8.94963
576 1 1.57242 20.4415 14.1518 -8.94963
577 1 3.14484 18.8691 12.5794 -8.94963
578 1 4.71726 20.4415 14.1518 -8.94963
579 1 6.28969 18.8691 12.5794 -8.94963
580 1 7.86211 20.4415 14.1518 -8.94964
581 1 9.43453 18.8691 12.5794 -8.95026
582 1 11.007 20.4415 14.1518 -8.94964
583 1 12.5794 18.8691 12.5794 -8.94966
584 1 14.1518 20.4415 14.1518 -8.94963
585 1 15.7242 18.8691 12.5794 -8.94963
586 1 17.2966 20.4415 14.1518 -8.94963
587 1 18.8691 18.8691 12.5794 -8.94963
588 1 20.4415 20.4415 14.1518 -8.94963
589 1 1.57242 11.007 17.2966 -8.94963
590 1 4.71727 11.007 17.2966 -8.94969
591 1 7.86214 11.007 17.2967 -8.95087
592 1 11.007 11.007 17.299 -8.96614
593 1 14.1517 11.007 17.2966 -8.95136
594 1 17.2966 11.007 17.2966 -8.94962
595 1 20.4415 11.007 17.2966 -8.94963
596 1 22.0139 12.5794 15.7242 -8.94963
597 1 1.57242 14.1518 17.2966 -8.94963
598 1 3.14484 12.5794 15.7242 -8.94964
599 1 4.71726 14.1518 17.2966 -8.94966
600 1 6.28962 12.5794 15.7243 -8.94924
601 1 7.86209 14.1518 17.2967 -8.94989
602 1 9.43382 12.5801 15.7247 -8.94085
603 1 11.0069 14.1517 17.2966 -8.95091
604 1 12.5813 12.5814 15.7261 -8.92058
605 1 14.1518 14.1518 17.2967 -8.94874
606 1 15.7243 12.5794 15.7242 -8.95006
607 1 17.2966 14.1518 17.2966 -8.94964
608 1 18.8691 12.5794 15.7242 -8.94964
609 1 20.4415 14.1518 17.2966 -8.94963
610 1 22.0139 15.7242 15.7242 -8.94963
611 1 1.57242 17.2966 17.2966 -8.94963
612 1 3.14484 15.7242 15.7242 -8.94964
613 1 4.71726 17.2966 17.2966 -8.94961
614 1 6.28963 15.7243 15.7243 -8.94875
615 1 7.86211 17.2966 17.2966 -8.94971
616 1 9.43454 15.7242 15.7242 -8.95093
617 1 11.0069 17.2966 17.2966 -8.94965
618 1 12.5794 15.7243 15.7242 -8.94996
619 1 14.1518 17.2966 17.2966 -8.94964
620 1 15.7242 15.7242 15.7242 -8.94964
621 1 17.2966 17.2966 17.2966 -8.94963
622 1 18.8691 15.7242 15.7242 -8.94963
623 1 20.4415 17.2966 17.2966 -8.94963
624 1 1.27997e-09 18.8691 15.7242 -8.94963
625 1 1.57242 20.4415 17.2966 -8.94963
626 1 3.14484 18.8691 15.7242 -8.94963
627 1 4.71726 20.4415 17.2966 -8.94963
628 1 6.28968 18.8691 15.7242 -8.94963
629 1 7.86211 20.4415 17.2966 -8.94963
630 1 9.43453 18.8691 15.7242 -8.94964
631 1 11.007 20.4415 17.2966 -8.94963
632 1 12.5794 18.8691 15.7242 -8.94963
633 1 14.1518 20.4415 17.2966 -8.94963
634 1 15.7242 18.8691 15.7242 -8.94963
635 1 17.2966 20.4415 17.2966 -8.94963
636 1 18.8691 18.8691 15.7242 -8.94963
637 1 20.4415 20.4415 17.2966 -8.94963
638 1 1.57242 11.007 20.4415 -8.94963
639 1 4.71726 11.007 20.4415 -8.94963
640 1 7.86211 11.007 20.4415 -8.94966
641 1 11.007 11.007 20.4415 -8.95027
642 1 14.1518 11.007 20.4415 -8.94963
643 1 17.2966 11.007 20.4415 -8.94963
644 1 20.4415 11.007 20.4415 -8.94963
645 1 3.98019e-09 12.5794 18.8691 -8.94963
646 1 1.57242 14.1518 20.4415 -8.94963
647 1 3.14484 12.5794 18.8691 -8.94964
648 1 4.71726 14.1518 20.4415 -8.94963
649 1 6.28969 12.5794 18.8691 -8.94966
650 1 7.86211 14.1518 20.4415 -8.94963
651 1 9.4345 12.5794 18.8691 -8.94936
652 1 11.007 14.1518 20.4415 -8.94964
653 1 12.5794 12.5794 18.8691 -8.94975
654 1 14.1518 14.1518 20.4415 -8.94963
655 1 15.7242 12.5794 18.8691 -8.9497
656 1 17.2966 14.1518 20.4415 -8.94963
657 1 18.8691 12.5794 18.8691 -8.94963
658 1 20.4415 14.1518 20.4415 -8.94963
659 1 22.0139 15.7242 18.8691 -8.94963
660 1 1.57242 17.2966 20.4415 -8.94963
661 1 3.14484 15.7242 18.8691 -8.94963
662 1 4.71726 17.2966 20.4415 -8.94963
663 1 6.28969 15.7242 18.8691 -8.94963
664 1 7.86211 17.2966 20.4415 -8.94963
665 1 9.43453 15.7242 18.8691 -8.94965
666 1 11.007 17.2966 20.4415 -8.94963
667 1 12.5794 15.7242 18.8691 -8.94971
668 1 14.1518 17.2966 20.4415 -8.94963
669 1 15.7242 15.7242 18.8691 -8.94961
670 1 17.2966 17.2966 20.4415 -8.94963
671 1 18.8691 15.7242 18.8691 -8.94963
672 1 20.4415 17.2966 20.4415 -8.94963
673 1 22.0139 18.8691 18.8691 -8.94963
674 1 1.57242 20.4415 20.4415 -8.94963
675 1 3.14484 18.8691 18.8691 -8.94963
676 1 4.71726 20.4415 20.4415 -8.94963
677 1 6.28969 18.8691 18.8691 -8.94963
678 1 7.86211 20.4415 20.4415 -8.94963
679 1 9.43453 18.8691 18.8691 -8.94963
680 1 11.007 20.4415 20.4415 -8.94963
681 1 12.5794 18.8691 18.8691 -8.94963
682 1 14.1518 20.4415 20.4415 -8.94963
683 1 15.7242 18.8691 18.8691 -8.94963
684 1 17.2966 20.4415 20.4415 -8.94963
685 1 18.8691 18.8691 18.8691 -8.94963
686 1 20.4415 20.4415 20.4415 -8.94963
687 3 10.2131 11.007 12.5873 3.92385
