ITEM: TIMESTEP
42
ITEM: NUMBER OF ATOMS
688
ITEM: BOX BOUNDS pp pp pp
0.0000000000000000e+00 2.2013900999999997e+01
0.0000000000000000e+00 2.2013900999999997e+01
0.0000000000000000e+00 2.2013900999999997e+01
ITEM: ATOMS id type x y z c_pot
1 1 22.0139 3.19546e-16 1.06075e-15 -8.94963
2 1 1.57242 1.57242 1.57242 -8.94963
3 1 3.14484 7.84874e-16 3.57736e-16 -8.94963
4 1 4.71726 1.57242 1.57242 -8.94963
5 1 6.28969 5.81188e-16 1.13924e-15 -8.94963
6 1 7.86211 1.57242 1.57242 -8.94963
7 1 9.43453 1.13504e-15 9.43914e-16 -8.94963
8 1 11.007 1.57242 1.57242 -8.94963
9 1 12.5794 1.13911e-15 3.78789e-16 -8.94963
10 1 14.1518 1.57242 1.57242 -8.94963
11 1 15.7242 -6.32286e-16 -2.38559e-16 -8.94963
12 1 17.2966 1.57242 1.57242 -8.94963
13 1 18.8691 8.62832e-16 3.85792e-16 -8.94963
14 1 20.4415 1.57242 1.57242 -8.94963
15 1 22.0139 3.14484 6.71433e-16 -8.94963
16 1 1.57242 4.71726 1.57242 -8.94963
17 1 3.14484 3.14484 7.49486e-16 -8.94963
18 1 4.71726 4.71726 1.57242 -8.94963
19 1 6.28969 3.14484 1.50351e-15 -8.94963
20 1 7.86211 4.71726 1.57242 -8.94964
21 1 9.43453 3.14484 3.57077e-16 -8.94963
22 1 11.007 4.71726 1.57242 -8.94963
23 1 12.5794 3.14484 2.22839e-16 -8.94963
24 1 14.1518 4.71727 1.57242 -8.94965
25 1 15.7242 3.14484 8.79919e-17 -8.94963
26 1 17.2966 4.71726 1.57242 -8.94963
27 1 18.8691 3.14484 7.07843e-16 -8.94963
28 1 20.4415 4.71726 1.57242 -8.94963
29 1 22.0139 6.28969 1.25505e-15 -8.94963
30 1 1.57242 7.86211 1.57242 -8.94963
31 1 3.14484 6.28969 1.78425e-15 -8.94963
32 1 4.71726 7.86211 1.57242 -8.94964
33 1 6.28969 6.28969 1.0544e-15 -8.94963
34 1 7.8621 7.8621 1.57241 -8.94965
35 1 9.43453 6.28969 -5.58433e-18 -8.94964
36 1 11.0069 7.86211 1.57242 -8.94964
37 1 12.5794 6.28969 5.61569e-16 -8.94964
38 1 14.1518 7.8621 1.57241 -8.94963
39 1 15.7242 6.28969 -3.58669e-16 -8.94963
40 1 17.2966 7.86211 1.57242 -8.94965
41 1 18.8691 6.28969 8.51235e-16 -8.94963
42 1 20.4415 7.86211 1.57242 -8.94963
43 1 22.0139 9.43453 7.85996e-16 -8.94963
44 1 3.14484 9.43453 7.6117e-16 -8.94963
45 1 6.28969 9.43453 6.71208e-16 -8.94964
46 1 9.43452 9.43452 1.33011e-15 -8.94965
47 1 12.5794 9.43452 -1.69433e-16 -8.94973
48 1 15.7242 9.43453 -1.82134e-16 -8.94964
49 1 18.8691 9.43453 5.77088e-16 -8.94963
50 1 9.83442e-10 6.05909e-16 3.14484 -8.94963
51 1 1.57242 1.57242 4.71726 -8.94963
52 1 3.14484 -1.94867e-16 3.14484 -8.94963
53 1 4.71726 1.57242 4.71726 -8.94963
54 1 6.28969 1.49015e-15 3.14484 -8.94963
55 1 7.86211 1.57242 4.71726 -8.94963
56 1 9.43453 1.43565e-15 3.14484 -8.94963
57 1 11.007 1.57242 4.71726 -8.94963
58 1 12.5794 4.74611e-16 3.14484 -8.94963
59 1 14.1518 1.57242 4.71726 -8.94963
60 1 15.7242 3.15455e-17 3.14484 -8.94963
61 1 17.2966 1.57242 4.71726 -8.94963
62 1 18.8691 1.34299e-16 3.14484 -8.94963
63 1 20.4415 1.57242 4.71726 -8.94963
64 1 22.0139 3.14484 3.14484 -8.94963
65 1 1.57242 4.71726 4.71726 -8.94963
66 1 3.14484 3.14484 3.14484 -8.94963
67 1 4.71725 4.71725 4.71725 -8.94951
68 1 6.28969 3.14484 3.14484 -8.94965
69 1 7.86211 4.71727 4.71727 -8.94982
70 1 9.43453 3.14484 3.14484 -8.94963
71 1 11.0069 4.71727 4.71726 -8.94965
72 1 12.5794 3.14484 3.14484 -8.94963
73 1 14.1518 4.71725 4.71726 -8.94965
74 1 15.7242 3.14484 3.14484 -8.94963
75 1 17.2966 4.71726 4.71726 -8.94964
76 1 18.8691 3.14484 3.14484 -8.94963
77 1 20.4415 4.71726 4.71726 -8.94963
78 1 22.0139 6.28969 3.14484 -8.94963
79 1 1.57242 7.86211 4.71726 -8.94963
80 1 3.14484 6.28969 3.14484 -8.94964
81 1 4.71726 7.8621 4.71726 -8.94972
82 1 6.28968 6.28968 3.14483 -8.94964
83 1 7.862 7.86201 4.71698 -8.9504
84 1 9.43453 6.28968 3.14485 -8.94965
85 1 11.0069 7.86215 4.71723 -8.9513
86 1 12.5794 6.2897 3.14485 -8.94982
87 1 14.1521 7.86182 4.71697 -8.94695
88 1 15.7242 6.28968 3.14483 -8.9495
89 1 17.2966 7.8621 4.71726 -8.94966
90 1 18.8691 6.28969 3.14484 -8.94963
91 1 20.4415 7.86211 4.71726 -8.94963
92 1 3.4135e-08 9.43453 3.14484 -8.94963
93 1 3.14484 9.43453 3.14484 -8.94964
94 1 6.28968 9.43453 3.14484 -8.94971
95 1 9.43442 9.43441 3.14468 -8.94906
96 1 12.5795 9.4344 3.14454 -8.95025
97 1 15.7242 9.43453 3.14485 -8.94979
98 1 18.8691 9.43453 3.14484 -8.94963
99 1 22.0139 1.88289e-16 6.28969 -8.94963
100 1 1.57242 1.57242 7.86211 -8.94963
101 1 3.14484 2.1905e-16 6.28969 -8.94963
102 1 4.71726 1.57242 7.86211 -8.94963
103 1 6.28969 2.57005e-16 6.28969 -8.94964
104 1 7.8621 1.57241 7.8621 -8.94969
105 1 9.43453 1.00932e-15 6.28969 -8.94963
106 1 11.007 1.57241 7.8621 -8.94964
107 1 12.5794 7.93524e-16 6.28969 -8.94963
108 1 14.1518 1.57242 7.86211 -8.94964
109 1 15.7242 8.24823e-16 6.28969 -8.94963
110 1 17.2966 1.57242 7.86211 -8.94963
111 1 18.8691 1.1035e-15 6.28969 -8.94963
112 1 20.4415 1.57242 7.86211 -8.94963
113 1 1.22195e-08 3.14484 6.28969 -8.94963
114 1 1.57242 4.71726 7.86211 -8.94963
115 1 3.14484 3.14484 6.28969 -8.94964
116 1 4.71726 4.71726 7.8621 -8.94967
117 1 6.28968 3.14483 6.28968 -8.94964
118 1 7.86199 4.71698 7.86199 -8.95037
119 1 9.43453 3.14484 6.28969 -8.94964
120 1 11.0071 4.71711 7.86199 -8.94906
121 1 12.5794 3.14483 6.28968 -8.94965
122 1 14.1518 4.71725 7.8621 -8.94971
123 1 15.7242 3.14484 6.28969 -8.94963
124 1 17.2966 4.71727 7.86211 -8.94965
125 1 18.8691 3.14484 6.28969 -8.94963
126 1 20.4415 4.71726 7.86211 -8.94963
127 1 22.0139 6.28969 6.28969 -8.94963
128 1 1.57241 7.86211 7.86211 -8.94968
129 1 3.14483 6.28968 6.28968 -8.94966
130 1 4.71702 7.86204 7.86203 -8.95069
131 1 6.2894 6.2894 6.28939 -8.94697
132 1 7.85633 7.85662 7.85621 -8.9025
133 1 9.4346 6.28965 6.28973 -8.95135
134 1 11.0088 7.86097 7.86006 -8.93582
135 1 12.5795 6.28943 6.2896 -8.95056
136 1 14.1523 7.86166 7.86174 -8.94651
137 1 15.7242 6.28968 6.28967 -8.9496
138 1 17.2967 7.8621 7.8621 -8.94966
139 1 18.8691 6.28969 6.28969 -8.94963
140 1 20.4415 7.86211 7.86211 -8.94964
141 1 22.0139 9.43453 6.28969 -8.94964
142 1 3.14483 9.43453 6.28968 -8.94965
143 1 6.28944 9.43444 6.2895 -8.94903
144 1 9.43259 9.43238 6.28838 -8.93537
145 1 12.5852 9.42877 6.28399 -8.90211
146 1 15.7245 9.43446 6.28963 -8.95079
147 1 18.8691 9.43453 6.28968 -8.94968
148 1 -2.4638e-09 1.34102e-15 9.43453 -8.94963
149 1 3.14484 4.87163e-16 9.43453 -8.94963
150 1 6.28969 1.05072e-15 9.43453 -8.94964
151 1 9.43453 8.08223e-16 9.43453 -8.94974
152 1 12.5794 1.169e-15 9.43453 -8.94964
153 1 15.7242 6.89431e-16 9.43453 -8.94963
154 1 18.8691 7.33921e-16 9.43453 -8.94963
155 1 22.0139 3.14484 9.43453 -8.94963
156 1 3.14484 3.14484 9.43453 -8.94965
157 1 6.28968 3.14483 9.43452 -8.94961
158 1 9.43453 3.14464 9.43453 -8.95096
159 1 12.5794 3.14483 9.43452 -8.94969
160 1 15.7242 3.14484 9.43453 -8.94963
161 1 18.8691 3.14484 9.43453 -8.94963
162 1 22.0139 6.28969 9.43453 -8.94963
163 1 3.14483 6.28968 9.43452 -8.94963
164 1 6.28937 6.28936 9.43424 -8.94869
165 1 9.43447 6.2846 9.43458 -8.97426
166 1 12.5794 6.28934 9.43443 -8.95181
167 1 15.7242 6.28969 9.43452 -8.94972
168 1 18.8691 6.28969 9.43453 -8.94963
169 1 22.0139 9.43453 9.43453 -8.94967
170 1 3.14472 9.43453 9.43452 -8.9504
171 1 6.28634 9.434 9.43436 -8.96126
172 1 9.37419 9.3038 9.43465 -8.00117
173 1 12.5877 9.42615 9.42894 -8.86976
174 1 15.7247 9.43435 9.43446 -8.95057
175 1 18.8691 9.43452 9.43453 -8.94972
176 1 1.57242 1.57242 11.007 -8.94963
177 1 4.71727 1.57242 11.007 -8.94964
178 1 7.8621 1.5724 11.007 -8.94973
179 1 11.007 1.57241 11.007 -8.94966
180 1 14.1518 1.57242 11.007 -8.94964
181 1 17.2966 1.57242 11.007 -8.94963
182 1 20.4415 1.57242 11.007 -8.94963
183 1 1.57242 4.71726 11.007 -8.94963
184 1 4.71728 4.71728 11.007 -8.94996
185 1 7.86186 4.71667 11.007 -8.95069
186 1 11.0072 4.71694 11.007 -8.94848
187 1 14.1518 4.71725 11.007 -8.94979
188 1 17.2966 4.71727 11.007 -8.94965
189 1 20.4415 4.71726 11.007 -8.94963
190 1 1.57241 7.8621 11.007 -8.94974
191 1 4.71676 7.86197 11.007 -8.95151
192 1 7.85074 7.8513 11.007 -8.85463
193 1 11.0109 7.85964 11.007 -8.92107
194 1 14.1523 7.86176 11.007 -8.94982
195 1 17.2967 7.86209 11.007 -8.94964
196 1 20.4415 7.86211 11.007 -8.94964
197 1 -2.46379e-09 1.38055e-15 12.5794 -8.94963
198 1 1.57242 1.57242 14.1518 -8.94963
199 1 3.14484 4.86423e-16 12.5794 -8.94963
200 1 4.71726 1.57242 14.1518 -8.94963
201 1 6.28969 1.07897e-15 12.5794 -8.94964
202 1 7.8621 1.57241 14.1518 -8.94969
203 1 9.43453 8.98356e-16 12.5794 -8.94974
204 1 11.007 1.57241 14.1518 -8.94964
205 1 12.5794 1.2919e-15 12.5794 -8.94964
206 1 14.1518 1.57242 14.1518 -8.94964
207 1 15.7242 6.49257e-16 12.5794 -8.94963
208 1 17.2966 1.57242 14.1518 -8.94963
209 1 18.8691 7.39349e-16 12.5794 -8.94963
210 1 20.4415 1.57242 14.1518 -8.94963
211 1 22.0139 3.14484 12.5794 -8.94963
212 1 1.57242 4.71726 14.1518 -8.94963
213 1 3.14484 3.14484 12.5794 -8.94965
214 1 4.71726 4.71726 14.1518 -8.94967
215 1 6.28968 3.14483 12.5794 -8.94961
216 1 7.86199 4.71698 14.1519 -8.95037
217 1 9.43453 3.14464 12.5794 -8.95096
218 1 11.0071 4.71711 14.1519 -8.94906
219 1 12.5794 3.14483 12.5794 -8.94969
220 1 14.1518 4.71725 14.1518 -8.94971
221 1 15.7242 3.14484 12.5794 -8.94963
222 1 17.2966 4.71727 14.1518 -8.94965
223 1 18.8691 3.14484 12.5794 -8.94963
224 1 20.4415 4.71726 14.1518 -8.94963
225 1 22.0139 6.28969 12.5794 -8.94963
226 1 1.57241 7.86211 14.1518 -8.94968
227 1 3.14483 6.28968 12.5794 -8.94963
228 1 4.71702 7.86204 14.1519 -8.95069
229 1 6.28937 6.28936 12.5797 -8.94869
230 1 7.85633 7.85662 14.1577 -8.9025
231 1 9.43447 6.2846 12.5793 -8.97426
232 1 11.0088 7.86097 14.1538 -8.93582
233 1 12.5794 6.28934 12.5795 -8.95181
234 1 14.1523 7.86166 14.1522 -8.94651
235 1 15.7242 6.28969 12.5794 -8.94972
236 1 17.2967 7.8621 14.1518 -8.94966
237 1 18.8691 6.28969 12.5794 -8.94963
238 1 20.4415 7.86211 14.1518 -8.94964
239 1 22.0139 9.43453 12.5794 -8.94967
240 1 3.14472 9.43453 12.5794 -8.9504
241 1 6.28634 9.434 12.5795 -8.96126
242 1 9.37419 9.3038 12.5793 -8.00117
243 1 12.5877 9.42615 12.585 -8.86976
244 1 15.7247 9.43435 12.5794 -8.95057
245 1 18.8691 9.43452 12.5794 -8.94972
246 1 22.0139 1.76343e-16 15.7242 -8.94963
247 1 1.57242 1.57242 17.2966 -8.94963
248 1 3.14484 3.2916e-16 15.7242 -8.94963
249 1 4.71726 1.57242 17.2966 -8.94963
250 1 6.28969 2.37067e-16 15.7242 -8.94964
251 1 7.86211 1.57242 17.2966 -8.94963
252 1 9.43453 1.15235e-15 15.7242 -8.94963
253 1 11.007 1.57242 17.2966 -8.94963
254 1 12.5794 6.28161e-16 15.7242 -8.94963
255 1 14.1518 1.57242 17.2966 -8.94963
256 1 15.7242 9.58153e-16 15.7242 -8.94963
257 1 17.2966 1.57242 17.2966 -8.94963
258 1 18.8691 1.19581e-15 15.7242 -8.94963
259 1 20.4415 1.57242 17.2966 -8.94963
260 1 1.22195e-08 3.14484 15.7242 -8.94963
261 1 1.57242 4.71726 17.2966 -8.94963
262 1 3.14484 3.14484 15.7242 -8.94964
263 1 4.71725 4.71725 17.2966 -8.94951
264 1 6.28968 3.14483 15.7242 -8.94964
265 1 7.86211 4.71727 17.2966 -8.94982
266 1 9.43453 3.14484 15.7242 -8.94964
267 1 11.0069 4.71727 17.2966 -8.94965
268 1 12.5794 3.14483 15.7242 -8.94965
269 1 14.1518 4.71725 17.2966 -8.94965
270 1 15.7242 3.14484 15.7242 -8.94963
271 1 17.2966 4.71726 17.2966 -8.94964
272 1 18.8691 3.14484 15.7242 -8.94963
273 1 20.4415 4.71726 17.2966 -8.94963
274 1 22.0139 6.28969 15.7242 -8.94963
275 1 1.57242 7.86211 17.2966 -8.94963
276 1 3.14483 6.28968 15.7242 -8.94966
277 1 4.71726 7.8621 17.2966 -8.94972
278 1 6.2894 6.2894 15.7245 -8.94697
279 1 7.862 7.86201 17.2969 -8.9504
280 1 9.4346 6.28965 15.7242 -8.95135
281 1 11.0069 7.86215 17.2967 -8.9513
282 1 12.5795 6.28943 15.7243 -8.95056
283 1 14.1521 7.86182 17.2969 -8.94695
284 1 15.7242 6.28968 15.7242 -8.9496
285 1 17.2966 7.8621 17.2966 -8.94966
286 1 18.8691 6.28969 15.7242 -8.94963
287 1 20.4415 7.86211 17.2966 -8.94963
288 1 22.0139 9.43453 15.7242 -8.94964
289 1 3.14483 9.43453 15.7242 -8.94965
290 1 6.28944 9.43444 15.7244 -8.94903
291 1 9.43259 9.43238 15.7255 -8.93537
292 1 12.5852 9.42877 15.7299 -8.90211
293 1 15.7245 9.43446 15.7243 -8.95079
294 1 18.8691 9.43453 15.7242 -8.94968
295 1 9.83442e-10 4.99672e-16 18.8691 -8.94963
296 1 1.57242 1.57242 20.4415 -8.94963
297 1 3.14484 -1.96534e-16 18.8691 -8.94963
298 1 4.71726 1.57242 20.4415 -8.94963
299 1 6.28969 1.54214e-15 18.8691 -8.94963
300 1 7.86211 1.57242 20.4415 -8.94963
301 1 9.43453 1.45283e-15 18.8691 -8.94963
302 1 11.007 1.57242 20.4415 -8.94963
303 1 12.5794 4.72386e-16 18.8691 -8.94963
304 1 14.1518 1.57242 20.4415 -8.94963
305 1 15.7242 -1.06396e-16 18.8691 -8.94963
306 1 17.2966 1.57242 20.4415 -8.94963
307 1 18.8691 6.94902e-17 18.8691 -8.94963
308 1 20.4415 1.57242 20.4415 -8.94963
309 1 22.0139 3.14484 18.8691 -8.94963
310 1 1.57242 4.71726 20.4415 -8.94963
311 1 3.14484 3.14484 18.8691 -8.94963
312 1 4.71726 4.71726 20.4415 -8.94963
313 1 6.28969 3.14484 18.8691 -8.94965
314 1 7.86211 4.71726 20.4415 -8.94964
315 1 9.43453 3.14484 18.8691 -8.94963
316 1 11.007 4.71726 20.4415 -8.94963
317 1 12.5794 3.14484 18.8691 -8.94963
318 1 14.1518 4.71727 20.4415 -8.94965
319 1 15.7242 3.14484 18.8691 -8.94963
320 1 17.2966 4.71726 20.4415 -8.94963
321 1 18.8691 3.14484 18.8691 -8.94963
322 1 20.4415 4.71726 20.4415 -8.94963
323 1 22.0139 6.28969 18.8691 -8.94963
324 1 1.57242 7.86211 20.4415 -8.94963
325 1 3.14484 6.28969 18.8691 -8.94964
326 1 4.71726 7.86211 20.4415 -8.94964
327 1 6.28968 6.28968 18.8691 -8.94964
328 1 7.8621 7.8621 20.4415 -8.94965
329 1 9.43453 6.28968 18.8691 -8.94965
330 1 11.0069 7.86211 20.4415 -8.94964
331 1 12.5794 6.2897 18.869 -8.94982
332 1 14.1518 7.8621 20.4415 -8.94963
333 1 15.7242 6.28968 18.8691 -8.9495
334 1 17.2966 7.86211 20.4415 -8.94965
335 1 18.8691 6.28969 18.8691 -8.94963
336 1 20.4415 7.86211 20.4415 -8.94963
337 1 3.4135e-08 9.43453 18.8691 -8.94963
338 1 3.14484 9.43453 18.8691 -8.94964
339 1 6.28968 9.43453 18.8691 -8.94971
340 1 9.43442 9.43441 18.8692 -8.94906
341 1 12.5795 9.4344 18.8694 -8.95025
342 1 15.7242 9.43453 18.869 -8.94979
343 1 18.8691 9.43453 18.8691 -8.94963
344 1 1.57242 11.007 1.57242 -8.94963
345 1 4.71726 11.007 1.57242 -8.94963
346 1 7.86211 11.007 1.57242 -8.94968
347 1 11.0069 11.007 1.57222 -8.95103
348 1 14.1518 11.007 1.57242 -8.94962
349 1 17.2966 11.007 1.57242 -8.94964
350 1 20.4415 11.007 1.57242 -8.94963
351 1 22.0139 12.5794 7.09389e-16 -8.94963
352 1 1.57242 14.1518 1.57242 -8.94963
353 1 3.14484 12.5794 7.3679e-16 -8.94963
354 1 4.71726 14.1518 1.57242 -8.94964
355 1 6.28969 12.5794 6.2899e-16 -8.94964
356 1 7.8621 14.1518 1.57241 -8.94965
357 1 9.43452 12.5794 1.25848e-15 -8.94965
358 1 11.0069 14.1518 1.57242 -8.94964
359 1 12.5794 12.5794 -1.52821e-16 -8.94973
360 1 14.1518 14.1518 1.57241 -8.94963
361 1 15.7242 12.5794 -2.03694e-16 -8.94964
362 1 17.2966 14.1518 1.57242 -8.94965
363 1 18.8691 12.5794 8.57361e-16 -8.94963
364 1 20.4415 14.1518 1.57242 -8.94963
365 1 22.0139 15.7242 1.13126e-15 -8.94963
366 1 1.57242 17.2966 1.57242 -8.94963
367 1 3.14484 15.7242 1.64456e-15 -8.94963
368 1 4.71726 17.2966 1.57242 -8.94963
369 1 6.28969 15.7242 1.17983e-15 -8.94963
370 1 7.86211 17.2966 1.57242 -8.94964
371 1 9.43453 15.7242 2.49698e-16 -8.94964
372 1 11.007 17.2966 1.57242 -8.94963
373 1 12.5794 15.7242 4.28946e-16 -8.94964
374 1 14.1518 17.2966 1.57242 -8.94965
375 1 15.7242 15.7242 -5.071e-16 -8.94963
376 1 17.2966 17.2966 1.57242 -8.94963
377 1 18.8691 15.7242 9.64739e-16 -8.94963
378 1 20.4415 17.2966 1.57242 -8.94963
379 1 22.0139 18.8691 7.00211e-16 -8.94963
380 1 1.57242 20.4415 1.57242 -8.94963
381 1 3.14484 18.8691 8.4031e-16 -8.94963
382 1 4.71726 20.4415 1.57242 -8.94963
383 1 6.28969 18.8691 1.24958e-15 -8.94963
384 1 7.86211 20.4415 1.57242 -8.94963
385 1 9.43453 18.8691 2.88628e-16 -8.94963
386 1 11.007 20.4415 1.57242 -8.94963
387 1 12.5794 18.8691 1.92886e-16 -8.94963
388 1 14.1518 20.4415 1.57242 -8.94963
389 1 15.7242 18.8691 1.28349e-16 -8.94963
390 1 17.2966 20.4415 1.57242 -8.94963
391 1 18.8691 18.8691 1.10038e-15 -8.94963
392 1 20.4415 20.4415 1.57242 -8.94963
393 1 1.57242 11.007 4.71726 -8.94963
394 1 4.71728 11.007 4.71727 -8.94964
395 1 7.86217 11.007 4.71718 -8.95127
396 1 11.0071 11.007 4.7121 -8.97294
397 1 14.1518 11.007 4.71722 -8.95137
398 1 17.2966 11.007 4.71726 -8.94962
399 1 20.4415 11.007 4.71726 -8.94963
400 1 3.4135e-08 12.5794 3.14484 -8.94963
401 1 1.57242 14.1518 4.71726 -8.94963
402 1 3.14484 12.5794 3.14484 -8.94964
403 1 4.71726 14.1518 4.71726 -8.94972
404 1 6.28968 12.5794 3.14484 -8.94971
405 1 7.862 14.1519 4.71698 -8.9504
406 1 9.43442 12.5795 3.14468 -8.94906
407 1 11.0069 14.1518 4.71723 -8.9513
408 1 12.5795 12.5795 3.14454 -8.95025
409 1 14.1521 14.1521 4.71697 -8.94695
410 1 15.7242 12.5794 3.14485 -8.94979
411 1 17.2966 14.1518 4.71726 -8.94966
412 1 18.8691 12.5794 3.14484 -8.94963
413 1 20.4415 14.1518 4.71726 -8.94963
414 1 22.0139 15.7242 3.14484 -8.94963
415 1 1.57242 17.2966 4.71726 -8.94963
416 1 3.14484 15.7242 3.14484 -8.94964
417 1 4.71725 17.2966 4.71725 -8.94951
418 1 6.28968 15.7242 3.14483 -8.94964
419 1 7.86211 17.2966 4.71727 -8.94982
420 1 9.43453 15.7242 3.14485 -8.94965
421 1 11.0069 17.2966 4.71726 -8.94965
422 1 12.5794 15.7242 3.14485 -8.94982
423 1 14.1518 17.2966 4.71726 -8.94965
424 1 15.7242 15.7242 3.14483 -8.9495
425 1 17.2966 17.2966 4.71726 -8.94964
426 1 18.8691 15.7242 3.14484 -8.94963
427 1 20.4415 17.2966 4.71726 -8.94963
428 1 22.0139 18.8691 3.14484 -8.94963
429 1 1.57242 20.4415 4.71726 -8.94963
430 1 3.14484 18.8691 3.14484 -8.94963
431 1 4.71726 20.4415 4.71726 -8.94963
432 1 6.28969 18.8691 3.14484 -8.94965
433 1 7.86211 20.4415 4.71726 -8.94963
434 1 9.43453 18.8691 3.14484 -8.94963
435 1 11.007 20.4415 4.71726 -8.94963
436 1 12.5794 18.8691 3.14484 -8.94963
437 1 14.1518 20.4415 4.71726 -8.94963
438 1 15.7242 18.8691 3.14484 -8.94963
439 1 17.2966 20.4415 4.71726 -8.94963
440 1 18.8691 18.8691 3.14484 -8.94963
441 1 20.4415 20.4415 4.71726 -8.94963
442 1 1.57241 11.007 7.8621 -8.94967
443 1 4.717 11.007 7.86201 -8.94972
444 1 7.85856 11.007 7.85877 -8.90246
445 1 11.0684 11.007 7.73192 -8.05483
446 1 14.1549 11.007 7.86181 -8.96445
447 1 17.2968 11.007 7.86211 -8.95034
448 1 20.4415 11.007 7.86211 -8.94966
449 1 22.0139 12.5794 6.28969 -8.94964
450 1 1.57241 14.1518 7.86211 -8.94968
451 1 3.14483 12.5794 6.28968 -8.94965
452 1 4.71702 14.1519 7.86203 -8.95069
453 1 6.28944 12.5795 6.2895 -8.94903
454 1 7.85633 14.1573 7.85621 -8.9025
455 1 9.43259 12.5815 6.28838 -8.93537
456 1 11.0088 14.1529 7.86006 -8.93582
457 1 12.5852 12.5851 6.28399 -8.90211
458 1 14.1523 14.1522 7.86174 -8.94651
459 1 15.7245 12.5794 6.28963 -8.95079
460 1 17.2967 14.1518 7.8621 -8.94966
461 1 18.8691 12.5794 6.28968 -8.94968
462 1 20.4415 14.1518 7.86211 -8.94964
463 1 22.0139 15.7242 6.28969 -8.94963
464 1 1.57242 17.2966 7.86211 -8.94963
465 1 3.14483 15.7242 6.28968 -8.94966
466 1 4.71726 17.2966 7.8621 -8.94967
467 1 6.2894 15.7245 6.28939 -8.94697
468 1 7.86199 17.2969 7.86199 -8.95037
469 1 9.4346 15.7243 6.28973 -8.95135
470 1 11.0071 17.2968 7.86199 -8.94906
471 1 12.5795 15.7245 6.2896 -8.95056
472 1 14.1518 17.2967 7.8621 -8.94971
473 1 15.7242 15.7242 6.28967 -8.9496
474 1 17.2966 17.2966 7.86211 -8.94965
475 1 18.8691 15.7242 6.28969 -8.94963
476 1 20.4415 17.2966 7.86211 -8.94963
477 1 1.22195e-08 18.8691 6.28969 -8.94963
478 1 1.57242 20.4415 7.86211 -8.94963
479 1 3.14484 18.8691 6.28969 -8.94964
480 1 4.71726 20.4415 7.86211 -8.94963
481 1 6.28968 18.8691 6.28968 -8.94964
482 1 7.8621 20.4415 7.8621 -8.94969
483 1 9.43453 18.8691 6.28969 -8.94964
484 1 11.007 20.4415 7.8621 -8.94964
485 1 12.5794 18.8691 6.28968 -8.94965
486 1 14.1518 20.4415 7.86211 -8.94964
487 1 15.7242 18.8691 6.28969 -8.94963
488 1 17.2966 20.4415 7.86211 -8.94963
489 1 18.8691 18.8691 6.28969 -8.94963
490 1 20.4415 20.4415 7.86211 -8.94963
491 1 22.0139 12.5794 9.43453 -8.94967
492 1 3.14472 12.5794 9.43452 -8.9504
493 1 6.28634 12.5799 9.43436 -8.96126
494 1 9.37419 12.7101 9.43465 -8.00117
495 1 12.5877 12.5877 9.42894 -8.86976
496 1 15.7247 12.5796 9.43446 -8.95057
497 1 18.8691 12.5794 9.43453 -8.94972
498 1 22.0139 15.7242 9.43453 -8.94963
499 1 3.14483 15.7242 9.43452 -8.94963
500 1 6.28937 15.7245 9.43424 -8.94869
501 1 9.43447 15.7293 9.43458 -8.97426
502 1 12.5794 15.7246 9.43443 -8.95181
503 1 15.7242 15.7242 9.43452 -8.94972
504 1 18.8691 15.7242 9.43453 -8.94963
505 1 22.0139 18.8691 9.43453 -8.94963
506 1 3.14484 18.8691 9.43453 -8.94965
507 1 6.28968 18.8691 9.43452 -8.94961
508 1 9.43453 18.8693 9.43453 -8.95096
509 1 12.5794 18.8691 9.43452 -8.94969
510 1 15.7242 18.8691 9.43453 -8.94963
511 1 18.8691 18.8691 9.43453 -8.94963
688 3 10.2009 11.007 9.41596 3.34241
512 1 1.5724 11.007 11.007 -8.94972
513 1 4.71671 11.007 11.007 -8.94974
514 1 7.855 11.007 11.007 -8.84761
515 1 11.1624 11.007 11.007 -6.93769
516 1 14.1567 11.007 11.007 -8.97536
517 1 17.2969 11.007 11.007 -8.95082
518 1 20.4415 11.007 11.007 -8.94969
519 1 1.57241 14.1518 11.007 -8.94974
520 1 4.71676 14.1519 11.007 -8.95151
521 1 7.85074 14.1626 11.007 -8.85463
522 1 11.0109 14.1543 11.007 -8.92107
523 1 14.1523 14.1521 11.007 -8.94982
524 1 17.2967 14.1518 11.007 -8.94964
525 1 20.4415 14.1518 11.007 -8.94964
526 1 1.57242 17.2966 11.007 -8.94963
527 1 4.71728 17.2966 11.007 -8.94996
528 1 7.86186 17.2972 11.007 -8.95069
529 1 11.0072 17.297 11.007 -8.94848
530 1 14.1518 17.2967 11.007 -8.94979
531 1 17.2966 17.2966 11.007 -8.94965
532 1 20.4415 17.2966 11.007 -8.94963
533 1 1.57242 20.4415 11.007 -8.94963
534 1 4.71727 20.4415 11.007 -8.94964
535 1 7.8621 20.4415 11.007 -8.94973
536 1 11.007 20.4415 11.007 -8.94966
537 1 14.1518 20.4415 11.007 -8.94964
538 1 17.2966 20.4415 11.007 -8.94963
539 1 20.4415 20.4415 11.007 -8.94963
540 1 1.57241 11.007 14.1518 -8.94967
541 1 4.717 11.007 14.1519 -8.94972
542 1 7.85856 11.007 14.1551 -8.90246
543 1 11.0684 11.007 14.282 -8.05483
544 1 14.1549 11.007 14.1521 -8.96445
545 1 17.2968 11.007 14.1518 -8.95034
546 1 20.4415 11.007 14.1518 -8.94966
547 1 22.0139 12.5794 12.5794 -8.94967
548 1 1.57241 14.1518 14.1518 -8.94968
549 1 3.14472 12.5794 12.5794 -8.9504
550 1 4.71702 14.1519 14.1519 -8.95069
551 1 6.28634 12.5799 12.5795 -8.96126
552 1 7.85633 14.1573 14.1577 -8.9025
553 1 9.37419 12.7101 12.5793 -8.00117
554 1 11.0088 14.1529 14.1538 -8.93582
555 1 12.5877 12.5877 12.585 -8.86976
556 1 14.1523 14.1522 14.1522 -8.94651
557 1 15.7247 12.5796 12.5794 -8.95057
558 1 17.2967 14.1518 14.1518 -8.94966
559 1 18.8691 12.5794 12.5794 -8.94972
560 1 20.4415 14.1518 14.1518 -8.94964
561 1 22.0139 15.7242 12.5794 -8.94963
562 1 1.57242 17.2966 14.1518 -8.94963
563 1 3.14483 15.7242 12.5794 -8.94963
564 1 4.71726 17.2966 14.1518 -8.94967
565 1 6.28937 15.7245 12.5797 -8.94869
566 1 7.86199 17.2969 14.1519 -8.95037
567 1 9.43447 15.7293 12.5793 -8.97426
568 1 11.0071 17.2968 14.1519 -8.94906
569 1 12.5794 15.7246 12.5795 -8.95181
570 1 14.1518 17.2967 14.1518 -8.94971
571 1 15.7242 15.7242 12.5794 -8.94972
572 1 17.2966 17.2966 14.1518 -8.94965
573 1 18.8691 15.7242 12.5794 -8.94963
574 1 20.4415 17.2966 14.1518 -8.94963
575 1 22.0139 18.8691 12.5794 -8.94963
576 1 1.57242 20.4415 14.1518 -8.94963
577 1 3.14484 18.8691 12.5794 -8.94965
578 1 4.71726 20.4415 14.1518 -8.94963
579 1 6.28968 18.8691 12.5794 -8.94961
580 1 7.8621 20.4415 14.1518 -8.94969
581 1 9.43453 18.8693 12.5794 -8.95096
582 1 11.007 20.4415 14.1518 -8.94964
583 1 12.5794 18.8691 12.5794 -8.94969
584 1 14.1518 20.4415 14.1518 -8.94964
585 1 15.7242 18.8691 12.5794 -8.94963
586 1 17.2966 20.4415 14.1518 -8.94963
587 1 18.8691 18.8691 12.5794 -8.94963
588 1 20.4415 20.4415 14.1518 -8.94963
589 1 1.57242 11.007 17.2966 -8.94963
590 1 4.71728 11.007 17.2966 -8.94964
591 1 7.86217 11.007 17.2967 -8.95127
592 1 11.0071 11.007 17.3018 -8.97294
593 1 14.1518 11.007 17.2967 -8.95137
594 1 17.2966 11.007 17.2966 -8.94962
595 1 20.4415 11.007 17.2966 -8.94963
596 1 22.0139 12.5794 15.7242 -8.94964
597 1 1.57242 14.1518 17.2966 -8.94963
598 1 3.14483 12.5794 15.7242 -8.94965
599 1 4.71726 14.1518 17.2966 -8.94972
600 1 6.28944 12.5795 15.7244 -8.94903
601 1 7.862 14.1519 17.2969 -8.9504
602 1 9.43259 12.5815 15.7255 -8.93537
603 1 11.0069 14.1518 17.2967 -8.9513
604 1 12.5852 12.5851 15.7299 -8.90211
605 1 14.1521 14.1521 17.2969 -8.94695
606 1 15.7245 12.5794 15.7243 -8.95079
607 1 17.2966 14.1518 17.2966 -8.94966
608 1 18.8691 12.5794 15.7242 -8.94968
609 1 20.4415 14.1518 17.2966 -8.94963
610 1 22.0139 15.7242 15.7242 -8.94963
611 1 1.57242 17.2966 17.2966 -8.94963
612 1 3.14483 15.7242 15.7242 -8.94966
613 1 4.71725 17.2966 17.2966 -8.94951
614 1 6.2894 15.7245 15.7245 -8.94697
615 1 7.86211 17.2966 17.2966 -8.94982
616 1 9.4346 15.7243 15.7242 -8.95135
617 1 11.0069 17.2966 17.2966 -8.94965
618 1 12.5795 15.7245 15.7243 -8.95056
619 1 14.1518 17.2966 17.2966 -8.94965
620 1 15.7242 15.7242 15.7242 -8.9496
621 1 17.2966 17.2966 17.2966 -8.94964
622 1 18.8691 15.7242 15.7242 -8.94963
623 1 20.4415 17.2966 17.2966 -8.94963
624 1 1.22195e-08 18.8691 15.7242 -8.94963
625 1 1.57242 20.4415 17.2966 -8.94963
626 1 3.14484 18.8691 15.7242 -8.94964
627 1 4.71726 20.4415 17.2966 -8.94963
628 1 6.28968 18.8691 15.7242 -8.94964
629 1 7.86211 20.4415 17.2966 -8.94963
630 1 9.43453 18.8691 15.7242 -8.94964
631 1 11.007 20.4415 17.2966 -8.94963
632 1 12.5794 18.8691 15.7242 -8.94965
633 1 14.1518 20.4415 17.2966 -8.94963
634 1 15.7242 18.8691 15.7242 -8.94963
635 1 17.2966 20.4415 17.2966 -8.94963
636 1 18.8691 18.8691 15.7242 -8.94963
637 1 20.4415 20.4415 17.2966 -8.94963
638 1 1.57242 11.007 20.4415 -8.94963
639 1 4.71726 11.007 20.4415 -8.94963
640 1 7.86211 11.007 20.4415 -8.94968
641 1 11.0069 11.007 20.4417 -8.95103
642 1 14.1518 11.007 20.4415 -8.94962
643 1 17.2966 11.007 20.4415 -8.94964
644 1 20.4415 11.007 20.4415 -8.94963
645 1 3.4135e-08 12.5794 18.8691 -8.94963
646 1 1.57242 14.1518 20.4415 -8.94963
647 1 3.14484 12.5794 18.8691 -8.94964
648 1 4.71726 14.1518 20.4415 -8.94964
649 1 6.28968 12.5794 18.8691 -8.94971
650 1 7.8621 14.1518 20.4415 -8.94965
651 1 9.43442 12.5795 18.8692 -8.94906
652 1 11.0069 14.1518 20.4415 -8.94964
653 1 12.5795 12.5795 18.8694 -8.95025
654 1 14.1518 14.1518 20.4415 -8.94963
655 1 15.7242 12.5794 18.869 -8.94979
656 1 17.2966 14.1518 20.4415 -8.94965
657 1 18.8691 12.5794 18.8691 -8.94963
658 1 20.4415 14.1518 20.4415 -8.94963
659 1 22.0139 15.7242 18.8691 -8.94963
660 1 1.57242 17.2966 20.4415 -8.94963
661 1 3.14484 15.7242 18.8691 -8.94964
662 1 4.71726 17.2966 20.4415 -8.94963
663 1 6.28968 15.7242 18.8691 -8.94964
664 1 7.86211 17.2966 20.4415 -8.94964
665 1 9.43453 15.7242 18.8691 -8.94965
666 1 11.007 17.2966 20.4415 -8.94963
667 1 12.5794 15.7242 18.869 -8.94982
668 1 14.1518 17.2966 20.4415 -8.94965
669 1 15.7242 15.7242 18.8691 -8.9495
670 1 17.2966 17.2966 20.4415 -8.94963
671 1 18.8691 15.7242 18.8691 -8.94963
672 1 20.4415 17.2966 20.4415 -8.94963
673 1 22.0139 18.8691 18.8691 -8.94963
674 1 1.57242 20.4415 20.4415 -8.94963
675 1 3.14484 18.8691 18.8691 -8.94963
676 1 4.71726 20.4415 20.4415 -8.94963
677 1 6.28969 18.8691 18.8691 -8.94965
678 1 7.86211 20.4415 20.4415 -8.94963
679 1 9.43453 18.8691 18.8691 -8.94963
680 1 11.007 20.4415 20.4415 -8.94963
681 1 12.5794 18.8691 18.8691 -8.94963
682 1 14.1518 20.4415 20.4415 -8.94963
683 1 15.7242 18.8691 18.8691 -8.94963
684 1 17.2966 20.4415 20.4415 -8.94963
685 1 18.8691 18.8691 18.8691 -8.94963
686 1 20.4415 20.4415 20.4415 -8.94963
687 3 10.2009 11.007 12.5979 3.34241
