ITEM: TIMESTEP
28
ITEM: NUMBER OF ATOMS
688
ITEM: BOX BOUNDS pp pp pp
0.0000000000000000e+00 2.2013900999999997e+01
0.0000000000000000e+00 2.2013900999999997e+01
0.0000000000000000e+00 2.2013900999999997e+01
ITEM: ATOMS id type x y z c_pot
1 1 22.0139 1.00807e-16 1.89262e-16 -8.94963
2 1 1.57242 1.57242 1.57242 -8.94963
3 1 3.14484 1.8173e-16 1.45845e-16 -8.94963
4 1 4.71726 1.57242 1.57242 -8.94963
5 1 6.28969 1.32969e-16 2.25543e-16 -8.94963
6 1 7.86211 1.57242 1.57242 -8.94963
7 1 9.43453 2.48993e-16 2.56619e-16 -8.94963
8 1 11.007 1.57242 1.57242 -8.94963
9 1 12.5794 2.62641e-16 1.59681e-16 -8.94963
10 1 14.1518 1.57242 1.57242 -8.94963
11 1 15.7242 -6.82196e-17 3.35305e-17 -8.94963
12 1 17.2966 1.57242 1.57242 -8.94963
13 1 18.8691 1.39493e-16 5.85556e-17 -8.94963
14 1 20.4415 1.57242 1.57242 -8.94963
15 1 22.0139 3.14484 1.96635e-16 -8.94963
16 1 1.57242 4.71726 1.57242 -8.94963
17 1 3.14484 3.14484 1.95064e-16 -8.94963
18 1 4.71726 4.71726 1.57242 -8.94963
19 1 6.28969 3.14484 3.67594e-16 -8.94963
20 1 7.86211 4.71726 1.57242 -8.94963
21 1 9.43453 3.14484 1.81467e-16 -8.94963
22 1 11.007 4.71726 1.57242 -8.94963
23 1 12.5794 3.14484 7.14865e-17 -8.94963
24 1 14.1518 4.71726 1.57242 -8.94963
25 1 15.7242 3.14484 -1.78028e-17 -8.94963
26 1 17.2966 4.71726 1.57242 -8.94963
27 1 18.8691 3.14484 1.7066e-16 -8.94963
28 1 20.4415 4.71726 1.57242 -8.94963
29 1 22.0139 6.28969 2.67507e-16 -8.94963
30 1 1.57242 7.86211 1.57242 -8.94963
31 1 3.14484 6.28969 3.91483e-16 -8.94963
32 1 4.71726 7.86211 1.57242 -8.94963
33 1 6.28969 6.28969 2.62672e-16 -8.94963
34 1 7.86211 7.86211 1.57242 -8.94963
35 1 9.43453 6.28969 2.23372e-16 -8.94963
36 1 11.007 7.86211 1.57242 -8.94963
37 1 12.5794 6.28969 9.32573e-17 -8.94963
38 1 14.1518 7.86211 1.57242 -8.94963
39 1 15.7242 6.28969 4.3312e-17 -8.94963
40 1 17.2966 7.86211 1.57242 -8.94963
41 1 18.8691 6.28969 1.64286e-16 -8.94963
42 1 20.4415 7.86211 1.57242 -8.94963
43 1 22.0139 9.43453 1.2795e-16 -8.94963
44 1 3.14484 9.43453 2.48888e-16 -8.94963
45 1 6.28969 9.43453 1.79437e-16 -8.94963
46 1 9.43453 9.43453 3.61182e-16 -8.94963
47 1 12.5794 9.43453 1.19013e-16 -8.94964
48 1 15.7242 9.43453 -5.00209e-17 -8.94963
49 1 18.8691 9.43453 1.17667e-16 -8.94963
50 1 4.79704e-13 1.07606e-16 3.14484 -8.94963
51 1 1.57242 1.57242 4.71726 -8.94963
52 1 3.14484 4.49213e-17 3.14484 -8.94963
53 1 4.71726 1.57242 4.71726 -8.94963
54 1 6.28969 2.71463e-16 3.14484 -8.94963
55 1 7.86211 1.57242 4.71726 -8.94963
56 1 9.43453 2.63659e-16 3.14484 -8.94963
57 1 11.007 1.57242 4.71726 -8.94963
58 1 12.5794 2.1282e-16 3.14484 -8.94963
59 1 14.1518 1.57242 4.71726 -8.94963
60 1 15.7242 1.18381e-16 3.14484 -8.94963
61 1 17.2966 1.57242 4.71726 -8.94963
62 1 18.8691 4.61938e-17 3.14484 -8.94963
63 1 20.4415 1.57242 4.71726 -8.94963
64 1 22.0139 3.14484 3.14484 -8.94963
65 1 1.57242 4.71726 4.71726 -8.94963
66 1 3.14484 3.14484 3.14484 -8.94963
67 1 4.71726 4.71726 4.71726 -8.94963
68 1 6.28969 3.14484 3.14484 -8.94963
69 1 7.86211 4.71726 4.71726 -8.94965
70 1 9.43453 3.14484 3.14484 -8.94963
71 1 11.007 4.71726 4.71726 -8.94964
72 1 12.5794 3.14484 3.14484 -8.94963
73 1 14.1518 4.71726 4.71726 -8.94963
74 1 15.7242 3.14484 3.14484 -8.94963
75 1 17.2966 4.71726 4.71726 -8.94963
76 1 18.8691 3.14484 3.14484 -8.94963
77 1 20.4415 4.71726 4.71726 -8.94963
78 1 22.0139 6.28969 3.14484 -8.94963
79 1 1.57242 7.86211 4.71726 -8.94963
80 1 3.14484 6.28969 3.14484 -8.94963
81 1 4.71726 7.86211 4.71726 -8.94964
82 1 6.28969 6.28969 3.14484 -8.94963
83 1 7.8621 7.86211 4.71726 -8.94971
84 1 9.43453 6.28969 3.14484 -8.94964
85 1 11.0069 7.86213 4.71728 -8.9504
86 1 12.5794 6.28969 3.14484 -8.94965
87 1 14.1518 7.8621 4.71726 -8.94939
88 1 15.7242 6.28969 3.14484 -8.94963
89 1 17.2966 7.86211 4.71726 -8.94963
90 1 18.8691 6.28969 3.14484 -8.94963
91 1 20.4415 7.86211 4.71726 -8.94963
92 1 3.60427e-10 9.43453 3.14484 -8.94963
93 1 3.14484 9.43453 3.14484 -8.94963
94 1 6.28969 9.43453 3.14484 -8.94964
95 1 9.43452 9.43452 3.14484 -8.94956
96 1 12.5794 9.43452 3.14483 -8.94966
97 1 15.7242 9.43453 3.14484 -8.94966
98 1 18.8691 9.43453 3.14484 -8.94963
99 1 22.0139 1.42994e-16 6.28969 -8.94963
100 1 1.57242 1.57242 7.86211 -8.94963
101 1 3.14484 9.11628e-17 6.28969 -8.94963
102 1 4.71726 1.57242 7.86211 -8.94963
103 1 6.28969 1.54141e-16 6.28969 -8.94963
104 1 7.86211 1.57242 7.86211 -8.94963
105 1 9.43453 2.44239e-16 6.28969 -8.94963
106 1 11.007 1.57242 7.86211 -8.94963
107 1 12.5794 1.51253e-16 6.28969 -8.94963
108 1 14.1518 1.57242 7.86211 -8.94963
109 1 15.7242 2.05581e-16 6.28969 -8.94963
110 1 17.2966 1.57242 7.86211 -8.94963
111 1 18.8691 2.42769e-16 6.28969 -8.94963
112 1 20.4415 1.57242 7.86211 -8.94963
113 1 5.72985e-11 3.14484 6.28969 -8.94963
114 1 1.57242 4.71726 7.86211 -8.94963
115 1 3.14484 3.14484 6.28969 -8.94963
116 1 4.71726 4.71726 7.86211 -8.94965
117 1 6.28969 3.14484 6.28969 -8.94963
118 1 7.8621 4.71725 7.8621 -8.94968
119 1 9.43453 3.14484 6.28969 -8.94963
120 1 11.007 4.71726 7.8621 -8.94956
121 1 12.5794 3.14484 6.28969 -8.94963
122 1 14.1518 4.71726 7.86211 -8.94964
123 1 15.7242 3.14484 6.28969 -8.94963
124 1 17.2966 4.71726 7.86211 -8.94963
125 1 18.8691 3.14484 6.28969 -8.94963
126 1 20.4415 4.71726 7.86211 -8.94963
127 1 22.0139 6.28969 6.28969 -8.94963
128 1 1.57242 7.86211 7.86211 -8.94963
129 1 3.14484 6.28969 6.28969 -8.94963
130 1 4.71726 7.86211 7.8621 -8.94975
131 1 6.28968 6.28968 6.28968 -8.94939
132 1 7.86157 7.8616 7.86156 -8.93441
133 1 9.43453 6.2897 6.28971 -8.95041
134 1 11.0072 7.86199 7.86192 -8.9453
135 1 12.5794 6.28968 6.28968 -8.94973
136 1 14.1518 7.86209 7.86208 -8.94914
137 1 15.7242 6.28969 6.28969 -8.94964
138 1 17.2966 7.86211 7.86211 -8.94963
139 1 18.8691 6.28969 6.28969 -8.94963
140 1 20.4415 7.86211 7.86211 -8.94963
141 1 22.0139 9.43453 6.28969 -8.94963
142 1 3.14484 9.43453 6.28969 -8.94964
143 1 6.28967 9.43451 6.28967 -8.94939
144 1 9.43432 9.43431 6.28954 -8.94471
145 1 12.5799 9.43398 6.28917 -8.93439
146 1 15.7242 9.43453 6.28969 -8.94977
147 1 18.8691 9.43453 6.28969 -8.94963
148 1 3.8324e-11 2.53346e-16 9.43453 -8.94963
149 1 3.14484 1.2163e-16 9.43453 -8.94963
150 1 6.28969 2.43129e-16 9.43453 -8.94963
151 1 9.43453 1.38784e-16 9.43453 -8.94964
152 1 12.5794 2.83235e-16 9.43453 -8.94963
153 1 15.7242 1.92911e-16 9.43453 -8.94963
154 1 18.8691 1.34383e-16 9.43453 -8.94963
155 1 22.0139 3.14484 9.43453 -8.94963
156 1 3.14484 3.14484 9.43453 -8.94963
157 1 6.28969 3.14484 9.43453 -8.94963
158 1 9.43453 3.14484 9.43453 -8.94981
159 1 12.5794 3.14484 9.43453 -8.94964
160 1 15.7242 3.14484 9.43453 -8.94963
161 1 18.8691 3.14484 9.43453 -8.94963
162 1 22.0139 6.28969 9.43453 -8.94963
163 1 3.14484 6.28969 9.43453 -8.94963
164 1 6.2897 6.2897 9.43452 -8.95053
165 1 9.43452 6.28903 9.43455 -8.96138
166 1 12.5794 6.28967 9.43453 -8.95046
167 1 15.7242 6.28969 9.43453 -8.94969
168 1 18.8691 6.28969 9.43453 -8.94963
169 1 22.0139 9.43453 9.43453 -8.94963
170 1 3.14484 9.43453 9.43453 -8.94972
171 1 6.28934 9.43446 9.43452 -8.9549
172 1 9.4091 9.38341 9.43442 -7.86549
173 1 12.5821 9.43243 9.43402 -8.9
174 1 15.7243 9.43452 9.43453 -8.95021
175 1 18.8691 9.43453 9.43453 -8.94964
176 1 1.57242 1.57242 11.007 -8.94963
177 1 4.71726 1.57242 11.007 -8.94963
178 1 7.86211 1.57242 11.007 -8.94964
179 1 11.007 1.57242 11.007 -8.94963
180 1 14.1518 1.57242 11.007 -8.94963
181 1 17.2966 1.57242 11.007 -8.94963
182 1 20.4415 1.57242 11.007 -8.94963
183 1 1.57242 4.71726 11.007 -8.94963
184 1 4.71727 4.71727 11.007 -8.94968
185 1 7.8621 4.71724 11.007 -8.94968
186 1 11.007 4.71725 11.007 -8.94948
187 1 14.1518 4.71726 11.007 -8.94965
188 1 17.2966 4.71726 11.007 -8.94963
189 1 20.4415 4.71726 11.007 -8.94963
190 1 1.57242 7.86211 11.007 -8.94964
191 1 4.71725 7.86211 11.007 -8.94985
192 1 7.86104 7.86109 11.007 -8.91911
193 1 11.0074 7.86183 11.007 -8.94
194 1 14.1518 7.86208 11.007 -8.94926
195 1 17.2966 7.86211 11.007 -8.94964
196 1 20.4415 7.86211 11.007 -8.94963
197 1 3.8324e-11 2.5788e-16 12.5794 -8.94963
198 1 1.57242 1.57242 14.1518 -8.94963
199 1 3.14484 1.22223e-16 12.5794 -8.94963
200 1 4.71726 1.57242 14.1518 -8.94963
201 1 6.28969 2.4323e-16 12.5794 -8.94963
202 1 7.86211 1.57242 14.1518 -8.94963
203 1 9.43453 1.38348e-16 12.5794 -8.94964
204 1 11.007 1.57242 14.1518 -8.94963
205 1 12.5794 2.91261e-16 12.5794 -8.94963
206 1 14.1518 1.57242 14.1518 -8.94963
207 1 15.7242 1.83374e-16 12.5794 -8.94963
208 1 17.2966 1.57242 14.1518 -8.94963
209 1 18.8691 1.28917e-16 12.5794 -8.94963
210 1 20.4415 1.57242 14.1518 -8.94963
211 1 22.0139 3.14484 12.5794 -8.94963
212 1 1.57242 4.71726 14.1518 -8.94963
213 1 3.14484 3.14484 12.5794 -8.94963
214 1 4.71726 4.71726 14.1518 -8.94965
215 1 6.28969 3.14484 12.5794 -8.94963
216 1 7.8621 4.71725 14.1518 -8.94968
217 1 9.43453 3.14484 12.5794 -8.94981
218 1 11.007 4.71726 14.1518 -8.94956
219 1 12.5794 3.14484 12.5794 -8.94964
220 1 14.1518 4.71726 14.1518 -8.94964
221 1 15.7242 3.14484 12.5794 -8.94963
222 1 17.2966 4.71726 14.1518 -8.94963
223 1 18.8691 3.14484 12.5794 -8.94963
224 1 20.4415 4.71726 14.1518 -8.94963
225 1 22.0139 6.28969 12.5794 -8.94963
226 1 1.57242 7.86211 14.1518 -8.94963
227 1 3.14484 6.28969 12.5794 -8.94963
228 1 4.71726 7.86211 14.1518 -8.94975
229 1 6.2897 6.2897 12.5794 -8.95053
230 1 7.86157 7.8616 14.1523 -8.93441
231 1 9.43452 6.28903 12.5794 -8.96138
232 1 11.0072 7.86199 14.152 -8.9453
233 1 12.5794 6.28967 12.5794 -8.95046
234 1 14.1518 7.86209 14.1518 -8.94914
235 1 15.7242 6.28969 12.5794 -8.94969
236 1 17.2966 7.86211 14.1518 -8.94963
237 1 18.8691 6.28969 12.5794 -8.94963
238 1 20.4415 7.86211 14.1518 -8.94963
239 1 22.0139 9.43453 12.5794 -8.94963
240 1 3.14484 9.43453 12.5794 -8.94972
241 1 6.28934 9.43446 12.5794 -8.9549
242 1 9.4091 9.38341 12.5795 -7.86549
243 1 12.5821 9.43243 12.5799 -8.9
244 1 15.7243 9.43452 12.5794 -8.95021
245 1 18.8691 9.43453 12.5794 -8.94964
246 1 22.0139 1.01008e-16 15.7242 -8.94963
247 1 1.57242 1.57242 17.2966 -8.94963
248 1 3.14484 1.05955e-16 15.7242 -8.94963
249 1 4.71726 1.57242 17.2966 -8.94963
250 1 6.28969 1.58419e-16 15.7242 -8.94963
251 1 7.86211 1.57242 17.2966 -8.94963
252 1 9.43453 2.52871e-16 15.7242 -8.94963
253 1 11.007 1.57242 17.2966 -8.94963
254 1 12.5794 1.29336e-16 15.7242 -8.94963
255 1 14.1518 1.57242 17.2966 -8.94963
256 1 15.7242 2.16827e-16 15.7242 -8.94963
257 1 17.2966 1.57242 17.2966 -8.94963
258 1 18.8691 2.55923e-16 15.7242 -8.94963
259 1 20.4415 1.57242 17.2966 -8.94963
260 1 5.72985e-11 3.14484 15.7242 -8.94963
261 1 1.57242 4.71726 17.2966 -8.94963
262 1 3.14484 3.14484 15.7242 -8.94963
263 1 4.71726 4.71726 17.2966 -8.94963
264 1 6.28969 3.14484 15.7242 -8.94963
265 1 7.86211 4.71726 17.2966 -8.94965
266 1 9.43453 3.14484 15.7242 -8.94963
267 1 11.007 4.71726 17.2966 -8.94964
268 1 12.5794 3.14484 15.7242 -8.94963
269 1 14.1518 4.71726 17.2966 -8.94963
270 1 15.7242 3.14484 15.7242 -8.94963
271 1 17.2966 4.71726 17.2966 -8.94963
272 1 18.8691 3.14484 15.7242 -8.94963
273 1 20.4415 4.71726 17.2966 -8.94963
274 1 22.0139 6.28969 15.7242 -8.94963
275 1 1.57242 7.86211 17.2966 -8.94963
276 1 3.14484 6.28969 15.7242 -8.94963
277 1 4.71726 7.86211 17.2966 -8.94964
278 1 6.28968 6.28968 15.7242 -8.94939
279 1 7.8621 7.86211 17.2966 -8.94971
280 1 9.43453 6.2897 15.7242 -8.95041
281 1 11.0069 7.86213 17.2966 -8.9504
282 1 12.5794 6.28968 15.7242 -8.94973
283 1 14.1518 7.8621 17.2966 -8.94939
284 1 15.7242 6.28969 15.7242 -8.94964
285 1 17.2966 7.86211 17.2966 -8.94963
286 1 18.8691 6.28969 15.7242 -8.94963
287 1 20.4415 7.86211 17.2966 -8.94963
288 1 22.0139 9.43453 15.7242 -8.94963
289 1 3.14484 9.43453 15.7242 -8.94964
290 1 6.28967 9.43451 15.7242 -8.94939
291 1 9.43432 9.43431 15.7244 -8.94471
292 1 12.5799 9.43398 15.7247 -8.93439
293 1 15.7242 9.43453 15.7242 -8.94977
294 1 18.8691 9.43453 15.7242 -8.94963
295 1 4.79563e-13 1.06739e-16 18.8691 -8.94963
296 1 1.57242 1.57242 20.4415 -8.94963
297 1 3.14484 4.25685e-17 18.8691 -8.94963
298 1 4.71726 1.57242 20.4415 -8.94963
299 1 6.28969 2.78787e-16 18.8691 -8.94963
300 1 7.86211 1.57242 20.4415 -8.94963
301 1 9.43453 2.56095e-16 18.8691 -8.94963
302 1 11.007 1.57242 20.4415 -8.94963
303 1 12.5794 2.18629e-16 18.8691 -8.94963
304 1 14.1518 1.57242 20.4415 -8.94963
305 1 15.7242 1.10466e-16 18.8691 -8.94963
306 1 17.2966 1.57242 20.4415 -8.94963
307 1 18.8691 3.6446e-17 18.8691 -8.94963
308 1 20.4415 1.57242 20.4415 -8.94963
309 1 22.0139 3.14484 18.8691 -8.94963
310 1 1.57242 4.71726 20.4415 -8.94963
311 1 3.14484 3.14484 18.8691 -8.94963
312 1 4.71726 4.71726 20.4415 -8.94963
313 1 6.28969 3.14484 18.8691 -8.94963
314 1 7.86211 4.71726 20.4415 -8.94963
315 1 9.43453 3.14484 18.8691 -8.94963
316 1 11.007 4.71726 20.4415 -8.94963
317 1 12.5794 3.14484 18.8691 -8.94963
318 1 14.1518 4.71726 20.4415 -8.94963
319 1 15.7242 3.14484 18.8691 -8.94963
320 1 17.2966 4.71726 20.4415 -8.94963
321 1 18.8691 3.14484 18.8691 -8.94963
322 1 20.4415 4.71726 20.4415 -8.94963
323 1 22.0139 6.28969 18.8691 -8.94963
324 1 1.57242 7.86211 20.4415 -8.94963
325 1 3.14484 6.28969 18.8691 -8.94963
326 1 4.71726 7.86211 20.4415 -8.94963
327 1 6.28969 6.28969 18.8691 -8.94963
328 1 7.86211 7.86211 20.4415 -8.94963
329 1 9.43453 6.28969 18.8691 -8.94964
330 1 11.007 7.86211 20.4415 -8.94963
331 1 12.5794 6.28969 18.8691 -8.94965
332 1 14.1518 7.86211 20.4415 -8.94963
333 1 15.7242 6.28969 18.8691 -8.94963
334 1 17.2966 7.86211 20.4415 -8.94963
335 1 18.8691 6.28969 18.8691 -8.94963
336 1 20.4415 7.86211 20.4415 -8.94963
337 1 3.60427e-10 9.43453 18.8691 -8.94963
338 1 3.14484 9.43453 18.8691 -8.94963
339 1 6.28969 9.43453 18.8691 -8.94964
340 1 9.43452 9.43452 18.8691 -8.94956
341 1 12.5794 9.43452 18.8691 -8.94966
342 1 15.7242 9.43453 18.8691 -8.94966
343 1 18.8691 9.43453 18.8691 -8.94963
344 1 1.57242 11.007 1.57242 -8.94963
345 1 4.71726 11.007 1.57242 -8.94963
346 1 7.86211 11.007 1.57242 -8.94964
347 1 11.007 11.007 1.57241 -8.94981
348 1 14.1518 11.007 1.57242 -8.94963
349 1 17.2966 11.007 1.57242 -8.94963
350 1 20.4415 11.007 1.57242 -8.94963
351 1 22.0139 12.5794 1.27463e-16 -8.94963
352 1 1.57242 14.1518 1.57242 -8.94963
353 1 3.14484 12.5794 2.51982e-16 -8.94963
354 1 4.71726 14.1518 1.57242 -8.94963
355 1 6.28969 12.5794 1.79095e-16 -8.94963
356 1 7.86211 14.1518 1.57242 -8.94963
357 1 9.43453 12.5794 3.63955e-16 -8.94963
358 1 11.007 14.1518 1.57242 -8.94963
359 1 12.5794 12.5794 1.18319e-16 -8.94964
360 1 14.1518 14.1518 1.57242 -8.94963
361 1 15.7242 12.5794 -5.33964e-17 -8.94963
362 1 17.2966 14.1518 1.57242 -8.94963
363 1 18.8691 12.5794 1.74365e-16 -8.94963
364 1 20.4415 14.1518 1.57242 -8.94963
365 1 22.0139 15.7242 2.61615e-16 -8.94963
366 1 1.57242 17.2966 1.57242 -8.94963
367 1 3.14484 15.7242 3.83582e-16 -8.94963
368 1 4.71726 17.2966 1.57242 -8.94963
369 1 6.28969 15.7242 2.74424e-16 -8.94963
370 1 7.86211 17.2966 1.57242 -8.94963
371 1 9.43453 15.7242 2.46625e-16 -8.94963
372 1 11.007 17.2966 1.57242 -8.94963
373 1 12.5794 15.7242 9.26971e-17 -8.94963
374 1 14.1518 17.2966 1.57242 -8.94963
375 1 15.7242 15.7242 4.19118e-17 -8.94963
376 1 17.2966 17.2966 1.57242 -8.94963
377 1 18.8691 15.7242 1.61575e-16 -8.94963
378 1 20.4415 17.2966 1.57242 -8.94963
379 1 22.0139 18.8691 2.08307e-16 -8.94963
380 1 1.57242 20.4415 1.57242 -8.94963
381 1 3.14484 18.8691 1.9939e-16 -8.94963
382 1 4.71726 20.4415 1.57242 -8.94963
383 1 6.28969 18.8691 3.51964e-16 -8.94963
384 1 7.86211 20.4415 1.57242 -8.94963
385 1 9.43453 18.8691 1.65159e-16 -8.94963
386 1 11.007 20.4415 1.57242 -8.94963
387 1 12.5794 18.8691 7.14099e-17 -8.94963
388 1 14.1518 20.4415 1.57242 -8.94963
389 1 15.7242 18.8691 -3.83701e-18 -8.94963
390 1 17.2966 20.4415 1.57242 -8.94963
391 1 18.8691 18.8691 1.83356e-16 -8.94963
392 1 20.4415 20.4415 1.57242 -8.94963
393 1 1.57242 11.007 4.71726 -8.94963
394 1 4.71727 11.007 4.71727 -8.94968
395 1 7.86212 11.007 4.71726 -8.9504
396 1 11.007 11.007 4.71658 -8.9607
397 1 14.1518 11.007 4.71729 -8.95077
398 1 17.2966 11.007 4.71726 -8.94963
399 1 20.4415 11.007 4.71726 -8.94963
400 1 3.60427e-10 12.5794 3.14484 -8.94963
401 1 1.57242 14.1518 4.71726 -8.94963
402 1 3.14484 12.5794 3.14484 -8.94963
403 1 4.71726 14.1518 4.71726 -8.94964
404 1 6.28969 12.5794 3.14484 -8.94964
405 1 7.8621 14.1518 4.71726 -8.94971
406 1 9.43452 12.5794 3.14484 -8.94956
407 1 11.0069 14.1518 4.71728 -8.9504
408 1 12.5794 12.5794 3.14483 -8.94966
409 1 14.1518 14.1518 4.71726 -8.94939
410 1 15.7242 12.5794 3.14484 -8.94966
411 1 17.2966 14.1518 4.71726 -8.94963
412 1 18.8691 12.5794 3.14484 -8.94963
413 1 20.4415 14.1518 4.71726 -8.94963
414 1 22.0139 15.7242 3.14484 -8.94963
415 1 1.57242 17.2966 4.71726 -8.94963
416 1 3.14484 15.7242 3.14484 -8.94963
417 1 4.71726 17.2966 4.71726 -8.94963
418 1 6.28969 15.7242 3.14484 -8.94963
419 1 7.86211 17.2966 4.71726 -8.94965
420 1 9.43453 15.7242 3.14484 -8.94964
421 1 11.007 17.2966 4.71726 -8.94964
422 1 12.5794 15.7242 3.14484 -8.94965
423 1 14.1518 17.2966 4.71726 -8.94963
424 1 15.7242 15.7242 3.14484 -8.94963
425 1 17.2966 17.2966 4.71726 -8.94963
426 1 18.8691 15.7242 3.14484 -8.94963
427 1 20.4415 17.2966 4.71726 -8.94963
428 1 22.0139 18.8691 3.14484 -8.94963
429 1 1.57242 20.4415 4.71726 -8.94963
430 1 3.14484 18.8691 3.14484 -8.94963
431 1 4.71726 20.4415 4.71726 -8.94963
432 1 6.28969 18.8691 3.14484 -8.94963
433 1 7.86211 20.4415 4.71726 -8.94963
434 1 9.43453 18.8691 3.14484 -8.94963
435 1 11.007 20.4415 4.71726 -8.94963
436 1 12.5794 18.8691 3.14484 -8.94963
437 1 14.1518 20.4415 4.71726 -8.94963
438 1 15.7242 18.8691 3.14484 -8.94963
439 1 17.2966 20.4415 4.71726 -8.94963
440 1 18.8691 18.8691 3.14484 -8.94963
441 1 20.4415 20.4415 4.71726 -8.94963
442 1 1.57242 11.007 7.86211 -8.94964
443 1 4.71724 11.007 7.86211 -8.95017
444 1 7.85995 11.007 7.86053 -8.91309
445 1 11.0323 11.007 7.8108 -7.88497
446 1 14.1521 11.007 7.8621 -8.95627
447 1 17.2966 11.007 7.86211 -8.94971
448 1 20.4415 11.007 7.86211 -8.94963
449 1 22.0139 12.5794 6.28969 -8.94963
450 1 1.57242 14.1518 7.86211 -8.94963
451 1 3.14484 12.5794 6.28969 -8.94964
452 1 4.71726 14.1518 7.8621 -8.94975
453 1 6.28967 12.5794 6.28967 -8.94939
454 1 7.86157 14.1523 7.86156 -8.93441
455 1 9.43432 12.5796 6.28954 -8.94471
456 1 11.0072 14.1519 7.86192 -8.9453
457 1 12.5799 12.5799 6.28917 -8.93439
458 1 14.1518 14.1518 7.86208 -8.94914
459 1 15.7242 12.5794 6.28969 -8.94977
460 1 17.2966 14.1518 7.86211 -8.94963
461 1 18.8691 12.5794 6.28969 -8.94963
462 1 20.4415 14.1518 7.86211 -8.94963
463 1 22.0139 15.7242 6.28969 -8.94963
464 1 1.57242 17.2966 7.86211 -8.94963
465 1 3.14484 15.7242 6.28969 -8.94963
466 1 4.71726 17.2966 7.86211 -8.94965
467 1 6.28968 15.7242 6.28968 -8.94939
468 1 7.8621 17.2966 7.8621 -8.94968
469 1 9.43453 15.7242 6.28971 -8.95041
470 1 11.007 17.2966 7.8621 -8.94956
471 1 12.5794 15.7242 6.28968 -8.94973
472 1 14.1518 17.2966 7.86211 -8.94964
473 1 15.7242 15.7242 6.28969 -8.94964
474 1 17.2966 17.2966 7.86211 -8.94963
475 1 18.8691 15.7242 6.28969 -8.94963
476 1 20.4415 17.2966 7.86211 -8.94963
477 1 5.72985e-11 18.8691 6.28969 -8.94963
478 1 1.57242 20.4415 7.86211 -8.94963
479 1 3.14484 18.8691 6.28969 -8.94963
480 1 4.71726 20.4415 7.86211 -8.94963
481 1 6.28969 18.8691 6.28969 -8.94963
482 1 7.86211 20.4415 7.86211 -8.94963
483 1 9.43453 18.8691 6.28969 -8.94963
484 1 11.007 20.4415 7.86211 -8.94963
485 1 12.5794 18.8691 6.28969 -8.94963
486 1 14.1518 20.4415 7.86211 -8.94963
487 1 15.7242 18.8691 6.28969 -8.94963
488 1 17.2966 20.4415 7.86211 -8.94963
489 1 18.8691 18.8691 6.28969 -8.94963
490 1 20.4415 20.4415 7.86211 -8.94963
491 1 22.0139 12.5794 9.43453 -8.94963
492 1 3.14484 12.5794 9.43453 -8.94972
493 1 6.28934 12.5794 9.43452 -8.9549
494 1 9.4091 12.6305 9.43442 -7.86549
495 1 12.5821 12.5815 9.43402 -8.9
496 1 15.7243 12.5794 9.43453 -8.95021
497 1 18.8691 12.5794 9.43453 -8.94964
498 1 22.0139 15.7242 9.43453 -8.94963
499 1 3.14484 15.7242 9.43453 -8.94963
500 1 6.2897 15.7242 9.43452 -8.95053
501 1 9.43452 15.7249 9.43455 -8.96138
502 1 12.5794 15.7242 9.43453 -8.95046
503 1 15.7242 15.7242 9.43453 -8.94969
504 1 18.8691 15.7242 9.43453 -8.94963
505 1 22.0139 18.8691 9.43453 -8.94963
506 1 3.14484 18.8691 9.43453 -8.94963
507 1 6.28969 18.8691 9.43453 -8.94963
508 1 9.43453 18.8691 9.43453 -8.94981
509 1 12.5794 18.8691 9.43453 -8.94964
510 1 15.7242 18.8691 9.43453 -8.94963
511 1 18.8691 18.8691 9.43453 -8.94963
688 3 10.2185 11.007 9.43214 4.48806
512 1 1.57242 11.007 11.007 -8.94965
513 1 4.71721 11.007 11.007 -8.95061
514 1 7.85775 11.007 11.007 -8.87482
515 1 11.0617 11.007 11.007 -6.57187
516 1 14.1525 11.007 11.007 -8.96023
517 1 17.2966 11.007 11.007 -8.94982
518 1 20.4415 11.007 11.007 -8.94963
519 1 1.57242 14.1518 11.007 -8.94964
520 1 4.71725 14.1518 11.007 -8.94985
521 1 7.86104 14.1528 11.007 -8.91911
522 1 11.0074 14.1521 11.007 -8.94
523 1 14.1518 14.1518 11.007 -8.94926
524 1 17.2966 14.1518 11.007 -8.94964
525 1 20.4415 14.1518 11.007 -8.94963
526 1 1.57242 17.2966 11.007 -8.94963
527 1 4.71727 17.2966 11.007 -8.94968
528 1 7.8621 17.2967 11.007 -8.94968
529 1 11.007 17.2966 11.007 -8.94948
530 1 14.1518 17.2966 11.007 -8.94965
531 1 17.2966 17.2966 11.007 -8.94963
532 1 20.4415 17.2966 11.007 -8.94963
533 1 1.57242 20.4415 11.007 -8.94963
534 1 4.71726 20.4415 11.007 -8.94963
535 1 7.86211 20.4415 11.007 -8.94964
536 1 11.007 20.4415 11.007 -8.94963
537 1 14.1518 20.4415 11.007 -8.94963
538 1 17.2966 20.4415 11.007 -8.94963
539 1 20.4415 20.4415 11.007 -8.94963
540 1 1.57242 11.007 14.1518 -8.94964
541 1 4.71724 11.007 14.1518 -8.95017
542 1 7.85995 11.007 14.1534 -8.91309
543 1 11.0323 11.007 14.2031 -7.88497
544 1 14.1521 11.007 14.1518 -8.95627
545 1 17.2966 11.007 14.1518 -8.94971
546 1 20.4415 11.007 14.1518 -8.94963
547 1 22.0139 12.5794 12.5794 -8.94963
548 1 1.57242 14.1518 14.1518 -8.94963
549 1 3.14484 12.5794 12.5794 -8.94972
550 1 4.71726 14.1518 14.1518 -8.94975
551 1 6.28934 12.5794 12.5794 -8.9549
552 1 7.86157 14.1523 14.1523 -8.93441
553 1 9.4091 12.6305 12.5795 -7.86549
554 1 11.0072 14.1519 14.152 -8.9453
555 1 12.5821 12.5815 12.5799 -8.9
556 1 14.1518 14.1518 14.1518 -8.94914
557 1 15.7243 12.5794 12.5794 -8.95021
558 1 17.2966 14.1518 14.1518 -8.94963
559 1 18.8691 12.5794 12.5794 -8.94964
560 1 20.4415 14.1518 14.1518 -8.94963
561 1 22.0139 15.7242 12.5794 -8.94963
562 1 1.57242 17.2966 14.1518 -8.94963
563 1 3.14484 15.7242 12.5794 -8.94963
564 1 4.71726 17.2966 14.1518 -8.94965
565 1 6.2897 15.7242 12.5794 -8.95053
566 1 7.8621 17.2966 14.1518 -8.94968
567 1 9.43452 15.7249 12.5794 -8.96138
568 1 11.007 17.2966 14.1518 -8.94956
569 1 12.5794 15.7242 12.5794 -8.95046
570 1 14.1518 17.2966 14.1518 -8.94964
571 1 15.7242 15.7242 12.5794 -8.94969
572 1 17.2966 17.2966 14.1518 -8.94963
573 1 18.8691 15.7242 12.5794 -8.94963
574 1 20.4415 17.2966 14.1518 -8.94963
575 1 22.0139 18.8691 12.5794 -8.94963
576 1 1.57242 20.4415 14.1518 -8.94963
577 1 3.14484 18.8691 12.5794 -8.94963
578 1 4.71726 20.4415 14.1518 -8.94963
579 1 6.28969 18.8691 12.5794 -8.94963
580 1 7.86211 20.4415 14.1518 -8.94963
581 1 9.43453 18.8691 12.5794 -8.94981
582 1 11.007 20.4415 14.1518 -8.94963
583 1 12.5794 18.8691 12.5794 -8.94964
584 1 14.1518 20.4415 14.1518 -8.94963
585 1 15.7242 18.8691 12.5794 -8.94963
586 1 17.2966 20.4415 14.1518 -8.94963
587 1 18.8691 18.8691 12.5794 -8.94963
588 1 20.4415 20.4415 14.1518 -8.94963
589 1 1.57242 11.007 17.2966 -8.94963
590 1 4.71727 11.007 17.2966 -8.94968
591 1 7.86212 11.007 17.2966 -8.9504
592 1 11.007 11.007 17.2973 -8.9607
593 1 14.1518 11.007 17.2966 -8.95077
594 1 17.2966 11.007 17.2966 -8.94963
595 1 20.4415 11.007 17.2966 -8.94963
596 1 22.0139 12.5794 15.7242 -8.94963
597 1 1.57242 14.1518 17.2966 -8.94963
598 1 3.14484 12.5794 15.7242 -8.94964
599 1 4.71726 14.1518 17.2966 -8.94964
600 1 6.28967 12.5794 15.7242 -8.94939
601 1 7.8621 14.1518 17.2966 -8.94971
602 1 9.43432 12.5796 15.7244 -8.94471
603 1 11.0069 14.1518 17.2966 -8.9504
604 1 12.5799 12.5799 15.7247 -8.93439
605 1 14.1518 14.1518 17.2966 -8.94939
606 1 15.7242 12.5794 15.7242 -8.94977
607 1 17.2966 14.1518 17.2966 -8.94963
608 1 18.8691 12.5794 15.7242 -8.94963
609 1 20.4415 14.1518 17.2966 -8.94963
610 1 22.0139 15.7242 15.7242 -8.94963
611 1 1.57242 17.2966 17.2966 -8.94963
612 1 3.14484 15.7242 15.7242 -8.94963
613 1 4.71726 17.2966 17.2966 -8.94963
614 1 6.28968 15.7242 15.7242 -8.94939
615 1 7.86211 17.2966 17.2966 -8.94965
616 1 9.43453 15.7242 15.7242 -8.95041
617 1 11.007 17.2966 17.2966 -8.94964
618 1 12.5794 15.7242 15.7242 -8.94973
619 1 14.1518 17.2966 17.2966 -8.94963
620 1 15.7242 15.7242 15.7242 -8.94964
621 1 17.2966 17.2966 17.2966 -8.94963
622 1 18.8691 15.7242 15.7242 -8.94963
623 1 20.4415 17.2966 17.2966 -8.94963
624 1 5.72985e-11 18.8691 15.7242 -8.94963
625 1 1.57242 20.4415 17.2966 -8.94963
626 1 3.14484 18.8691 15.7242 -8.94963
627 1 4.71726 20.4415 17.2966 -8.94963
628 1 6.28969 18.8691 15.7242 -8.94963
629 1 7.86211 20.4415 17.2966 -8.94963
630 1 9.43453 18.8691 15.7242 -8.94963
631 1 11.007 20.4415 17.2966 -8.94963
632 1 12.5794 18.8691 15.7242 -8.94963
633 1 14.1518 20.4415 17.2966 -8.94963
634 1 15.7242 18.8691 15.7242 -8.94963
635 1 17.2966 20.4415 17.2966 -8.94963
636 1 18.8691 18.8691 15.7242 -8.94963
637 1 20.4415 20.4415 17.2966 -8.94963
638 1 1.57242 11.007 20.4415 -8.94963
639 1 4.71726 11.007 20.4415 -8.94963
640 1 7.86211 11.007 20.4415 -8.94964
641 1 11.007 11.007 20.4415 -8.94981
642 1 14.1518 11.007 20.4415 -8.94963
643 1 17.2966 11.007 20.4415 -8.94963
644 1 20.4415 11.007 20.4415 -8.94963
645 1 3.60427e-10 12.5794 18.8691 -8.94963
646 1 1.57242 14.1518 20.4415 -8.94963
647 1 3.14484 12.5794 18.8691 -8.94963
648 1 4.71726 14.1518 20.4415 -8.94963
649 1 6.28969 12.5794 18.8691 -8.94964
650 1 7.86211 14.1518 20.4415 -8.94963
651 1 9.43452 12.5794 18.8691 -8.94956
652 1 11.007 14.1518 20.4415 -8.94963
653 1 12.5794 12.5794 18.8691 -8.94966
654 1 14.1518 14.1518 20.4415 -8.94963
655 1 15.7242 12.5794 18.8691 -8.94966
656 1 17.2966 14.1518 20.4415 -8.94963
657 1 18.8691 12.5794 18.8691 -8.94963
658 1 20.4415 14.1518 20.4415 -8.94963
659 1 22.0139 15.7242 18.8691 -8.94963
660 1 1.57242 17.2966 20.4415 -8.94963
661 1 3.14484 15.7242 18.8691 -8.94963
662 1 4.71726 17.2966 20.4415 -8.94963
663 1 6.28969 15.7242 18.8691 -8.94963
664 1 7.86211 17.2966 20.4415 -8.94963
665 1 9.43453 15.7242 18.8691 -8.94964
666 1 11.007 17.2966 20.4415 -8.94963
667 1 12.5794 15.7242 18.8691 -8.94965
668 1 14.1518 17.2966 20.4415 -8.94963
669 1 15.7242 15.7242 18.8691 -8.94963
670 1 17.2966 17.2966 20.4415 -8.94963
671 1 18.8691 15.7242 18.8691 -8.94963
672 1 20.4415 17.2966 20.4415 -8.94963
673 1 22.0139 18.8691 18.8691 -8.94963
674 1 1.57242 20.4415 20.4415 -8.94963
675 1 3.14484 18.8691 18.8691 -8.94963
676 1 4.71726 20.4415 20.4415 -8.94963
677 1 6.28969 18.8691 18.8691 -8.94963
678 1 7.86211 20.4415 20.4415 -8.94963
679 1 9.43453 18.8691 18.8691 -8.94963
680 1 11.007 20.4415 20.4415 -8.94963
681 1 12.5794 18.8691 18.8691 -8.94963
682 1 14.1518 20.4415 20.4415 -8.94963
683 1 15.7242 18.8691 18.8691 -8.94963
684 1 17.2966 20.4415 20.4415 -8.94963
685 1 18.8691 18.8691 18.8691 -8.94963
686 1 20.4415 20.4415 20.4415 -8.94963
687 3 10.2185 11.007 12.5818 4.48806
