ITEM: TIMESTEP
86
ITEM: NUMBER OF ATOMS
688
ITEM: BOX BOUNDS pp pp pp
0.0000000000000000e+00 2.2013900999999997e+01
0.0000000000000000e+00 2.2013900999999997e+01
0.0000000000000000e+00 2.2013900999999997e+01
ITEM: ATOMS id type x y z c_pot
1 1 22.0136 1.05259e-15 4.59376e-16 -8.94901
2 1 1.57175 1.57197 1.57194 -8.94903
3 1 3.14441 1.76988e-15 4.78099e-16 -8.94961
4 1 4.71675 1.57192 1.57187 -8.94954
5 1 6.28943 1.68567e-15 5.13519e-16 -8.94946
6 1 7.86188 1.57185 1.57188 -8.94941
7 1 9.43447 1.83941e-15 9.88977e-17 -8.9495
8 1 11.007 1.5718 1.5719 -8.94945
9 1 12.5795 1.88717e-15 4.17078e-16 -8.94948
10 1 14.1521 1.57178 1.57198 -8.94943
11 1 15.7245 1.60374e-15 -5.24024e-16 -8.94956
12 1 17.2974 1.5717 1.57197 -8.94947
13 1 18.8695 9.82543e-16 1.47219e-15 -8.94922
14 1 20.4417 1.57207 1.57222 -8.94927
15 1 22.0139 3.1445 1.59994e-15 -8.94959
16 1 1.57204 4.717 1.57194 -8.94993
17 1 3.14399 3.14409 1.71689e-15 -8.94949
18 1 4.71588 4.71611 1.57087 -8.95009
19 1 6.28918 3.14405 1.64677e-15 -8.94934
20 1 7.86138 4.71591 1.57116 -8.94908
21 1 9.43432 3.14385 5.96677e-16 -8.94943
22 1 11.0068 4.71564 1.57119 -8.94928
23 1 12.5795 3.14379 1.36103e-15 -8.94933
24 1 14.1527 4.71537 1.57107 -8.94979
25 1 15.7249 3.14368 5.00575e-17 -8.9497
26 1 17.2987 4.7152 1.57122 -8.94819
27 1 18.87 3.1439 4.36349e-16 -8.94878
28 1 20.4422 4.71665 1.57203 -8.94949
29 1 22.0141 6.28947 1.80291e-15 -8.94945
30 1 1.57224 7.86206 1.57204 -8.94936
31 1 3.14446 6.28977 1.82551e-15 -8.94988
32 1 4.71684 7.86259 1.57191 -8.9497
33 1 6.28885 6.28924 1.56507e-15 -8.95149
34 1 7.86163 7.86208 1.57083 -8.95264
35 1 9.43378 6.2884 9.69883e-16 -8.94968
36 1 11.0062 7.86089 1.57001 -8.95112
37 1 12.5795 6.28824 5.80276e-16 -8.9499
38 1 14.1541 7.85989 1.56878 -8.95221
39 1 15.7262 6.28761 1.22114e-15 -8.95022
40 1 17.299 7.86085 1.57109 -8.94893
41 1 18.8704 6.28885 1.60892e-15 -8.94933
42 1 20.4424 7.86172 1.57196 -8.94939
43 1 22.0142 9.43443 1.79601e-15 -8.94951
44 1 3.14439 9.43456 1.70924e-15 -8.94951
45 1 6.28932 9.43498 1.76223e-15 -8.94915
46 1 9.43408 9.43481 1.08709e-15 -8.94836
47 1 12.5797 9.43426 2.18416e-15 -8.95332
48 1 15.7266 9.43367 1.76991e-15 -8.9491
49 1 18.8705 9.43421 1.49415e-15 -8.94936
50 1 -0.000405899 1.51762e-15 3.14447 -8.94924
51 1 1.5713 1.57178 4.71633 -8.949
52 1 3.14399 1.49124e-15 3.14394 -8.94957
53 1 4.71599 1.57103 4.7157 -8.95004
54 1 6.28931 1.64867e-15 3.14397 -8.94944
55 1 7.86182 1.57112 4.71591 -8.94944
56 1 9.43454 1.88063e-15 3.14398 -8.94948
57 1 11.0073 1.57115 4.71601 -8.94946
58 1 12.5797 1.97577e-15 3.14409 -8.94943
59 1 14.1526 1.57103 4.71641 -8.95052
60 1 15.7248 1.6358e-15 3.14426 -8.94998
61 1 17.2975 1.5716 4.71674 -8.94949
62 1 18.8694 4.49359e-16 3.14453 -8.94945
63 1 20.4414 1.57203 4.71694 -8.9495
64 1 22.0135 3.14428 3.14422 -8.94956
65 1 1.57059 4.7162 4.71578 -8.94998
66 1 3.14305 3.14331 3.14298 -8.94815
67 1 4.712 4.71246 4.71152 -8.94457
68 1 6.28878 3.14329 3.14318 -8.94936
69 1 7.86042 4.71319 4.71346 -8.94804
70 1 9.43433 3.14317 3.14334 -8.9493
71 1 11.0074 4.71324 4.71367 -8.94752
72 1 12.5798 3.14304 3.14348 -8.94904
73 1 14.1555 4.71134 4.71297 -8.94962
74 1 15.7258 3.14255 3.14331 -8.9494
75 1 17.2992 4.71474 4.71566 -8.94887
76 1 18.8699 3.14385 3.14428 -8.94936
77 1 20.4419 4.71646 4.71666 -8.94986
78 1 22.0141 6.28938 3.14425 -8.94972
79 1 1.57175 7.86222 4.71642 -8.94962
80 1 3.14376 6.28955 3.14361 -8.95046
81 1 4.71528 7.86275 4.71548 -8.95149
82 1 6.28695 6.28743 3.1401 -8.95162
83 1 7.85755 7.85744 4.70765 -8.95818
84 1 9.43351 6.28686 3.14112 -8.94799
85 1 11.0071 7.85701 4.70692 -8.9532
86 1 12.5806 6.28646 3.14033 -8.94986
87 1 14.1659 7.84922 4.70166 -8.93355
88 1 15.7294 6.28464 3.1398 -8.94519
89 1 17.3023 7.85931 4.71406 -8.95008
90 1 18.8712 6.28831 3.1436 -8.9495
91 1 20.4429 7.86154 4.7164 -8.94994
92 1 0.000329189 9.4344 3.14412 -8.94949
93 1 3.14415 9.43466 3.14391 -8.94895
94 1 6.28971 9.43583 3.1448 -8.94928
95 1 9.43496 9.43478 3.14475 -8.94827
96 1 12.5828 9.43301 3.13505 -8.96
97 1 15.7293 9.4327 3.13996 -8.94743
98 1 18.8714 9.43399 3.14345 -8.94922
99 1 22.0133 1.52837e-15 6.2893 -8.94947
100 1 1.57105 1.57163 7.86148 -8.94934
101 1 3.14338 1.43131e-15 6.28853 -8.9493
102 1 4.71505 1.5701 7.86056 -8.94974
103 1 6.28901 1.35601e-15 6.28853 -8.9505
104 1 7.86179 1.56996 7.86118 -8.9512
105 1 9.43476 1.85484e-15 6.28862 -8.95009
106 1 11.0073 1.57087 7.86144 -8.94962
107 1 12.5799 1.48918e-15 6.28908 -8.95023
108 1 14.1528 1.57094 7.86174 -8.95051
109 1 15.725 1.43423e-15 6.2893 -8.94995
110 1 17.2973 1.57183 7.86208 -8.94957
111 1 18.8693 9.14634e-16 6.28955 -8.94961
112 1 20.4413 1.57201 7.86193 -8.94947
113 1 -0.000984925 3.14398 6.28899 -8.94939
114 1 1.5691 4.71531 7.86062 -8.94935
115 1 3.14186 3.14228 6.28732 -8.94756
116 1 4.70882 4.70931 7.85613 -8.94132
117 1 6.28731 3.14021 6.28684 -8.9516
118 1 7.85817 4.70636 7.85854 -8.95822
119 1 9.43449 3.14102 6.28744 -8.94998
120 1 11.0068 4.71173 7.85941 -8.95128
121 1 12.5802 3.14123 6.28825 -8.95188
122 1 14.1559 4.71108 7.85919 -8.94806
123 1 15.7261 3.14221 6.28856 -8.94916
124 1 17.2985 4.71552 7.86183 -8.9498
125 1 18.8696 3.14393 6.28939 -8.94967
126 1 20.4413 4.71635 7.86179 -8.94977
127 1 22.013 6.28913 6.28896 -8.95046
128 1 1.56943 7.86201 7.8614 -8.95191
129 1 3.13976 6.28761 6.28672 -8.95171
130 1 4.70558 7.85894 7.85871 -8.96033
131 1 6.27448 6.27534 6.27392 -8.93105
132 1 7.81687 7.82091 7.82237 -8.85749
133 1 9.43271 6.27936 6.28202 -8.94685
134 1 11.0243 7.84429 7.8294 -8.89531
135 1 12.5875 6.27657 6.27862 -8.95115
136 1 14.1682 7.84933 7.85056 -8.93606
137 1 15.731 6.28381 6.28528 -8.94646
138 1 17.3017 7.86027 7.86134 -8.9522
139 1 18.8712 6.28835 6.28898 -8.95024
140 1 20.4421 7.86173 7.86192 -8.95054
141 1 22.0141 9.43453 6.28893 -8.94975
142 1 3.14339 9.4355 6.28861 -8.94901
143 1 6.28828 9.43864 6.29029 -8.9507
144 1 9.42682 9.4163 6.29147 -8.91709
145 1 12.6195 9.40367 6.24637 -8.88412
146 1 15.7376 9.43069 6.28235 -8.95429
147 1 18.873 9.43389 6.28843 -8.95111
148 1 -0.00066748 1.52695e-15 9.43438 -8.94948
149 1 3.14318 9.88014e-16 9.43408 -8.9493
150 1 6.28843 1.70569e-15 9.43394 -8.9514
151 1 9.43497 1.58768e-15 9.43407 -8.94901
152 1 12.58 1.02737e-15 9.43447 -8.95028
153 1 15.725 1.12669e-15 9.43457 -8.94946
154 1 18.8693 1.03105e-15 9.43449 -8.9495
155 1 22.0128 3.14386 9.43426 -8.94937
156 1 3.14155 3.14202 9.43359 -8.94896
157 1 6.2853 3.13718 9.43269 -8.95147
158 1 9.4346 3.14127 9.43349 -8.94705
159 1 12.5803 3.14173 9.43403 -8.95187
160 1 15.7254 3.14337 9.43465 -8.94937
161 1 18.8695 3.14398 9.43448 -8.94938
162 1 22.0118 6.28871 9.43416 -8.95059
163 1 3.13587 6.28525 9.43235 -8.95028
164 1 6.26523 6.26606 9.42133 -8.91786
165 1 9.42986 6.28417 9.43166 -9.00907
166 1 12.5871 6.27789 9.42554 -8.94505
167 1 15.728 6.28693 9.43441 -8.94895
168 1 18.8702 6.28859 9.43461 -8.94977
169 1 22.0131 9.43482 9.43434 -8.94943
170 1 3.14168 9.43587 9.43408 -8.95005
171 1 6.28288 9.42951 9.43547 -8.96856
172 1 9.35933 9.15463 9.44542 -8.05836
173 1 12.5946 9.40814 9.38505 -8.8327
174 1 15.7283 9.43429 9.43228 -8.95253
175 1 18.8705 9.43445 9.43468 -8.94968
176 1 1.57098 1.5716 11.007 -8.94936
177 1 4.71484 1.56998 11.007 -8.94922
178 1 7.86167 1.5691 11.007 -8.9534
179 1 11.0072 1.57116 11.007 -8.94957
180 1 14.1526 1.57158 11.007 -8.94903
181 1 17.2973 1.57185 11.007 -8.94947
182 1 20.4413 1.57198 11.007 -8.9495
183 1 1.56888 4.71517 11.007 -8.94903
184 1 4.70892 4.70941 11.007 -8.94542
185 1 7.85561 4.7001 11.007 -8.96654
186 1 11.007 4.71263 11.007 -8.95488
187 1 14.1535 4.71528 11.007 -8.94703
188 1 17.2981 4.71575 11.007 -8.94862
189 1 20.4411 4.71623 11.007 -8.94956
190 1 1.56736 7.8616 11.007 -8.95423
191 1 4.69611 7.85489 11.007 -8.96686
192 1 7.77437 7.78711 11.007 -8.73526
193 1 11.0568 7.83965 11.007 -8.83121
194 1 14.159 7.86246 11.007 -8.96696
195 1 17.299 7.86142 11.007 -8.95072
196 1 20.4412 7.86172 11.007 -8.95038
197 1 -0.00066748 1.36037e-15 12.5795 -8.94948
198 1 1.57105 1.57163 14.1524 -8.94934
199 1 3.14318 1.20192e-15 12.5798 -8.9493
200 1 4.71505 1.5701 14.1533 -8.94974
201 1 6.28843 1.67047e-15 12.58 -8.9514
202 1 7.86179 1.56996 14.1527 -8.9512
203 1 9.43497 9.83129e-16 12.5798 -8.94901
204 1 11.0073 1.57087 14.1525 -8.94962
205 1 12.58 1.27023e-15 12.5794 -8.95028
206 1 14.1528 1.57094 14.1522 -8.95051
207 1 15.725 1.47839e-15 12.5793 -8.94946
208 1 17.2973 1.57183 14.1518 -8.94957
209 1 18.8693 1.72576e-15 12.5794 -8.9495
210 1 20.4413 1.57201 14.152 -8.94947
211 1 22.0128 3.14386 12.5796 -8.94937
212 1 1.5691 4.71531 14.1533 -8.94935
213 1 3.14155 3.14202 12.5803 -8.94896
214 1 4.70882 4.70931 14.1578 -8.94132
215 1 6.2853 3.13718 12.5812 -8.95147
216 1 7.85817 4.70636 14.1554 -8.95822
217 1 9.4346 3.14127 12.5804 -8.94705
218 1 11.0068 4.71173 14.1545 -8.95128
219 1 12.5803 3.14173 12.5799 -8.95187
220 1 14.1559 4.71108 14.1547 -8.94806
221 1 15.7254 3.14337 12.5793 -8.94937
222 1 17.2985 4.71552 14.1521 -8.9498
223 1 18.8695 3.14398 12.5794 -8.94938
224 1 20.4413 4.71635 14.1521 -8.94977
225 1 22.0118 6.28871 12.5797 -8.95059
226 1 1.56943 7.86201 14.1525 -8.95191
227 1 3.13587 6.28525 12.5816 -8.95028
228 1 4.70558 7.85894 14.1552 -8.96033
229 1 6.26523 6.26606 12.5926 -8.91786
230 1 7.81687 7.82091 14.1915 -8.85749
231 1 9.42986 6.28417 12.5822 -9.00907
232 1 11.0243 7.84429 14.1845 -8.89531
233 1 12.5871 6.27789 12.5884 -8.94505
234 1 14.1682 7.84933 14.1633 -8.93606
235 1 15.728 6.28693 12.5795 -8.94895
236 1 17.3017 7.86027 14.1526 -8.9522
237 1 18.8702 6.28859 12.5793 -8.94977
238 1 20.4421 7.86173 14.152 -8.95054
239 1 22.0131 9.43482 12.5796 -8.94943
240 1 3.14168 9.43587 12.5798 -8.95005
241 1 6.28288 9.42951 12.5784 -8.96856
242 1 9.35933 9.15463 12.5685 -8.05836
243 1 12.5946 9.40814 12.6288 -8.8327
244 1 15.7283 9.43429 12.5816 -8.95253
245 1 18.8705 9.43445 12.5792 -8.94968
246 1 22.0133 1.52641e-15 15.7246 -8.94947
247 1 1.5713 1.57178 17.2976 -8.949
248 1 3.14338 1.60172e-15 15.7254 -8.9493
249 1 4.71599 1.57103 17.2982 -8.95004
250 1 6.28901 1.69776e-15 15.7254 -8.9505
251 1 7.86182 1.57112 17.298 -8.94944
252 1 9.43476 1.60352e-15 15.7253 -8.95009
253 1 11.0073 1.57115 17.2979 -8.94946
254 1 12.5799 1.10375e-15 15.7248 -8.95023
255 1 14.1526 1.57103 17.2975 -8.95052
256 1 15.725 1.30634e-15 15.7246 -8.94995
257 1 17.2975 1.5716 17.2972 -8.94949
258 1 18.8693 1.73709e-15 15.7243 -8.94961
259 1 20.4414 1.57203 17.297 -8.9495
260 1 -0.000984925 3.14398 15.7249 -8.94939
261 1 1.57059 4.7162 17.2981 -8.94998
262 1 3.14186 3.14228 15.7266 -8.94756
263 1 4.712 4.71246 17.3024 -8.94457
264 1 6.28731 3.14021 15.7271 -8.9516
265 1 7.86042 4.71319 17.3004 -8.94804
266 1 9.43449 3.14102 15.7265 -8.94998
267 1 11.0074 4.71324 17.3002 -8.94752
268 1 12.5802 3.14123 15.7257 -8.95188
269 1 14.1555 4.71134 17.3009 -8.94962
270 1 15.7261 3.14221 15.7253 -8.94916
271 1 17.2992 4.71474 17.2982 -8.94887
272 1 18.8696 3.14393 15.7245 -8.94967
273 1 20.4419 4.71646 17.2972 -8.94986
274 1 22.013 6.28913 15.7249 -8.95046
275 1 1.57175 7.86222 17.2975 -8.94962
276 1 3.13976 6.28761 15.7272 -8.95171
277 1 4.71528 7.86275 17.2984 -8.95149
278 1 6.27448 6.27534 15.74 -8.93105
279 1 7.85755 7.85744 17.3062 -8.95818
280 1 9.43271 6.27936 15.7319 -8.94685
281 1 11.0071 7.85701 17.307 -8.9532
282 1 12.5875 6.27657 15.7353 -8.95115
283 1 14.1659 7.84922 17.3122 -8.93355
284 1 15.731 6.28381 15.7286 -8.94646
285 1 17.3023 7.85931 17.2998 -8.95008
286 1 18.8712 6.28835 15.7249 -8.95024
287 1 20.4429 7.86154 17.2975 -8.94994
288 1 22.0141 9.43453 15.725 -8.94975
289 1 3.14339 9.4355 15.7253 -8.94901
290 1 6.28828 9.43864 15.7236 -8.9507
291 1 9.42682 9.4163 15.7224 -8.91709
292 1 12.6195 9.40367 15.7675 -8.88412
293 1 15.7376 9.43069 15.7316 -8.95429
294 1 18.873 9.43389 15.7255 -8.95111
295 1 -0.000405899 1.69707e-15 18.8694 -8.94924
296 1 1.57175 1.57197 20.442 -8.94903
297 1 3.14399 1.87773e-15 18.87 -8.94957
298 1 4.71675 1.57192 20.442 -8.94954
299 1 6.28931 1.76657e-15 18.8699 -8.94944
300 1 7.86188 1.57185 20.442 -8.94941
301 1 9.43454 1.83114e-15 18.8699 -8.94948
302 1 11.007 1.5718 20.442 -8.94945
303 1 12.5797 1.805e-15 18.8698 -8.94943
304 1 14.1521 1.57178 20.4419 -8.94943
305 1 15.7248 1.41286e-15 18.8696 -8.94998
306 1 17.2974 1.5717 20.4419 -8.94947
307 1 18.8694 4.76485e-16 18.8694 -8.94945
308 1 20.4417 1.57207 20.4417 -8.94927
309 1 22.0135 3.14428 18.8697 -8.94956
310 1 1.57204 4.717 20.442 -8.94993
311 1 3.14305 3.14331 18.8709 -8.94815
312 1 4.71588 4.71611 20.443 -8.95009
313 1 6.28878 3.14329 18.8707 -8.94936
314 1 7.86138 4.71591 20.4427 -8.94908
315 1 9.43433 3.14317 18.8706 -8.9493
316 1 11.0068 4.71564 20.4427 -8.94928
317 1 12.5798 3.14304 18.8704 -8.94904
318 1 14.1527 4.71537 20.4428 -8.94979
319 1 15.7258 3.14255 18.8706 -8.9494
320 1 17.2987 4.7152 20.4427 -8.94819
321 1 18.8699 3.14385 18.8696 -8.94936
322 1 20.4422 4.71665 20.4419 -8.94949
323 1 22.0141 6.28938 18.8697 -8.94972
324 1 1.57224 7.86206 20.4419 -8.94936
325 1 3.14376 6.28955 18.8703 -8.95046
326 1 4.71684 7.86259 20.442 -8.9497
327 1 6.28695 6.28743 18.8738 -8.95162
328 1 7.86163 7.86208 20.4431 -8.95264
329 1 9.43351 6.28686 18.8728 -8.94799
330 1 11.0062 7.86089 20.4439 -8.95112
331 1 12.5806 6.28646 18.8736 -8.94986
332 1 14.1541 7.85989 20.4451 -8.95221
333 1 15.7294 6.28464 18.8741 -8.94519
334 1 17.299 7.86085 20.4428 -8.94893
335 1 18.8712 6.28831 18.8703 -8.9495
336 1 20.4424 7.86172 20.4419 -8.94939
337 1 0.000329189 9.4344 18.8698 -8.94949
338 1 3.14415 9.43466 18.87 -8.94895
339 1 6.28971 9.43583 18.8691 -8.94928
340 1 9.43496 9.43478 18.8692 -8.94827
341 1 12.5828 9.43301 18.8788 -8.96
342 1 15.7293 9.4327 18.8739 -8.94743
343 1 18.8714 9.43399 18.8705 -8.94922
344 1 1.57221 11.007 1.57199 -8.94955
345 1 4.71667 11.007 1.57192 -8.9497
346 1 7.862 11.007 1.57316 -8.9471
347 1 11.0066 11.007 1.57162 -8.94653
348 1 14.155 11.007 1.5686 -8.95004
349 1 17.2991 11.007 1.57106 -8.94925
350 1 20.4424 11.007 1.57193 -8.94946
351 1 22.0142 12.5795 1.7965e-15 -8.94951
352 1 1.57224 14.1518 1.57204 -8.94936
353 1 3.14439 12.5793 1.81052e-15 -8.94951
354 1 4.71684 14.1513 1.57191 -8.9497
355 1 6.28932 12.5789 1.77879e-15 -8.94915
356 1 7.86163 14.1518 1.57083 -8.95264
357 1 9.43408 12.5791 1.03005e-15 -8.94836
358 1 11.0062 14.153 1.57001 -8.95112
359 1 12.5797 12.5796 2.13748e-15 -8.95332
360 1 14.1541 14.154 1.56878 -8.95221
361 1 15.7266 12.5802 1.77333e-15 -8.9491
362 1 17.299 14.153 1.57109 -8.94893
363 1 18.8705 12.5797 1.58999e-15 -8.94936
364 1 20.4424 14.1522 1.57196 -8.94939
365 1 22.0141 15.7244 1.81842e-15 -8.94945
366 1 1.57204 17.2969 1.57194 -8.94993
367 1 3.14446 15.7241 1.95504e-15 -8.94988
368 1 4.71588 17.2978 1.57087 -8.95009
369 1 6.28885 15.7247 1.7425e-15 -8.95149
370 1 7.86138 17.298 1.57116 -8.94908
371 1 9.43378 15.7255 8.26889e-16 -8.94968
372 1 11.0068 17.2983 1.57119 -8.94928
373 1 12.5795 15.7257 5.87381e-16 -8.9499
374 1 14.1527 17.2985 1.57107 -8.94979
375 1 15.7262 15.7263 1.67067e-15 -8.95022
376 1 17.2987 17.2987 1.57122 -8.94819
377 1 18.8704 15.7251 1.83339e-15 -8.94933
378 1 20.4422 17.2972 1.57203 -8.94949
379 1 22.0139 18.8694 7.62179e-16 -8.94959
380 1 1.57175 20.4419 1.57194 -8.94903
381 1 3.14399 18.8698 1.70995e-15 -8.94949
382 1 4.71675 20.442 1.57187 -8.94954
383 1 6.28918 18.8699 1.61742e-15 -8.94934
384 1 7.86188 20.442 1.57188 -8.94941
385 1 9.43432 18.8701 1.29346e-16 -8.94943
386 1 11.007 20.4421 1.5719 -8.94945
387 1 12.5795 18.8701 1.6286e-15 -8.94933
388 1 14.1521 20.4421 1.57198 -8.94943
389 1 15.7249 18.8702 1.53955e-15 -8.9497
390 1 17.2974 20.4422 1.57197 -8.94947
391 1 18.87 18.87 1.02581e-15 -8.94878
392 1 20.4417 20.4418 1.57222 -8.94927
393 1 1.57187 11.007 4.71612 -8.94943
394 1 4.71615 11.007 4.71569 -8.94622
395 1 7.86638 11.007 4.72372 -8.94362
396 1 11.0123 11.007 4.71826 -8.9924
397 1 14.1646 11.007 4.70366 -8.94191
398 1 17.3025 11.007 4.71372 -8.94903
399 1 20.4431 11.007 4.71621 -8.94983
400 1 0.000329189 12.5795 3.14412 -8.94949
401 1 1.57175 14.1517 4.71642 -8.94962
402 1 3.14415 12.5792 3.14391 -8.94895
403 1 4.71528 14.1512 4.71548 -8.95149
404 1 6.28971 12.5781 3.1448 -8.94928
405 1 7.85755 14.1565 4.70765 -8.95818
406 1 9.43496 12.5791 3.14475 -8.94827
407 1 11.0071 14.1569 4.70692 -8.9532
408 1 12.5828 12.5809 3.13505 -8.96
409 1 14.1659 14.1647 4.70166 -8.93355
410 1 15.7293 12.5812 3.13996 -8.94743
411 1 17.3023 14.1546 4.71406 -8.95008
412 1 18.8714 12.5799 3.14345 -8.94922
413 1 20.4429 14.1524 4.7164 -8.94994
414 1 22.0141 15.7245 3.14425 -8.94972
415 1 1.57059 17.2977 4.71578 -8.94998
416 1 3.14376 15.7244 3.14361 -8.95046
417 1 4.712 17.3014 4.71152 -8.94457
418 1 6.28695 15.7265 3.1401 -8.95162
419 1 7.86042 17.3007 4.71346 -8.94804
420 1 9.43351 15.727 3.14112 -8.94799
421 1 11.0074 17.3007 4.71367 -8.94752
422 1 12.5806 15.7274 3.14033 -8.94986
423 1 14.1555 17.3026 4.71297 -8.94962
424 1 15.7294 15.7293 3.1398 -8.94519
425 1 17.2992 17.2992 4.71566 -8.94887
426 1 18.8712 15.7256 3.1436 -8.9495
427 1 20.4419 17.2974 4.71666 -8.94986
428 1 22.0135 18.8696 3.14422 -8.94956
429 1 1.5713 20.4421 4.71633 -8.949
430 1 3.14305 18.8706 3.14298 -8.94815
431 1 4.71599 20.4429 4.7157 -8.95004
432 1 6.28878 18.8706 3.14318 -8.94936
433 1 7.86182 20.4428 4.71591 -8.94944
434 1 9.43433 18.8707 3.14334 -8.9493
435 1 11.0073 20.4427 4.71601 -8.94946
436 1 12.5798 18.8709 3.14348 -8.94904
437 1 14.1526 20.4429 4.71641 -8.95052
438 1 15.7258 18.8713 3.14331 -8.9494
439 1 17.2975 20.4423 4.71674 -8.94949
440 1 18.8699 18.8701 3.14428 -8.94936
441 1 20.4414 20.4419 4.71694 -8.9495
442 1 1.57175 11.007 7.86115 -8.94738
443 1 4.71985 11.007 7.8624 -8.93777
444 1 7.88866 11.007 7.88422 -8.84112
445 1 11.1019 11.007 7.67594 -8.23055
446 1 14.1724 11.007 7.84522 -8.965
447 1 17.3032 11.007 7.86032 -8.95196
448 1 20.4429 11.007 7.86171 -8.95
449 1 22.0141 12.5794 6.28893 -8.94975
450 1 1.56943 14.1519 7.8614 -8.95191
451 1 3.14339 12.5784 6.28861 -8.94901
452 1 4.70558 14.155 7.85871 -8.96033
453 1 6.28828 12.5753 6.29029 -8.9507
454 1 7.81687 14.193 7.82237 -8.85749
455 1 9.42682 12.5976 6.29147 -8.91709
456 1 11.0243 14.1696 7.8294 -8.89531
457 1 12.6195 12.6102 6.24637 -8.88412
458 1 14.1682 14.1646 7.85056 -8.93606
459 1 15.7376 12.5832 6.28235 -8.95429
460 1 17.3017 14.1536 7.86134 -8.9522
461 1 18.873 12.58 6.28843 -8.95111
462 1 20.4421 14.1522 7.86192 -8.95054
463 1 22.013 15.7248 6.28896 -8.95046
464 1 1.5691 17.2986 7.86062 -8.94935
465 1 3.13976 15.7263 6.28672 -8.95171
466 1 4.70882 17.3046 7.85613 -8.94132
467 1 6.27448 15.7386 6.27392 -8.93105
468 1 7.85817 17.3075 7.85854 -8.95822
469 1 9.43271 15.7345 6.28202 -8.94685
470 1 11.0068 17.3022 7.85941 -8.95128
471 1 12.5875 15.7373 6.27862 -8.95115
472 1 14.1559 17.3028 7.85919 -8.94806
473 1 15.731 15.7301 6.28528 -8.94646
474 1 17.2985 17.2984 7.86183 -8.9498
475 1 18.8712 15.7255 6.28898 -8.95024
476 1 20.4413 17.2976 7.86179 -8.94977
477 1 -0.000984925 18.8699 6.28899 -8.94939
478 1 1.57105 20.4423 7.86148 -8.94934
479 1 3.14186 18.8716 6.28732 -8.94756
480 1 4.71505 20.4438 7.86056 -8.94974
481 1 6.28731 18.8737 6.28684 -8.9516
482 1 7.86179 20.4439 7.86118 -8.9512
483 1 9.43449 18.8729 6.28744 -8.94998
484 1 11.0073 20.443 7.86144 -8.94962
485 1 12.5802 18.8727 6.28825 -8.95188
486 1 14.1528 20.443 7.86174 -8.95051
487 1 15.7261 18.8717 6.28856 -8.94916
488 1 17.2973 20.4421 7.86208 -8.94957
489 1 18.8696 18.87 6.28939 -8.94967
490 1 20.4413 20.4419 7.86193 -8.94947
491 1 22.0131 12.5791 9.43434 -8.94943
492 1 3.14168 12.578 9.43408 -8.95005
493 1 6.28288 12.5844 9.43547 -8.96856
494 1 9.35933 12.8593 9.44542 -8.05836
495 1 12.5946 12.6058 9.38505 -8.8327
496 1 15.7283 12.5796 9.43228 -8.95253
497 1 18.8705 12.5794 9.43468 -8.94968
498 1 22.0118 15.7252 9.43416 -8.95059
499 1 3.13587 15.7286 9.43235 -8.95028
500 1 6.26523 15.7478 9.42133 -8.91786
501 1 9.42986 15.7297 9.43166 -9.00907
502 1 12.5871 15.736 9.42554 -8.94505
503 1 15.728 15.727 9.43441 -8.94895
504 1 18.8702 15.7253 9.43461 -8.94977
505 1 22.0128 18.87 9.43426 -8.94937
506 1 3.14155 18.8719 9.43359 -8.94896
507 1 6.2853 18.8767 9.43269 -8.95147
508 1 9.4346 18.8726 9.43349 -8.94705
509 1 12.5803 18.8722 9.43403 -8.95187
510 1 15.7254 18.8705 9.43465 -8.94937
511 1 18.8695 18.8699 9.43448 -8.94938
688 3 10.0833 11.007 9.39704 2.36079
512 1 1.57186 11.007 11.007 -8.94523
513 1 4.72404 11.007 11.007 -8.93339
514 1 7.90193 11.007 11.007 -8.72275
515 1 11.2702 11.007 11.007 -7.39987
516 1 14.1396 11.007 11.007 -9.01451
517 1 17.2958 11.007 11.007 -8.94502
518 1 20.4415 11.007 11.007 -8.94784
519 1 1.56736 14.1523 11.007 -8.95423
520 1 4.69611 14.159 11.007 -8.96686
521 1 7.77437 14.2268 11.007 -8.73526
522 1 11.0568 14.1743 11.007 -8.83121
523 1 14.159 14.1514 11.007 -8.96696
524 1 17.299 14.1525 11.007 -8.95072
525 1 20.4412 14.1522 11.007 -8.95038
526 1 1.56888 17.2987 11.007 -8.94903
527 1 4.70892 17.3045 11.007 -8.94542
528 1 7.85561 17.3138 11.007 -8.96654
529 1 11.007 17.3013 11.007 -8.95488
530 1 14.1535 17.2986 11.007 -8.94703
531 1 17.2981 17.2982 11.007 -8.94862
532 1 20.4411 17.2977 11.007 -8.94956
533 1 1.57098 20.4423 11.007 -8.94936
534 1 4.71484 20.4439 11.007 -8.94922
535 1 7.86167 20.4448 11.007 -8.9534
536 1 11.0072 20.4427 11.007 -8.94957
537 1 14.1526 20.4423 11.007 -8.94903
538 1 17.2973 20.4421 11.007 -8.94947
539 1 20.4413 20.4419 11.007 -8.9495
540 1 1.57175 11.007 14.1527 -8.94738
541 1 4.71985 11.007 14.1515 -8.93777
542 1 7.88866 11.007 14.1297 -8.84112
543 1 11.1019 11.007 14.338 -8.23055
544 1 14.1724 11.007 14.1687 -8.965
545 1 17.3032 11.007 14.1536 -8.95196
546 1 20.4429 11.007 14.1522 -8.95
547 1 22.0131 12.5791 12.5796 -8.94943
548 1 1.56943 14.1519 14.1525 -8.95191
549 1 3.14168 12.578 12.5798 -8.95005
550 1 4.70558 14.155 14.1552 -8.96033
551 1 6.28288 12.5844 12.5784 -8.96856
552 1 7.81687 14.193 14.1915 -8.85749
553 1 9.35933 12.8593 12.5685 -8.05836
554 1 11.0243 14.1696 14.1845 -8.89531
555 1 12.5946 12.6058 12.6288 -8.8327
556 1 14.1682 14.1646 14.1633 -8.93606
557 1 15.7283 12.5796 12.5816 -8.95253
558 1 17.3017 14.1536 14.1526 -8.9522
559 1 18.8705 12.5794 12.5792 -8.94968
560 1 20.4421 14.1522 14.152 -8.95054
561 1 22.0118 15.7252 12.5797 -8.95059
562 1 1.5691 17.2986 14.1533 -8.94935
563 1 3.13587 15.7286 12.5816 -8.95028
564 1 4.70882 17.3046 14.1578 -8.94132
565 1 6.26523 15.7478 12.5926 -8.91786
566 1 7.85817 17.3075 14.1554 -8.95822
567 1 9.42986 15.7297 12.5822 -9.00907
568 1 11.0068 17.3022 14.1545 -8.95128
569 1 12.5871 15.736 12.5884 -8.94505
570 1 14.1559 17.3028 14.1547 -8.94806
571 1 15.728 15.727 12.5795 -8.94895
572 1 17.2985 17.2984 14.1521 -8.9498
573 1 18.8702 15.7253 12.5793 -8.94977
574 1 20.4413 17.2976 14.1521 -8.94977
575 1 22.0128 18.87 12.5796 -8.94937
576 1 1.57105 20.4423 14.1524 -8.94934
577 1 3.14155 18.8719 12.5803 -8.94896
578 1 4.71505 20.4438 14.1533 -8.94974
579 1 6.2853 18.8767 12.5812 -8.95147
580 1 7.86179 20.4439 14.1527 -8.9512
581 1 9.4346 18.8726 12.5804 -8.94705
582 1 11.0073 20.443 14.1525 -8.94962
583 1 12.5803 18.8722 12.5799 -8.95187
584 1 14.1528 20.443 14.1522 -8.95051
585 1 15.7254 18.8705 12.5793 -8.94937
586 1 17.2973 20.4421 14.1518 -8.94957
587 1 18.8695 18.8699 12.5794 -8.94938
588 1 20.4413 20.4419 14.152 -8.94947
589 1 1.57187 11.007 17.2978 -8.94943
590 1 4.71615 11.007 17.2982 -8.94622
591 1 7.86638 11.007 17.2902 -8.94362
592 1 11.0123 11.007 17.2956 -8.9924
593 1 14.1646 11.007 17.3102 -8.94191
594 1 17.3025 11.007 17.3002 -8.94903
595 1 20.4431 11.007 17.2977 -8.94983
596 1 22.0141 12.5794 15.725 -8.94975
597 1 1.57175 14.1517 17.2975 -8.94962
598 1 3.14339 12.5784 15.7253 -8.94901
599 1 4.71528 14.1512 17.2984 -8.95149
600 1 6.28828 12.5753 15.7236 -8.9507
601 1 7.85755 14.1565 17.3062 -8.95818
602 1 9.42682 12.5976 15.7224 -8.91709
603 1 11.0071 14.1569 17.307 -8.9532
604 1 12.6195 12.6102 15.7675 -8.88412
605 1 14.1659 14.1647 17.3122 -8.93355
606 1 15.7376 12.5832 15.7316 -8.95429
607 1 17.3023 14.1546 17.2998 -8.95008
608 1 18.873 12.58 15.7255 -8.95111
609 1 20.4429 14.1524 17.2975 -8.94994
610 1 22.013 15.7248 15.7249 -8.95046
611 1 1.57059 17.2977 17.2981 -8.94998
612 1 3.13976 15.7263 15.7272 -8.95171
613 1 4.712 17.3014 17.3024 -8.94457
614 1 6.27448 15.7386 15.74 -8.93105
615 1 7.86042 17.3007 17.3004 -8.94804
616 1 9.43271 15.7345 15.7319 -8.94685
617 1 11.0074 17.3007 17.3002 -8.94752
618 1 12.5875 15.7373 15.7353 -8.95115
619 1 14.1555 17.3026 17.3009 -8.94962
620 1 15.731 15.7301 15.7286 -8.94646
621 1 17.2992 17.2992 17.2982 -8.94887
622 1 18.8712 15.7255 15.7249 -8.95024
623 1 20.4419 17.2974 17.2972 -8.94986
624 1 -0.000984925 18.8699 15.7249 -8.94939
625 1 1.5713 20.4421 17.2976 -8.949
626 1 3.14186 18.8716 15.7266 -8.94756
627 1 4.71599 20.4429 17.2982 -8.95004
628 1 6.28731 18.8737 15.7271 -8.9516
629 1 7.86182 20.4428 17.298 -8.94944
630 1 9.43449 18.8729 15.7265 -8.94998
631 1 11.0073 20.4427 17.2979 -8.94946
632 1 12.5802 18.8727 15.7257 -8.95188
633 1 14.1526 20.4429 17.2975 -8.95052
634 1 15.7261 18.8717 15.7253 -8.94916
635 1 17.2975 20.4423 17.2972 -8.94949
636 1 18.8696 18.87 15.7245 -8.94967
637 1 20.4414 20.4419 17.297 -8.9495
638 1 1.57221 11.007 20.4419 -8.94955
639 1 4.71667 11.007 20.442 -8.9497
640 1 7.862 11.007 20.4407 -8.9471
641 1 11.0066 11.007 20.4423 -8.94653
642 1 14.155 11.007 20.4453 -8.95004
643 1 17.2991 11.007 20.4428 -8.94925
644 1 20.4424 11.007 20.442 -8.94946
645 1 0.000329189 12.5795 18.8698 -8.94949
646 1 1.57224 14.1518 20.4419 -8.94936
647 1 3.14415 12.5792 18.87 -8.94895
648 1 4.71684 14.1513 20.442 -8.9497
649 1 6.28971 12.5781 18.8691 -8.94928
650 1 7.86163 14.1518 20.4431 -8.95264
651 1 9.43496 12.5791 18.8692 -8.94827
652 1 11.0062 14.153 20.4439 -8.95112
653 1 12.5828 12.5809 18.8788 -8.96
654 1 14.1541 14.154 20.4451 -8.95221
655 1 15.7293 12.5812 18.8739 -8.94743
656 1 17.299 14.153 20.4428 -8.94893
657 1 18.8714 12.5799 18.8705 -8.94922
658 1 20.4424 14.1522 20.4419 -8.94939
659 1 22.0141 15.7245 18.8697 -8.94972
660 1 1.57204 17.2969 20.442 -8.94993
661 1 3.14376 15.7244 18.8703 -8.95046
662 1 4.71588 17.2978 20.443 -8.95009
663 1 6.28695 15.7265 18.8738 -8.95162
664 1 7.86138 17.298 20.4427 -8.94908
665 1 9.43351 15.727 18.8728 -8.94799
666 1 11.0068 17.2983 20.4427 -8.94928
667 1 12.5806 15.7274 18.8736 -8.94986
668 1 14.1527 17.2985 20.4428 -8.94979
669 1 15.7294 15.7293 18.8741 -8.94519
670 1 17.2987 17.2987 20.4427 -8.94819
671 1 18.8712 15.7256 18.8703 -8.9495
672 1 20.4422 17.2972 20.4419 -8.94949
673 1 22.0135 18.8696 18.8697 -8.94956
674 1 1.57175 20.4419 20.442 -8.94903
675 1 3.14305 18.8706 18.8709 -8.94815
676 1 4.71675 20.442 20.442 -8.94954
677 1 6.28878 18.8706 18.8707 -8.94936
678 1 7.86188 20.442 20.442 -8.94941
679 1 9.43433 18.8707 18.8706 -8.9493
680 1 11.007 20.4421 20.442 -8.94945
681 1 12.5798 18.8709 18.8704 -8.94904
682 1 14.1521 20.4421 20.4419 -8.94943
683 1 15.7258 18.8713 18.8706 -8.9494
684 1 17.2974 20.4422 20.4419 -8.94947
685 1 18.8699 18.8701 18.8696 -8.94936
686 1 20.4417 20.4418 20.4417 -8.94927
687 3 10.0833 11.007 12.6169 2.36079
