ITEM: TIMESTEP
92
ITEM: NUMBER OF ATOMS
688
ITEM: BOX BOUNDS pp pp pp
0.0000000000000000e+00 2.2013900999999997e+01
0.0000000000000000e+00 2.2013900999999997e+01
0.0000000000000000e+00 2.2013900999999997e+01
ITEM: ATOMS id type x y z c_pot
1 1 22.0136 1.85958e-15 6.7672e-16 -8.94896
2 1 1.57168 1.57193 1.57189 -8.949
3 1 3.14433 1.90201e-15 3.11648e-16 -8.94959
4 1 4.71666 1.57187 1.5718 -8.94952
5 1 6.28937 1.83645e-15 2.69043e-16 -8.94944
6 1 7.86183 1.5718 1.57183 -8.94939
7 1 9.43445 1.87445e-15 -2.05927e-16 -8.94948
8 1 11.007 1.57175 1.57185 -8.94943
9 1 12.5796 1.78147e-15 -1.04121e-16 -8.94946
10 1 14.1522 1.57171 1.57193 -8.94941
11 1 15.7246 1.45481e-15 -3.01919e-16 -8.94955
12 1 17.2975 1.57163 1.57193 -8.94945
13 1 18.8696 1.12592e-15 1.14217e-15 -8.94918
14 1 20.4417 1.57203 1.57219 -8.94924
15 1 22.0139 3.14445 1.57981e-15 -8.94957
16 1 1.57202 4.71696 1.57189 -8.94995
17 1 3.14391 3.14404 1.73019e-15 -8.94949
18 1 4.71578 4.71606 1.57079 -8.95012
19 1 6.2891 3.14398 1.75519e-15 -8.94934
20 1 7.86131 4.71583 1.57109 -8.94908
21 1 9.43428 3.14377 -2.69348e-17 -8.94942
22 1 11.0068 4.71553 1.57112 -8.94928
23 1 12.5796 3.14369 9.85327e-16 -8.94931
24 1 14.1528 4.71522 1.57097 -8.94981
25 1 15.7251 3.14354 -5.37905e-17 -8.94969
26 1 17.2989 4.71505 1.57116 -8.94819
27 1 18.8702 3.1438 1.18686e-16 -8.94876
28 1 20.4423 4.71657 1.57199 -8.94947
29 1 22.0142 6.28943 1.73175e-15 -8.94943
30 1 1.57227 7.86206 1.57201 -8.94935
31 1 3.14445 6.28978 1.72596e-15 -8.9499
32 1 4.71684 7.86263 1.57191 -8.94971
33 1 6.28881 6.28924 1.68903e-15 -8.95153
34 1 7.86163 7.86209 1.57083 -8.95265
35 1 9.43374 6.28836 1.99429e-15 -8.94971
36 1 11.0063 7.86085 1.56997 -8.95116
37 1 12.5795 6.28814 1.3731e-15 -8.94994
38 1 14.1543 7.85979 1.56868 -8.9522
39 1 15.7264 6.28746 1.91977e-15 -8.95021
40 1 17.2992 7.86073 1.57101 -8.94891
41 1 18.8705 6.28873 1.69708e-15 -8.9493
42 1 20.4425 7.86167 1.57192 -8.94937
43 1 22.0142 9.43442 1.58893e-15 -8.9495
44 1 3.14441 9.43458 1.89932e-15 -8.9495
45 1 6.28936 9.43502 1.6364e-15 -8.94913
46 1 9.4341 9.43482 -2.83713e-17 -8.94832
47 1 12.5798 9.43424 5.73242e-15 -8.95332
48 1 15.7268 9.4336 2.95472e-15 -8.9491
49 1 18.8707 9.43416 1.4548e-15 -8.94934
50 1 -0.000462332 1.33819e-15 3.1444 -8.9492
51 1 1.57117 1.57172 4.71621 -8.94896
52 1 3.14388 1.63795e-15 3.14382 -8.94955
53 1 4.71584 1.57094 4.71554 -8.95004
54 1 6.28924 1.77779e-15 3.14386 -8.94942
55 1 7.86175 1.57104 4.71579 -8.94943
56 1 9.43453 1.63688e-15 3.14389 -8.94946
57 1 11.0073 1.57108 4.71591 -8.94945
58 1 12.5797 1.79704e-15 3.14402 -8.94942
59 1 14.1526 1.57095 4.71632 -8.95053
60 1 15.7249 1.35627e-15 3.14419 -8.94998
61 1 17.2975 1.57152 4.71667 -8.94948
62 1 18.8695 5.61988e-16 3.14448 -8.94943
63 1 20.4414 1.57198 4.71688 -8.94948
64 1 22.0135 3.14422 3.14414 -8.94955
65 1 1.57048 4.71612 4.71566 -8.95
66 1 3.14291 3.14322 3.14284 -8.94813
67 1 4.71177 4.71229 4.7113 -8.94453
68 1 6.28867 3.14318 3.14305 -8.94935
69 1 7.86027 4.713 4.71328 -8.94801
70 1 9.43429 3.14306 3.14323 -8.94929
71 1 11.0074 4.71306 4.71347 -8.94749
72 1 12.5799 3.14292 3.14336 -8.94902
73 1 14.1558 4.71112 4.71273 -8.94954
74 1 15.726 3.1424 3.14319 -8.94938
75 1 17.2994 4.71459 4.71553 -8.94889
76 1 18.87 3.14374 3.14421 -8.94935
77 1 20.4419 4.71638 4.71659 -8.94988
78 1 22.0141 6.28934 3.14419 -8.94972
79 1 1.57176 7.86222 4.71637 -8.94962
80 1 3.1437 6.28953 3.14353 -8.95049
81 1 4.71526 7.86274 4.71547 -8.95152
82 1 6.28685 6.28736 3.13999 -8.95167
83 1 7.85757 7.85733 4.70764 -8.9583
84 1 9.43349 6.28674 3.14101 -8.94801
85 1 11.0072 7.85689 4.70676 -8.95333
86 1 12.5807 6.28632 3.14012 -8.94992
87 1 14.166 7.8492 4.70151 -8.93376
88 1 15.7296 6.28449 3.13966 -8.94524
89 1 17.3025 7.8592 4.7139 -8.95005
90 1 18.8714 6.28819 3.14351 -8.94948
91 1 20.443 7.8615 4.71633 -8.94994
92 1 0.000416155 9.43439 3.14407 -8.94948
93 1 3.14418 9.43468 3.1439 -8.94894
94 1 6.28978 9.43586 3.14492 -8.94927
95 1 9.43502 9.43474 3.14485 -8.94814
96 1 12.5829 9.43297 3.13497 -8.95991
97 1 15.7296 9.43262 3.13977 -8.94745
98 1 18.8716 9.43394 3.14334 -8.94921
99 1 22.0132 1.66029e-15 6.28923 -8.94944
100 1 1.57087 1.57156 7.86139 -8.94931
101 1 3.14321 1.09261e-15 6.28839 -8.94928
102 1 4.71484 1.56997 7.86042 -8.94974
103 1 6.28891 1.27669e-15 6.28841 -8.95051
104 1 7.8617 1.56985 7.86108 -8.95123
105 1 9.43474 1.76256e-15 6.28853 -8.9501
106 1 11.0074 1.5708 7.86137 -8.94965
107 1 12.5799 1.43637e-15 6.28902 -8.95024
108 1 14.1528 1.57087 7.86169 -8.95052
109 1 15.7251 8.31358e-16 6.28925 -8.94996
110 1 17.2973 1.57178 7.86206 -8.94957
111 1 18.8693 1.16632e-15 6.28952 -8.9496
112 1 20.4412 1.57197 7.86189 -8.94945
113 1 -0.00108566 3.1439 6.2889 -8.94937
114 1 1.56888 4.71518 7.86051 -8.94935
115 1 3.14162 3.14213 6.28714 -8.94751
116 1 4.70844 4.70901 7.85591 -8.9412
117 1 6.2871 3.14 6.28665 -8.9516
118 1 7.85792 4.706 7.85835 -8.9582
119 1 9.43443 3.14085 6.28729 -8.94997
120 1 11.0069 4.71144 7.85918 -8.95131
121 1 12.5803 3.14107 6.2881 -8.95187
122 1 14.1562 4.7109 7.85897 -8.94793
123 1 15.7262 3.14206 6.28844 -8.94913
124 1 17.2986 4.71542 7.86176 -8.94981
125 1 18.8697 3.14384 6.28934 -8.94966
126 1 20.4412 4.71627 7.86175 -8.94979
127 1 22.013 6.28908 6.28891 -8.95049
128 1 1.56936 7.86199 7.86138 -8.95195
129 1 3.13956 6.28751 6.2866 -8.95175
130 1 4.70544 7.8588 7.85869 -8.96045
131 1 6.27416 6.27503 6.27366 -8.9309
132 1 7.81657 7.8203 7.82211 -8.85702
133 1 9.43267 6.27904 6.2818 -8.94674
134 1 11.0248 7.84364 7.82902 -8.89487
135 1 12.5878 6.27633 6.27821 -8.95089
136 1 14.1683 7.84935 7.85036 -8.93641
137 1 15.7313 6.28368 6.28509 -8.94655
138 1 17.3017 7.86025 7.86124 -8.95223
139 1 18.8713 6.28828 6.28891 -8.95027
140 1 20.4421 7.86172 7.8619 -8.95056
141 1 22.0142 9.43453 6.28889 -8.94974
142 1 3.14347 9.43551 6.28864 -8.94899
143 1 6.28849 9.43865 6.29051 -8.9507
144 1 9.42713 9.41616 6.2918 -8.9175
145 1 12.6194 9.404 6.24648 -8.88514
146 1 15.7377 9.43066 6.28211 -8.95421
147 1 18.8731 9.43386 6.28833 -8.9511
148 1 -0.000781328 1.34828e-15 9.43435 -8.94945
149 1 3.14298 7.43759e-16 9.43401 -8.94928
150 1 6.28828 1.7692e-15 9.43388 -8.95145
151 1 9.43493 1.6446e-15 9.43403 -8.94903
152 1 12.58 4.42716e-16 9.43446 -8.9503
153 1 15.725 9.78229e-16 9.43456 -8.94945
154 1 18.8693 9.11333e-16 9.43448 -8.94948
155 1 22.0126 3.14377 9.43423 -8.94936
156 1 3.14126 3.14182 9.43351 -8.94893
157 1 6.28501 3.1369 9.4326 -8.95148
158 1 9.43451 3.14108 9.43343 -8.94716
159 1 12.5804 3.1416 9.43396 -8.95188
160 1 15.7254 3.1433 9.43461 -8.94935
161 1 18.8695 3.14392 9.43447 -8.94937
162 1 22.0116 6.28865 9.43414 -8.95063
163 1 3.13555 6.28505 9.43228 -8.9503
164 1 6.26474 6.26553 9.42113 -8.91748
165 1 9.42979 6.28342 9.43154 -9.00929
166 1 12.5875 6.27753 9.42527 -8.94465
167 1 15.7282 6.28687 9.43431 -8.949
168 1 18.8702 6.28856 9.43459 -8.94981
169 1 22.0131 9.43483 9.43434 -8.9494
170 1 3.1418 9.43586 9.43412 -8.95002
171 1 6.28327 9.42936 9.4356 -8.96859
172 1 9.35975 9.15255 9.44553 -8.05845
173 1 12.5943 9.40814 9.38539 -8.83415
174 1 15.7282 9.43434 9.4322 -8.95251
175 1 18.8705 9.43448 9.43465 -8.94966
176 1 1.57079 1.57152 11.007 -8.94933
177 1 4.7146 1.56985 11.007 -8.9492
178 1 7.86156 1.56898 11.007 -8.95345
179 1 11.0072 1.5711 11.007 -8.94962
180 1 14.1527 1.57154 11.007 -8.94902
181 1 17.2973 1.57182 11.007 -8.94946
182 1 20.4412 1.57194 11.007 -8.94949
183 1 1.56862 4.71501 11.007 -8.94902
184 1 4.70849 4.70907 11.007 -8.94536
185 1 7.85526 4.69965 11.007 -8.9665
186 1 11.0071 4.7123 11.007 -8.95493
187 1 14.1537 4.71517 11.007 -8.94696
188 1 17.2981 4.7157 11.007 -8.94863
189 1 20.441 4.71616 11.007 -8.94957
190 1 1.56725 7.86156 11.007 -8.95428
191 1 4.69589 7.85464 11.007 -8.96703
192 1 7.77368 7.78611 11.007 -8.73416
193 1 11.0575 7.8386 11.007 -8.82983
194 1 14.1592 7.86239 11.007 -8.96703
195 1 17.2989 7.86145 11.007 -8.9508
196 1 20.4411 7.86173 11.007 -8.95041
197 1 -0.000781328 1.47091e-15 12.5796 -8.94945
198 1 1.57087 1.57156 14.1525 -8.94931
199 1 3.14298 1.23537e-15 12.5799 -8.94928
200 1 4.71484 1.56997 14.1535 -8.94974
201 1 6.28828 1.76766e-15 12.58 -8.95145
202 1 7.8617 1.56985 14.1528 -8.95123
203 1 9.43493 8.74873e-16 12.5799 -8.94903
204 1 11.0074 1.5708 14.1525 -8.94965
205 1 12.58 1.02013e-15 12.5794 -8.9503
206 1 14.1528 1.57087 14.1522 -8.95052
207 1 15.725 1.52392e-15 12.5793 -8.94945
208 1 17.2973 1.57178 14.1518 -8.94957
209 1 18.8693 1.65482e-15 12.5794 -8.94948
210 1 20.4412 1.57197 14.152 -8.94945
211 1 22.0126 3.14377 12.5797 -8.94936
212 1 1.56888 4.71518 14.1534 -8.94935
213 1 3.14126 3.14182 12.5804 -8.94893
214 1 4.70844 4.70901 14.158 -8.9412
215 1 6.28501 3.1369 12.5813 -8.95148
216 1 7.85792 4.706 14.1555 -8.9582
217 1 9.43451 3.14108 12.5805 -8.94716
218 1 11.0069 4.71144 14.1547 -8.95131
219 1 12.5804 3.1416 12.5799 -8.95188
220 1 14.1562 4.7109 14.1549 -8.94793
221 1 15.7254 3.1433 12.5793 -8.94935
222 1 17.2986 4.71542 14.1521 -8.94981
223 1 18.8695 3.14392 12.5794 -8.94937
224 1 20.4412 4.71627 14.1522 -8.94979
225 1 22.0116 6.28865 12.5798 -8.95063
226 1 1.56936 7.86199 14.1525 -8.95195
227 1 3.13555 6.28505 12.5816 -8.9503
228 1 4.70544 7.8588 14.1552 -8.96045
229 1 6.26474 6.26553 12.5928 -8.91748
230 1 7.81657 7.8203 14.1918 -8.85702
231 1 9.42979 6.28342 12.5824 -9.00929
232 1 11.0248 7.84364 14.1849 -8.89487
233 1 12.5875 6.27753 12.5886 -8.94465
234 1 14.1683 7.84935 14.1635 -8.93641
235 1 15.7282 6.28687 12.5796 -8.949
236 1 17.3017 7.86025 14.1527 -8.95223
237 1 18.8702 6.28856 12.5793 -8.94981
238 1 20.4421 7.86172 14.152 -8.95056
239 1 22.0131 9.43483 12.5796 -8.9494
240 1 3.1418 9.43586 12.5798 -8.95002
241 1 6.28327 9.42936 12.5783 -8.96859
242 1 9.35975 9.15255 12.5684 -8.05845
243 1 12.5943 9.40814 12.6285 -8.83415
244 1 15.7282 9.43434 12.5817 -8.95251
245 1 18.8705 9.43448 12.5792 -8.94966
246 1 22.0132 1.23571e-15 15.7247 -8.94944
247 1 1.57117 1.57172 17.2977 -8.94896
248 1 3.14321 1.36485e-15 15.7255 -8.94928
249 1 4.71584 1.57094 17.2984 -8.95004
250 1 6.28891 1.55607e-15 15.7255 -8.95051
251 1 7.86175 1.57104 17.2981 -8.94943
252 1 9.43474 1.58284e-15 15.7254 -8.9501
253 1 11.0073 1.57108 17.298 -8.94945
254 1 12.5799 9.37228e-16 15.7249 -8.95024
255 1 14.1526 1.57095 17.2976 -8.95053
256 1 15.7251 7.74585e-16 15.7247 -8.94996
257 1 17.2975 1.57152 17.2972 -8.94948
258 1 18.8693 1.63724e-15 15.7244 -8.9496
259 1 20.4414 1.57198 17.297 -8.94948
260 1 -0.00108566 3.1439 15.725 -8.94937
261 1 1.57048 4.71612 17.2982 -8.95
262 1 3.14162 3.14213 15.7268 -8.94751
263 1 4.71177 4.71229 17.3026 -8.94453
264 1 6.2871 3.14 15.7273 -8.9516
265 1 7.86027 4.713 17.3006 -8.94801
266 1 9.43443 3.14085 15.7266 -8.94997
267 1 11.0074 4.71306 17.3004 -8.94749
268 1 12.5803 3.14107 15.7258 -8.95187
269 1 14.1558 4.71112 17.3012 -8.94954
270 1 15.7262 3.14206 15.7255 -8.94913
271 1 17.2994 4.71459 17.2984 -8.94889
272 1 18.8697 3.14384 15.7246 -8.94966
273 1 20.4419 4.71638 17.2973 -8.94988
274 1 22.013 6.28908 15.725 -8.95049
275 1 1.57176 7.86222 17.2975 -8.94962
276 1 3.13956 6.28751 15.7273 -8.95175
277 1 4.71526 7.86274 17.2984 -8.95152
278 1 6.27416 6.27503 15.7402 -8.9309
279 1 7.85757 7.85733 17.3063 -8.9583
280 1 9.43267 6.27904 15.7321 -8.94674
281 1 11.0072 7.85689 17.3071 -8.95333
282 1 12.5878 6.27633 15.7357 -8.95089
283 1 14.166 7.8492 17.3124 -8.93376
284 1 15.7313 6.28368 15.7288 -8.94655
285 1 17.3025 7.8592 17.3 -8.95005
286 1 18.8713 6.28828 15.725 -8.95027
287 1 20.443 7.8615 17.2976 -8.94994
288 1 22.0142 9.43453 15.725 -8.94974
289 1 3.14347 9.43551 15.7253 -8.94899
290 1 6.28849 9.43865 15.7234 -8.9507
291 1 9.42713 9.41616 15.7221 -8.9175
292 1 12.6194 9.404 15.7674 -8.88514
293 1 15.7377 9.43066 15.7318 -8.95421
294 1 18.8731 9.43386 15.7256 -8.9511
295 1 -0.000462332 1.65629e-15 18.8695 -8.9492
296 1 1.57168 1.57193 20.442 -8.949
297 1 3.14388 1.79398e-15 18.8701 -8.94955
298 1 4.71666 1.57187 20.4421 -8.94952
299 1 6.28924 1.72239e-15 18.87 -8.94942
300 1 7.86183 1.5718 20.4421 -8.94939
301 1 9.43453 1.79029e-15 18.87 -8.94946
302 1 11.007 1.57175 20.442 -8.94943
303 1 12.5797 1.63068e-15 18.8699 -8.94942
304 1 14.1522 1.57171 20.442 -8.94941
305 1 15.7249 8.53764e-16 18.8697 -8.94998
306 1 17.2975 1.57163 20.442 -8.94945
307 1 18.8695 6.64021e-16 18.8694 -8.94943
308 1 20.4417 1.57203 20.4417 -8.94924
309 1 22.0135 3.14422 18.8698 -8.94955
310 1 1.57202 4.71696 20.442 -8.94995
311 1 3.14291 3.14322 18.8711 -8.94813
312 1 4.71578 4.71606 20.4431 -8.95012
313 1 6.28867 3.14318 18.8709 -8.94935
314 1 7.86131 4.71583 20.4428 -8.94908
315 1 9.43429 3.14306 18.8707 -8.94929
316 1 11.0068 4.71553 20.4428 -8.94928
317 1 12.5799 3.14292 18.8705 -8.94902
318 1 14.1528 4.71522 20.4429 -8.94981
319 1 15.726 3.1424 18.8707 -8.94938
320 1 17.2989 4.71505 20.4427 -8.94819
321 1 18.87 3.14374 18.8697 -8.94935
322 1 20.4423 4.71657 20.4419 -8.94947
323 1 22.0141 6.28934 18.8697 -8.94972
324 1 1.57227 7.86206 20.4419 -8.94935
325 1 3.1437 6.28953 18.8704 -8.95049
326 1 4.71684 7.86263 20.442 -8.94971
327 1 6.28685 6.28736 18.8739 -8.95167
328 1 7.86163 7.86209 20.4431 -8.95265
329 1 9.43349 6.28674 18.8729 -8.94801
330 1 11.0063 7.86085 20.4439 -8.95116
331 1 12.5807 6.28632 18.8738 -8.94992
332 1 14.1543 7.85979 20.4452 -8.9522
333 1 15.7296 6.28449 18.8742 -8.94524
334 1 17.2992 7.86073 20.4429 -8.94891
335 1 18.8714 6.28819 18.8704 -8.94948
336 1 20.4425 7.86167 20.442 -8.94937
337 1 0.000416155 9.43439 18.8698 -8.94948
338 1 3.14418 9.43468 18.87 -8.94894
339 1 6.28978 9.43586 18.869 -8.94927
340 1 9.43502 9.43474 18.8691 -8.94814
341 1 12.5829 9.43297 18.8789 -8.95991
342 1 15.7296 9.43262 18.8741 -8.94745
343 1 18.8716 9.43394 18.8706 -8.94921
344 1 1.57226 11.007 1.57197 -8.94954
345 1 4.71671 11.007 1.57195 -8.9497
346 1 7.86206 11.007 1.57327 -8.947
347 1 11.0066 11.007 1.57163 -8.9466
348 1 14.1552 11.007 1.56851 -8.95006
349 1 17.2993 11.007 1.57097 -8.94923
350 1 20.4425 11.007 1.57189 -8.94944
351 1 22.0142 12.5795 1.43437e-15 -8.9495
352 1 1.57227 14.1518 1.57201 -8.94935
353 1 3.14441 12.5793 1.71749e-15 -8.9495
354 1 4.71684 14.1513 1.57191 -8.94971
355 1 6.28936 12.5789 1.72922e-15 -8.94913
356 1 7.86163 14.1518 1.57083 -8.95265
357 1 9.4341 12.5791 -1.36104e-16 -8.94832
358 1 11.0063 14.1531 1.56997 -8.95116
359 1 12.5798 12.5797 5.7659e-15 -8.95332
360 1 14.1543 14.1541 1.56868 -8.9522
361 1 15.7268 12.5803 2.9015e-15 -8.9491
362 1 17.2992 14.1532 1.57101 -8.94891
363 1 18.8707 12.5797 1.42755e-15 -8.94934
364 1 20.4425 14.1522 1.57192 -8.94937
365 1 22.0142 15.7245 1.79939e-15 -8.94943
366 1 1.57202 17.2969 1.57189 -8.94995
367 1 3.14445 15.7241 1.86269e-15 -8.9499
368 1 4.71578 17.2978 1.57079 -8.95012
369 1 6.28881 15.7247 1.73437e-15 -8.95153
370 1 7.86131 17.2981 1.57109 -8.94908
371 1 9.43374 15.7255 1.69084e-15 -8.94971
372 1 11.0068 17.2984 1.57112 -8.94928
373 1 12.5795 15.7258 1.60516e-15 -8.94994
374 1 14.1528 17.2987 1.57097 -8.94981
375 1 15.7264 15.7264 2.34495e-15 -8.95021
376 1 17.2989 17.2989 1.57116 -8.94819
377 1 18.8705 15.7252 1.86015e-15 -8.9493
378 1 20.4423 17.2973 1.57199 -8.94947
379 1 22.0139 18.8695 6.84752e-16 -8.94957
380 1 1.57168 20.442 1.57189 -8.949
381 1 3.14391 18.8699 1.59966e-15 -8.94949
382 1 4.71666 20.442 1.5718 -8.94952
383 1 6.2891 18.8699 1.92002e-15 -8.94934
384 1 7.86183 20.4421 1.57183 -8.94939
385 1 9.43428 18.8701 -2.81377e-16 -8.94942
386 1 11.007 20.4422 1.57185 -8.94943
387 1 12.5796 18.8702 1.10283e-15 -8.94931
388 1 14.1522 20.4422 1.57193 -8.94941
389 1 15.7251 18.8704 1.19987e-15 -8.94969
390 1 17.2975 20.4423 1.57193 -8.94945
391 1 18.8702 18.8701 1.02788e-15 -8.94876
392 1 20.4417 20.4419 1.57219 -8.94924
393 1 1.57194 11.007 4.7161 -8.94943
394 1 4.71626 11.007 4.71579 -8.94619
395 1 7.86661 11.007 4.72409 -8.94352
396 1 11.0123 11.007 4.71809 -8.99196
397 1 14.1648 11.007 4.70346 -8.94193
398 1 17.3028 11.007 4.71353 -8.94902
399 1 20.4433 11.007 4.71613 -8.94983
400 1 0.000416155 12.5795 3.14407 -8.94948
401 1 1.57176 14.1517 4.71637 -8.94962
402 1 3.14418 12.5792 3.1439 -8.94894
403 1 4.71526 14.1512 4.71547 -8.95152
404 1 6.28978 12.578 3.14492 -8.94927
405 1 7.85757 14.1566 4.70764 -8.9583
406 1 9.43502 12.5792 3.14485 -8.94814
407 1 11.0072 14.157 4.70676 -8.95333
408 1 12.5829 12.5809 3.13497 -8.95991
409 1 14.166 14.1647 4.70151 -8.93376
410 1 15.7296 12.5813 3.13977 -8.94745
411 1 17.3025 14.1547 4.7139 -8.95005
412 1 18.8716 12.58 3.14334 -8.94921
413 1 20.443 14.1524 4.71633 -8.94994
414 1 22.0141 15.7246 3.14419 -8.94972
415 1 1.57048 17.2978 4.71566 -8.95
416 1 3.1437 15.7244 3.14353 -8.95049
417 1 4.71177 17.3016 4.7113 -8.94453
418 1 6.28685 15.7265 3.13999 -8.95167
419 1 7.86027 17.3009 4.71328 -8.94801
420 1 9.43349 15.7272 3.14101 -8.94801
421 1 11.0074 17.3008 4.71347 -8.94749
422 1 12.5807 15.7276 3.14012 -8.94992
423 1 14.1558 17.3028 4.71273 -8.94954
424 1 15.7296 15.7294 3.13966 -8.94524
425 1 17.2994 17.2993 4.71553 -8.94889
426 1 18.8714 15.7257 3.14351 -8.94948
427 1 20.4419 17.2975 4.71659 -8.94988
428 1 22.0135 18.8697 3.14414 -8.94955
429 1 1.57117 20.4422 4.71621 -8.94896
430 1 3.14291 18.8707 3.14284 -8.94813
431 1 4.71584 20.443 4.71554 -8.95004
432 1 6.28867 18.8707 3.14305 -8.94935
433 1 7.86175 20.4429 4.71579 -8.94943
434 1 9.43429 18.8708 3.14323 -8.94929
435 1 11.0073 20.4428 4.71591 -8.94945
436 1 12.5799 18.871 3.14336 -8.94902
437 1 14.1526 20.443 4.71632 -8.95053
438 1 15.726 18.8715 3.14319 -8.94938
439 1 17.2975 20.4424 4.71667 -8.94948
440 1 18.87 18.8702 3.14421 -8.94935
441 1 20.4414 20.4419 4.71688 -8.94948
442 1 1.57185 11.007 7.86116 -8.94733
443 1 4.72016 11.007 7.86256 -8.93762
444 1 7.88948 11.007 7.88495 -8.83969
445 1 11.1014 11.007 7.67811 -8.233
446 1 14.1723 11.007 7.84511 -8.96502
447 1 17.3032 11.007 7.86017 -8.95196
448 1 20.443 11.007 7.86168 -8.94999
449 1 22.0142 12.5794 6.28889 -8.94974
450 1 1.56936 14.1519 7.86138 -8.95195
451 1 3.14347 12.5784 6.28864 -8.94899
452 1 4.70544 14.1551 7.85869 -8.96045
453 1 6.28849 12.5752 6.29051 -8.9507
454 1 7.81657 14.1936 7.82211 -8.85702
455 1 9.42713 12.5977 6.2918 -8.9175
456 1 11.0248 14.1703 7.82902 -8.89487
457 1 12.6194 12.6099 6.24648 -8.88514
458 1 14.1683 14.1646 7.85036 -8.93641
459 1 15.7377 12.5832 6.28211 -8.95421
460 1 17.3017 14.1537 7.86124 -8.95223
461 1 18.8731 12.58 6.28833 -8.9511
462 1 20.4421 14.1522 7.8619 -8.95056
463 1 22.013 15.7248 6.28891 -8.95049
464 1 1.56888 17.2987 7.86051 -8.94935
465 1 3.13956 15.7264 6.2866 -8.95175
466 1 4.70844 17.3049 7.85591 -8.9412
467 1 6.27416 15.7389 6.27366 -8.9309
468 1 7.85792 17.3079 7.85835 -8.9582
469 1 9.43267 15.7349 6.2818 -8.94674
470 1 11.0069 17.3025 7.85918 -8.95131
471 1 12.5878 15.7376 6.27821 -8.95089
472 1 14.1562 17.303 7.85897 -8.94793
473 1 15.7313 15.7302 6.28509 -8.94655
474 1 17.2986 17.2985 7.86176 -8.94981
475 1 18.8713 15.7256 6.28891 -8.95027
476 1 20.4412 17.2976 7.86175 -8.94979
477 1 -0.00108566 18.87 6.2889 -8.94937
478 1 1.57087 20.4423 7.86139 -8.94931
479 1 3.14162 18.8718 6.28714 -8.94751
480 1 4.71484 20.4439 7.86042 -8.94974
481 1 6.2871 18.8739 6.28665 -8.9516
482 1 7.8617 20.444 7.86108 -8.95123
483 1 9.43443 18.8731 6.28729 -8.94997
484 1 11.0074 20.4431 7.86137 -8.94965
485 1 12.5803 18.8728 6.2881 -8.95187
486 1 14.1528 20.443 7.86169 -8.95052
487 1 15.7262 18.8718 6.28844 -8.94913
488 1 17.2973 20.4421 7.86206 -8.94957
489 1 18.8697 18.8701 6.28934 -8.94966
490 1 20.4412 20.4419 7.86189 -8.94945
491 1 22.0131 12.5791 9.43434 -8.9494
492 1 3.1418 12.578 9.43412 -8.95002
493 1 6.28327 12.5845 9.4356 -8.96859
494 1 9.35975 12.8614 9.44553 -8.05845
495 1 12.5943 12.6058 9.38539 -8.83415
496 1 15.7282 12.5796 9.4322 -8.95251
497 1 18.8705 12.5794 9.43465 -8.94966
498 1 22.0116 15.7253 9.43414 -8.95063
499 1 3.13555 15.7288 9.43228 -8.9503
500 1 6.26474 15.7484 9.42113 -8.91748
501 1 9.42979 15.7305 9.43154 -9.00929
502 1 12.5875 15.7364 9.42527 -8.94465
503 1 15.7282 15.727 9.43431 -8.949
504 1 18.8702 15.7253 9.43459 -8.94981
505 1 22.0126 18.8701 9.43423 -8.94936
506 1 3.14126 18.8721 9.43351 -8.94893
507 1 6.28501 18.877 9.4326 -8.95148
508 1 9.43451 18.8728 9.43343 -8.94716
509 1 12.5804 18.8723 9.43396 -8.95188
510 1 15.7254 18.8706 9.43461 -8.94935
511 1 18.8695 18.87 9.43447 -8.94937
688 3 10.0795 11.007 9.39745 2.36131
512 1 1.57198 11.007 11.007 -8.94509
513 1 4.72457 11.007 11.007 -8.93309
514 1 7.90327 11.007 11.007 -8.72062
515 1 11.2673 11.007 11.007 -7.40644
516 1 14.1389 11.007 11.007 -9.01402
517 1 17.2955 11.007 11.007 -8.94483
518 1 20.4414 11.007 11.007 -8.94775
519 1 1.56725 14.1523 11.007 -8.95428
520 1 4.69589 14.1593 11.007 -8.96703
521 1 7.77368 14.2278 11.007 -8.73416
522 1 11.0575 14.1753 11.007 -8.82983
523 1 14.1592 14.1515 11.007 -8.96703
524 1 17.2989 14.1525 11.007 -8.9508
525 1 20.4411 14.1522 11.007 -8.95041
526 1 1.56862 17.2989 11.007 -8.94902
527 1 4.70849 17.3048 11.007 -8.94536
528 1 7.85526 17.3142 11.007 -8.9665
529 1 11.0071 17.3016 11.007 -8.95493
530 1 14.1537 17.2987 11.007 -8.94696
531 1 17.2981 17.2982 11.007 -8.94863
532 1 20.441 17.2977 11.007 -8.94957
533 1 1.57079 20.4424 11.007 -8.94933
534 1 4.7146 20.4441 11.007 -8.9492
535 1 7.86156 20.4449 11.007 -8.95345
536 1 11.0072 20.4428 11.007 -8.94962
537 1 14.1527 20.4424 11.007 -8.94902
538 1 17.2973 20.4421 11.007 -8.94946
539 1 20.4412 20.442 11.007 -8.94949
540 1 1.57185 11.007 14.1527 -8.94733
541 1 4.72016 11.007 14.1513 -8.93762
542 1 7.88948 11.007 14.1289 -8.83969
543 1 11.1014 11.007 14.3358 -8.233
544 1 14.1723 11.007 14.1688 -8.96502
545 1 17.3032 11.007 14.1537 -8.95196
546 1 20.443 11.007 14.1522 -8.94999
547 1 22.0131 12.5791 12.5796 -8.9494
548 1 1.56936 14.1519 14.1525 -8.95195
549 1 3.1418 12.578 12.5798 -8.95002
550 1 4.70544 14.1551 14.1552 -8.96045
551 1 6.28327 12.5845 12.5783 -8.96859
552 1 7.81657 14.1936 14.1918 -8.85702
553 1 9.35975 12.8614 12.5684 -8.05845
554 1 11.0248 14.1703 14.1849 -8.89487
555 1 12.5943 12.6058 12.6285 -8.83415
556 1 14.1683 14.1646 14.1635 -8.93641
557 1 15.7282 12.5796 12.5817 -8.95251
558 1 17.3017 14.1537 14.1527 -8.95223
559 1 18.8705 12.5794 12.5792 -8.94966
560 1 20.4421 14.1522 14.152 -8.95056
561 1 22.0116 15.7253 12.5798 -8.95063
562 1 1.56888 17.2987 14.1534 -8.94935
563 1 3.13555 15.7288 12.5816 -8.9503
564 1 4.70844 17.3049 14.158 -8.9412
565 1 6.26474 15.7484 12.5928 -8.91748
566 1 7.85792 17.3079 14.1555 -8.9582
567 1 9.42979 15.7305 12.5824 -9.00929
568 1 11.0069 17.3025 14.1547 -8.95131
569 1 12.5875 15.7364 12.5886 -8.94465
570 1 14.1562 17.303 14.1549 -8.94793
571 1 15.7282 15.727 12.5796 -8.949
572 1 17.2986 17.2985 14.1521 -8.94981
573 1 18.8702 15.7253 12.5793 -8.94981
574 1 20.4412 17.2976 14.1522 -8.94979
575 1 22.0126 18.8701 12.5797 -8.94936
576 1 1.57087 20.4423 14.1525 -8.94931
577 1 3.14126 18.8721 12.5804 -8.94893
578 1 4.71484 20.4439 14.1535 -8.94974
579 1 6.28501 18.877 12.5813 -8.95148
580 1 7.8617 20.444 14.1528 -8.95123
581 1 9.43451 18.8728 12.5805 -8.94716
582 1 11.0074 20.4431 14.1525 -8.94965
583 1 12.5804 18.8723 12.5799 -8.95188
584 1 14.1528 20.443 14.1522 -8.95052
585 1 15.7254 18.8706 12.5793 -8.94935
586 1 17.2973 20.4421 14.1518 -8.94957
587 1 18.8695 18.87 12.5794 -8.94937
588 1 20.4412 20.4419 14.152 -8.94945
589 1 1.57194 11.007 17.2978 -8.94943
590 1 4.71626 11.007 17.2981 -8.94619
591 1 7.86661 11.007 17.2898 -8.94352
592 1 11.0123 11.007 17.2958 -8.99196
593 1 14.1648 11.007 17.3104 -8.94193
594 1 17.3028 11.007 17.3004 -8.94902
595 1 20.4433 11.007 17.2978 -8.94983
596 1 22.0142 12.5794 15.725 -8.94974
597 1 1.57176 14.1517 17.2975 -8.94962
598 1 3.14347 12.5784 15.7253 -8.94899
599 1 4.71526 14.1512 17.2984 -8.95152
600 1 6.28849 12.5752 15.7234 -8.9507
601 1 7.85757 14.1566 17.3063 -8.9583
602 1 9.42713 12.5977 15.7221 -8.9175
603 1 11.0072 14.157 17.3071 -8.95333
604 1 12.6194 12.6099 15.7674 -8.88514
605 1 14.166 14.1647 17.3124 -8.93376
606 1 15.7377 12.5832 15.7318 -8.95421
607 1 17.3025 14.1547 17.3 -8.95005
608 1 18.8731 12.58 15.7256 -8.9511
609 1 20.443 14.1524 17.2976 -8.94994
610 1 22.013 15.7248 15.725 -8.95049
611 1 1.57048 17.2978 17.2982 -8.95
612 1 3.13956 15.7264 15.7273 -8.95175
613 1 4.71177 17.3016 17.3026 -8.94453
614 1 6.27416 15.7389 15.7402 -8.9309
615 1 7.86027 17.3009 17.3006 -8.94801
616 1 9.43267 15.7349 15.7321 -8.94674
617 1 11.0074 17.3008 17.3004 -8.94749
618 1 12.5878 15.7376 15.7357 -8.95089
619 1 14.1558 17.3028 17.3012 -8.94954
620 1 15.7313 15.7302 15.7288 -8.94655
621 1 17.2994 17.2993 17.2984 -8.94889
622 1 18.8713 15.7256 15.725 -8.95027
623 1 20.4419 17.2975 17.2973 -8.94988
624 1 -0.00108566 18.87 15.725 -8.94937
625 1 1.57117 20.4422 17.2977 -8.94896
626 1 3.14162 18.8718 15.7268 -8.94751
627 1 4.71584 20.443 17.2984 -8.95004
628 1 6.2871 18.8739 15.7273 -8.9516
629 1 7.86175 20.4429 17.2981 -8.94943
630 1 9.43443 18.8731 15.7266 -8.94997
631 1 11.0073 20.4428 17.298 -8.94945
632 1 12.5803 18.8728 15.7258 -8.95187
633 1 14.1526 20.443 17.2976 -8.95053
634 1 15.7262 18.8718 15.7255 -8.94913
635 1 17.2975 20.4424 17.2972 -8.94948
636 1 18.8697 18.8701 15.7246 -8.94966
637 1 20.4414 20.4419 17.297 -8.94948
638 1 1.57226 11.007 20.4419 -8.94954
639 1 4.71671 11.007 20.442 -8.9497
640 1 7.86206 11.007 20.4406 -8.947
641 1 11.0066 11.007 20.4423 -8.9466
642 1 14.1552 11.007 20.4454 -8.95006
643 1 17.2993 11.007 20.4429 -8.94923
644 1 20.4425 11.007 20.442 -8.94944
645 1 0.000416155 12.5795 18.8698 -8.94948
646 1 1.57227 14.1518 20.4419 -8.94935
647 1 3.14418 12.5792 18.87 -8.94894
648 1 4.71684 14.1513 20.442 -8.94971
649 1 6.28978 12.578 18.869 -8.94927
650 1 7.86163 14.1518 20.4431 -8.95265
651 1 9.43502 12.5792 18.8691 -8.94814
652 1 11.0063 14.1531 20.4439 -8.95116
653 1 12.5829 12.5809 18.8789 -8.95991
654 1 14.1543 14.1541 20.4452 -8.9522
655 1 15.7296 12.5813 18.8741 -8.94745
656 1 17.2992 14.1532 20.4429 -8.94891
657 1 18.8716 12.58 18.8706 -8.94921
658 1 20.4425 14.1522 20.442 -8.94937
659 1 22.0141 15.7246 18.8697 -8.94972
660 1 1.57202 17.2969 20.442 -8.94995
661 1 3.1437 15.7244 18.8704 -8.95049
662 1 4.71578 17.2978 20.4431 -8.95012
663 1 6.28685 15.7265 18.8739 -8.95167
664 1 7.86131 17.2981 20.4428 -8.94908
665 1 9.43349 15.7272 18.8729 -8.94801
666 1 11.0068 17.2984 20.4428 -8.94928
667 1 12.5807 15.7276 18.8738 -8.94992
668 1 14.1528 17.2987 20.4429 -8.94981
669 1 15.7296 15.7294 18.8742 -8.94524
670 1 17.2989 17.2989 20.4427 -8.94819
671 1 18.8714 15.7257 18.8704 -8.94948
672 1 20.4423 17.2973 20.4419 -8.94947
673 1 22.0135 18.8697 18.8698 -8.94955
674 1 1.57168 20.442 20.442 -8.949
675 1 3.14291 18.8707 18.8711 -8.94813
676 1 4.71666 20.442 20.4421 -8.94952
677 1 6.28867 18.8707 18.8709 -8.94935
678 1 7.86183 20.4421 20.4421 -8.94939
679 1 9.43429 18.8708 18.8707 -8.94929
680 1 11.007 20.4422 20.442 -8.94943
681 1 12.5799 18.871 18.8705 -8.94902
682 1 14.1522 20.4422 20.442 -8.94941
683 1 15.726 18.8715 18.8707 -8.94938
684 1 17.2975 20.4423 20.442 -8.94945
685 1 18.87 18.8702 18.8697 -8.94935
686 1 20.4417 20.4419 20.4417 -8.94924
687 3 10.0795 11.007 12.6165 2.36131
