ITEM: TIMESTEP
81
ITEM: NUMBER OF ATOMS
688
ITEM: BOX BOUNDS pp pp pp
0.0000000000000000e+00 2.2013900999999997e+01
0.0000000000000000e+00 2.2013900999999997e+01
0.0000000000000000e+00 2.2013900999999997e+01
ITEM: ATOMS id type x y z c_pot
1 1 22.0137 8.47096e-16 6.628e-16 -8.94906
2 1 1.57182 1.57201 1.57199 -8.94906
3 1 3.14448 1.6481e-15 5.42219e-16 -8.94963
4 1 4.71682 1.57196 1.57192 -8.94956
5 1 6.28947 1.84298e-15 3.64064e-16 -8.94947
6 1 7.86192 1.5719 1.57193 -8.94943
7 1 9.43448 1.81922e-15 2.99474e-16 -8.94952
8 1 11.007 1.57185 1.57194 -8.94947
9 1 12.5795 1.84457e-15 1.00107e-15 -8.94949
10 1 14.1521 1.57184 1.57202 -8.94944
11 1 15.7245 1.71389e-15 -5.52177e-16 -8.94956
12 1 17.2973 1.57177 1.57201 -8.94949
13 1 18.8695 1.0754e-15 1.30705e-15 -8.94926
14 1 20.4416 1.57211 1.57225 -8.9493
15 1 22.0139 3.14454 1.72625e-15 -8.9496
16 1 1.57207 4.71703 1.57198 -8.94992
17 1 3.14406 3.14414 1.73158e-15 -8.94948
18 1 4.71596 4.71616 1.57094 -8.95006
19 1 6.28924 3.14411 1.20697e-15 -8.94935
20 1 7.86144 4.71598 1.57122 -8.94907
21 1 9.43435 3.14392 8.08292e-16 -8.94944
22 1 11.0068 4.71573 1.57126 -8.94929
23 1 12.5795 3.14388 1.38429e-15 -8.94934
24 1 14.1526 4.71551 1.57116 -8.94978
25 1 15.7248 3.1438 -4.65814e-17 -8.94971
26 1 17.2985 4.71534 1.57128 -8.9482
27 1 18.87 3.14398 1.10952e-15 -8.9488
28 1 20.4421 4.71672 1.57206 -8.9495
29 1 22.0141 6.2895 1.70081e-15 -8.94946
30 1 1.57222 7.86206 1.57207 -8.94937
31 1 3.14448 6.28977 1.74856e-15 -8.94986
32 1 4.71684 7.86256 1.57193 -8.94969
33 1 6.2889 6.28925 1.4975e-15 -8.95145
34 1 7.86164 7.86208 1.57083 -8.95262
35 1 9.43381 6.28845 8.86119e-16 -8.94966
36 1 11.0062 7.86092 1.57005 -8.95107
37 1 12.5794 6.28832 7.18955e-16 -8.94986
38 1 14.154 7.85997 1.56887 -8.95221
39 1 15.7261 6.28775 9.87241e-16 -8.95023
40 1 17.2988 7.86096 1.57117 -8.94896
41 1 18.8702 6.28895 1.60659e-15 -8.94936
42 1 20.4423 7.86177 1.572 -8.94941
43 1 22.0141 9.43444 1.80034e-15 -8.94953
44 1 3.14438 9.43455 1.82955e-15 -8.94952
45 1 6.2893 9.43495 1.73906e-15 -8.94917
46 1 9.43407 9.4348 1.44833e-15 -8.94839
47 1 12.5796 9.43428 8.52962e-16 -8.95332
48 1 15.7264 9.43373 1.52621e-15 -8.94911
49 1 18.8703 9.43425 1.70538e-15 -8.94938
50 1 -0.000358165 1.55596e-15 3.14452 -8.94927
51 1 1.57141 1.57183 4.71643 -8.94903
52 1 3.14409 1.31741e-15 3.14403 -8.94958
53 1 4.7161 1.57111 4.71583 -8.95005
54 1 6.28937 1.80151e-15 3.14406 -8.94945
55 1 7.86187 1.57119 4.71602 -8.94944
56 1 9.43455 1.85909e-15 3.14405 -8.94949
57 1 11.0073 1.57121 4.7161 -8.94946
58 1 12.5797 1.98224e-15 3.14415 -8.94944
59 1 14.1525 1.57111 4.71648 -8.95051
60 1 15.7248 1.53472e-15 3.14432 -8.94997
61 1 17.2974 1.57166 4.71679 -8.9495
62 1 18.8694 5.07619e-16 3.14457 -8.94947
63 1 20.4414 1.57207 4.71699 -8.94952
64 1 22.0135 3.14434 3.14428 -8.94957
65 1 1.5707 4.71626 4.71589 -8.94997
66 1 3.14317 3.14339 3.1431 -8.94817
67 1 4.71221 4.71262 4.71173 -8.94461
68 1 6.28888 3.14338 3.1433 -8.94938
69 1 7.86054 4.71335 4.71363 -8.94808
70 1 9.43436 3.14327 3.14344 -8.94931
71 1 11.0073 4.71339 4.71385 -8.94754
72 1 12.5798 3.14316 3.14358 -8.94905
73 1 14.1553 4.71154 4.71319 -8.94968
74 1 15.7257 3.1427 3.14342 -8.94942
75 1 17.2991 4.71489 4.71576 -8.94886
76 1 18.8699 3.14394 3.14434 -8.94937
77 1 20.4418 4.71653 4.71672 -8.94985
78 1 22.0141 6.28941 3.1443 -8.94972
79 1 1.57175 7.86222 4.71646 -8.94961
80 1 3.14381 6.28956 3.14368 -8.95043
81 1 4.71531 7.86275 4.7155 -8.95146
82 1 6.28703 6.28749 3.14021 -8.95157
83 1 7.85756 7.85753 4.70768 -8.95808
84 1 9.43354 6.28696 3.14123 -8.94797
85 1 11.007 7.85713 4.70707 -8.95309
86 1 12.5804 6.2866 3.14052 -8.94982
87 1 14.1657 7.84926 4.70183 -8.93337
88 1 15.7292 6.28479 3.13995 -8.94515
89 1 17.3021 7.85943 4.71422 -8.95012
90 1 18.8711 6.28841 3.14368 -8.94952
91 1 20.4428 7.86159 4.71646 -8.94995
92 1 0.000264346 9.43441 3.14417 -8.9495
93 1 3.14413 9.43465 3.14392 -8.94896
94 1 6.28965 9.4358 3.14471 -8.94928
95 1 9.43491 9.43481 3.14466 -8.94838
96 1 12.5826 9.43304 3.13514 -8.96006
97 1 15.7291 9.43277 3.14014 -8.94743
98 1 18.8712 9.43404 3.14354 -8.94924
99 1 22.0134 1.32598e-15 6.28936 -8.94949
100 1 1.57119 1.5717 7.86156 -8.94937
101 1 3.14352 1.59572e-15 6.28865 -8.94932
102 1 4.71523 1.57021 7.86067 -8.94975
103 1 6.28909 1.33808e-15 6.28863 -8.95049
104 1 7.86186 1.57005 7.86125 -8.95117
105 1 9.43477 1.76925e-15 6.28869 -8.95008
106 1 11.0073 1.57093 7.86149 -8.9496
107 1 12.5798 1.34903e-15 6.28913 -8.95021
108 1 14.1527 1.571 7.86178 -8.9505
109 1 15.725 1.71488e-15 6.28933 -8.94994
110 1 17.2972 1.57187 7.86209 -8.94958
111 1 18.8693 1.05531e-15 6.28958 -8.94962
112 1 20.4413 1.57205 7.86195 -8.94948
113 1 -0.000900092 3.14405 6.28906 -8.9494
114 1 1.5693 4.71542 7.86072 -8.94935
115 1 3.14206 3.14242 6.28748 -8.9476
116 1 4.70915 4.70958 7.85632 -8.94142
117 1 6.28748 3.14039 6.287 -8.9516
118 1 7.85839 4.70666 7.8587 -8.95824
119 1 9.43454 3.14116 6.28756 -8.94998
120 1 11.0068 4.71196 7.8596 -8.95124
121 1 12.5802 3.14137 6.28837 -8.95188
122 1 14.1558 4.71125 7.85938 -8.94817
123 1 15.726 3.14234 6.28866 -8.94918
124 1 17.2984 4.71561 7.86189 -8.94978
125 1 18.8696 3.14402 6.28944 -8.94967
126 1 20.4413 4.71641 7.86182 -8.94976
127 1 22.0131 6.28916 6.28901 -8.95044
128 1 1.56949 7.86202 7.86142 -8.95187
129 1 3.13994 6.2877 6.28684 -8.95167
130 1 4.70573 7.85906 7.85873 -8.96022
131 1 6.27476 6.27562 6.27415 -8.93118
132 1 7.81714 7.82142 7.82261 -8.85811
133 1 9.43276 6.27963 6.28223 -8.94693
134 1 11.0239 7.84486 7.82978 -8.89575
135 1 12.5872 6.2768 6.279 -8.95137
136 1 14.1681 7.84933 7.85075 -8.93577
137 1 15.7308 6.28394 6.28546 -8.9464
138 1 17.3016 7.86029 7.86143 -8.95217
139 1 18.8711 6.28843 6.28904 -8.95021
140 1 20.4421 7.86174 7.86194 -8.95053
141 1 22.014 9.43453 6.28896 -8.94976
142 1 3.14334 9.43548 6.2886 -8.94903
143 1 6.28812 9.43862 6.29011 -8.9507
144 1 9.42658 9.41645 6.2912 -8.91679
145 1 12.6196 9.4034 6.24631 -8.88322
146 1 15.7374 9.43074 6.28258 -8.95436
147 1 18.8728 9.43392 6.28852 -8.95112
148 1 -0.000578441 1.45746e-15 9.4344 -8.9495
149 1 3.14334 1.09782e-15 9.43413 -8.94931
150 1 6.28855 1.79886e-15 9.43398 -8.95136
151 1 9.43498 1.50038e-15 9.4341 -8.94901
152 1 12.5799 1.46396e-15 9.43448 -8.95026
153 1 15.7249 1.15154e-15 9.43457 -8.94947
154 1 18.8693 1.05572e-15 9.43449 -8.94951
155 1 22.0129 3.14394 9.43429 -8.94939
156 1 3.1418 3.14219 9.43366 -8.94898
157 1 6.28554 3.13742 9.43278 -8.95145
158 1 9.43467 3.14141 9.43354 -8.94696
159 1 12.5803 3.14184 9.43409 -8.95186
160 1 15.7253 3.14343 9.43467 -8.94939
161 1 18.8695 3.14404 9.43449 -8.9494
162 1 22.0119 6.28876 9.43418 -8.95056
163 1 3.13616 6.28543 9.43241 -8.95026
164 1 6.26567 6.26653 9.42151 -8.91818
165 1 9.42992 6.28476 9.43176 -9.00882
166 1 12.5868 6.27819 9.4258 -8.94541
167 1 15.7279 6.28698 9.43449 -8.94889
168 1 18.8702 6.28863 9.43462 -8.94973
169 1 22.0131 9.43481 9.43434 -8.94947
170 1 3.14159 9.43587 9.43405 -8.95009
171 1 6.28255 9.42965 9.43537 -8.96849
172 1 9.35911 9.15685 9.44533 -8.05806
173 1 12.5949 9.4081 9.38485 -8.83162
174 1 15.7284 9.43424 9.43236 -8.95257
175 1 18.8706 9.43444 9.4347 -8.9497
176 1 1.57113 1.57167 11.007 -8.94938
177 1 4.71504 1.5701 11.007 -8.94922
178 1 7.86175 1.5692 11.007 -8.95336
179 1 11.0072 1.57121 11.007 -8.94954
180 1 14.1526 1.57161 11.007 -8.94904
181 1 17.2973 1.57188 11.007 -8.94948
182 1 20.4413 1.57202 11.007 -8.94952
183 1 1.56911 4.7153 11.007 -8.94904
184 1 4.70929 4.7097 11.007 -8.94548
185 1 7.85591 4.70046 11.007 -8.96657
186 1 11.0069 4.71288 11.007 -8.95482
187 1 14.1534 4.71537 11.007 -8.94711
188 1 17.298 4.7158 11.007 -8.94862
189 1 20.4412 4.71629 11.007 -8.94955
190 1 1.56748 7.86164 11.007 -8.95418
191 1 4.69632 7.85511 11.007 -8.9667
192 1 7.775 7.78793 11.007 -8.73667
193 1 11.0561 7.84051 11.007 -8.83254
194 1 14.1589 7.86248 11.007 -8.96685
195 1 17.299 7.86139 11.007 -8.95065
196 1 20.4412 7.86172 11.007 -8.95036
197 1 -0.000578441 1.28781e-15 12.5795 -8.9495
198 1 1.57119 1.5717 14.1523 -8.94937
199 1 3.14334 1.19774e-15 12.5798 -8.94931
200 1 4.71523 1.57021 14.1532 -8.94975
201 1 6.28855 1.78511e-15 12.5799 -8.95136
202 1 7.86186 1.57005 14.1526 -8.95117
203 1 9.43498 1.17949e-15 12.5798 -8.94901
204 1 11.0073 1.57093 14.1524 -8.9496
205 1 12.5799 1.5772e-15 12.5794 -8.95026
206 1 14.1527 1.571 14.1521 -8.9505
207 1 15.7249 1.33317e-15 12.5793 -8.94947
208 1 17.2972 1.57187 14.1518 -8.94958
209 1 18.8693 1.78579e-15 12.5794 -8.94951
210 1 20.4413 1.57205 14.1519 -8.94948
211 1 22.0129 3.14394 12.5796 -8.94939
212 1 1.5693 4.71542 14.1532 -8.94935
213 1 3.1418 3.14219 12.5802 -8.94898
214 1 4.70915 4.70958 14.1576 -8.94142
215 1 6.28554 3.13742 12.5811 -8.95145
216 1 7.85839 4.70666 14.1552 -8.95824
217 1 9.43467 3.14141 12.5804 -8.94696
218 1 11.0068 4.71196 14.1543 -8.95124
219 1 12.5803 3.14184 12.5798 -8.95186
220 1 14.1558 4.71125 14.1545 -8.94817
221 1 15.7253 3.14343 12.5792 -8.94939
222 1 17.2984 4.71561 14.152 -8.94978
223 1 18.8695 3.14404 12.5794 -8.9494
224 1 20.4413 4.71641 14.1521 -8.94976
225 1 22.0119 6.28876 12.5797 -8.95056
226 1 1.56949 7.86202 14.1525 -8.95187
227 1 3.13616 6.28543 12.5815 -8.95026
228 1 4.70573 7.85906 14.1552 -8.96022
229 1 6.26567 6.26653 12.5924 -8.91818
230 1 7.81714 7.82142 14.1913 -8.85811
231 1 9.42992 6.28476 12.5821 -9.00882
232 1 11.0239 7.84486 14.1841 -8.89575
233 1 12.5868 6.27819 12.5881 -8.94541
234 1 14.1681 7.84933 14.1631 -8.93577
235 1 15.7279 6.28698 12.5794 -8.94889
236 1 17.3016 7.86029 14.1525 -8.95217
237 1 18.8702 6.28863 12.5793 -8.94973
238 1 20.4421 7.86174 14.152 -8.95053
239 1 22.0131 9.43481 12.5796 -8.94947
240 1 3.14159 9.43587 12.5798 -8.95009
241 1 6.28255 9.42965 12.5785 -8.96849
242 1 9.35911 9.15685 12.5686 -8.05806
243 1 12.5949 9.4081 12.6291 -8.83162
244 1 15.7284 9.43424 12.5815 -8.95257
245 1 18.8706 9.43444 12.5792 -8.9497
246 1 22.0134 1.41764e-15 15.7245 -8.94949
247 1 1.57141 1.57183 17.2975 -8.94903
248 1 3.14352 1.51734e-15 15.7253 -8.94932
249 1 4.7161 1.57111 17.2981 -8.95005
250 1 6.28909 1.71103e-15 15.7253 -8.95049
251 1 7.86187 1.57119 17.2979 -8.94944
252 1 9.43477 1.74915e-15 15.7252 -8.95008
253 1 11.0073 1.57121 17.2978 -8.94946
254 1 12.5798 1.01502e-15 15.7248 -8.95021
255 1 14.1525 1.57111 17.2974 -8.95051
256 1 15.725 1.6896e-15 15.7246 -8.94994
257 1 17.2974 1.57166 17.2971 -8.9495
258 1 18.8693 1.6648e-15 15.7243 -8.94962
259 1 20.4414 1.57207 17.2969 -8.94952
260 1 -0.000900092 3.14405 15.7248 -8.9494
261 1 1.5707 4.71626 17.298 -8.94997
262 1 3.14206 3.14242 15.7264 -8.9476
263 1 4.71221 4.71262 17.3022 -8.94461
264 1 6.28748 3.14039 15.7269 -8.9516
265 1 7.86054 4.71335 17.3003 -8.94808
266 1 9.43454 3.14116 15.7263 -8.94998
267 1 11.0073 4.71339 17.3001 -8.94754
268 1 12.5802 3.14137 15.7255 -8.95188
269 1 14.1553 4.71154 17.3007 -8.94968
270 1 15.726 3.14234 15.7252 -8.94918
271 1 17.2991 4.71489 17.2981 -8.94886
272 1 18.8696 3.14402 15.7245 -8.94967
273 1 20.4418 4.71653 17.2972 -8.94985
274 1 22.0131 6.28916 15.7249 -8.95044
275 1 1.57175 7.86222 17.2974 -8.94961
276 1 3.13994 6.2877 15.7271 -8.95167
277 1 4.71531 7.86275 17.2984 -8.95146
278 1 6.27476 6.27562 15.7397 -8.93118
279 1 7.85756 7.85753 17.3062 -8.95808
280 1 9.43276 6.27963 15.7317 -8.94693
281 1 11.007 7.85713 17.3068 -8.95309
282 1 12.5872 6.2768 15.7349 -8.95137
283 1 14.1657 7.84926 17.3121 -8.93337
284 1 15.7308 6.28394 15.7284 -8.9464
285 1 17.3021 7.85943 17.2997 -8.95012
286 1 18.8711 6.28843 15.7249 -8.95021
287 1 20.4428 7.86159 17.2974 -8.94995
288 1 22.014 9.43453 15.7249 -8.94976
289 1 3.14334 9.43548 15.7253 -8.94903
290 1 6.28812 9.43862 15.7238 -8.9507
291 1 9.42658 9.41645 15.7227 -8.91679
292 1 12.6196 9.4034 15.7676 -8.88322
293 1 15.7374 9.43074 15.7313 -8.95436
294 1 18.8728 9.43392 15.7254 -8.95112
295 1 -0.000358165 1.70643e-15 18.8694 -8.94927
296 1 1.57182 1.57201 20.4419 -8.94906
297 1 3.14409 1.77096e-15 18.8699 -8.94958
298 1 4.71682 1.57196 20.442 -8.94956
299 1 6.28937 1.77063e-15 18.8698 -8.94945
300 1 7.86192 1.5719 20.442 -8.94943
301 1 9.43455 1.76064e-15 18.8699 -8.94949
302 1 11.007 1.57185 20.442 -8.94947
303 1 12.5797 1.85213e-15 18.8697 -8.94944
304 1 14.1521 1.57184 20.4419 -8.94944
305 1 15.7248 1.48632e-15 18.8696 -8.94997
306 1 17.2973 1.57177 20.4419 -8.94949
307 1 18.8694 5.71469e-16 18.8693 -8.94947
308 1 20.4416 1.57211 20.4416 -8.9493
309 1 22.0135 3.14434 18.8696 -8.94957
310 1 1.57207 4.71703 20.4419 -8.94992
311 1 3.14317 3.14339 18.8708 -8.94817
312 1 4.71596 4.71616 20.443 -8.95006
313 1 6.28888 3.14338 18.8706 -8.94938
314 1 7.86144 4.71598 20.4427 -8.94907
315 1 9.43436 3.14327 18.8705 -8.94931
316 1 11.0068 4.71573 20.4426 -8.94929
317 1 12.5798 3.14316 18.8703 -8.94905
318 1 14.1526 4.71551 20.4427 -8.94978
319 1 15.7257 3.1427 18.8705 -8.94942
320 1 17.2985 4.71534 20.4426 -8.9482
321 1 18.8699 3.14394 18.8696 -8.94937
322 1 20.4421 4.71672 20.4418 -8.9495
323 1 22.0141 6.28941 18.8696 -8.94972
324 1 1.57222 7.86206 20.4418 -8.94937
325 1 3.14381 6.28956 18.8702 -8.95043
326 1 4.71684 7.86256 20.442 -8.94969
327 1 6.28703 6.28749 18.8737 -8.95157
328 1 7.86164 7.86208 20.4431 -8.95262
329 1 9.43354 6.28696 18.8727 -8.94797
330 1 11.0062 7.86092 20.4438 -8.95107
331 1 12.5804 6.2866 18.8734 -8.94982
332 1 14.154 7.85997 20.445 -8.95221
333 1 15.7292 6.28479 18.874 -8.94515
334 1 17.2988 7.86096 20.4427 -8.94896
335 1 18.8711 6.28841 18.8702 -8.94952
336 1 20.4423 7.86177 20.4419 -8.94941
337 1 0.000264346 9.43441 18.8697 -8.9495
338 1 3.14413 9.43465 18.87 -8.94896
339 1 6.28965 9.4358 18.8692 -8.94928
340 1 9.43491 9.43481 18.8692 -8.94838
341 1 12.5826 9.43304 18.8788 -8.96006
342 1 15.7291 9.43277 18.8738 -8.94743
343 1 18.8712 9.43404 18.8704 -8.94924
344 1 1.57218 11.007 1.57201 -8.94956
345 1 4.71665 11.007 1.5719 -8.94971
346 1 7.86195 11.007 1.57307 -8.94718
347 1 11.0065 11.007 1.5716 -8.9465
348 1 14.1548 11.007 1.5687 -8.95002
349 1 17.2989 11.007 1.57114 -8.94926
350 1 20.4423 11.007 1.57197 -8.94947
351 1 22.0141 12.5795 1.77569e-15 -8.94953
352 1 1.57222 14.1518 1.57207 -8.94937
353 1 3.14438 12.5793 1.73254e-15 -8.94952
354 1 4.71684 14.1513 1.57193 -8.94969
355 1 6.2893 12.579 1.64517e-15 -8.94917
356 1 7.86164 14.1518 1.57083 -8.95262
357 1 9.43407 12.5791 1.50193e-15 -8.94839
358 1 11.0062 14.153 1.57005 -8.95107
359 1 12.5796 12.5796 9.56817e-16 -8.95332
360 1 14.154 14.1539 1.56887 -8.95221
361 1 15.7264 12.5802 1.59988e-15 -8.94911
362 1 17.2988 14.1529 1.57117 -8.94896
363 1 18.8703 12.5797 1.67548e-15 -8.94938
364 1 20.4423 14.1521 1.572 -8.94941
365 1 22.0141 15.7244 1.85947e-15 -8.94946
366 1 1.57207 17.2969 1.57198 -8.94992
367 1 3.14448 15.7241 1.79806e-15 -8.94986
368 1 4.71596 17.2977 1.57094 -8.95006
369 1 6.2889 15.7247 1.6807e-15 -8.95145
370 1 7.86144 17.2979 1.57122 -8.94907
371 1 9.43381 15.7255 6.36745e-16 -8.94966
372 1 11.0068 17.2982 1.57126 -8.94929
373 1 12.5794 15.7256 5.57861e-16 -8.94986
374 1 14.1526 17.2984 1.57116 -8.94978
375 1 15.7261 15.7262 1.39563e-15 -8.95023
376 1 17.2985 17.2986 1.57128 -8.9482
377 1 18.8702 15.725 1.7429e-15 -8.94936
378 1 20.4421 17.2972 1.57206 -8.9495
379 1 22.0139 18.8694 1.17235e-15 -8.9496
380 1 1.57182 20.4419 1.57199 -8.94906
381 1 3.14406 18.8698 1.6284e-15 -8.94948
382 1 4.71682 20.4419 1.57192 -8.94956
383 1 6.28924 18.8698 1.16139e-15 -8.94935
384 1 7.86192 20.442 1.57193 -8.94943
385 1 9.43435 18.87 3.06915e-16 -8.94944
386 1 11.007 20.442 1.57194 -8.94947
387 1 12.5795 18.87 1.54642e-15 -8.94934
388 1 14.1521 20.4421 1.57202 -8.94944
389 1 15.7248 18.8701 1.54111e-15 -8.94971
390 1 17.2973 20.4421 1.57201 -8.94949
391 1 18.87 18.8699 1.4594e-15 -8.9488
392 1 20.4416 20.4418 1.57225 -8.9493
393 1 1.57183 11.007 4.71615 -8.94944
394 1 4.71607 11.007 4.71562 -8.94625
395 1 7.86619 11.007 4.7234 -8.94371
396 1 11.0122 11.007 4.71835 -8.99277
397 1 14.1644 11.007 4.70386 -8.94189
398 1 17.3023 11.007 4.7139 -8.94904
399 1 20.443 11.007 4.71628 -8.94983
400 1 0.000264346 12.5795 3.14417 -8.9495
401 1 1.57175 14.1517 4.71646 -8.94961
402 1 3.14413 12.5793 3.14392 -8.94896
403 1 4.71531 14.1512 4.7155 -8.95146
404 1 6.28965 12.5781 3.14471 -8.94928
405 1 7.85756 14.1564 4.70768 -8.95808
406 1 9.43491 12.5791 3.14466 -8.94838
407 1 11.007 14.1568 4.70707 -8.95309
408 1 12.5826 12.5809 3.13514 -8.96006
409 1 14.1657 14.1646 4.70183 -8.93337
410 1 15.7291 12.5811 3.14014 -8.94743
411 1 17.3021 14.1545 4.71422 -8.95012
412 1 18.8712 12.5799 3.14354 -8.94924
413 1 20.4428 14.1523 4.71646 -8.94995
414 1 22.0141 15.7245 3.1443 -8.94972
415 1 1.5707 17.2976 4.71589 -8.94997
416 1 3.14381 15.7243 3.14368 -8.95043
417 1 4.71221 17.3013 4.71173 -8.94461
418 1 6.28703 15.7264 3.14021 -8.95157
419 1 7.86054 17.3005 4.71363 -8.94808
420 1 9.43354 15.7269 3.14123 -8.94797
421 1 11.0073 17.3005 4.71385 -8.94754
422 1 12.5804 15.7273 3.14052 -8.94982
423 1 14.1553 17.3024 4.71319 -8.94968
424 1 15.7292 15.7291 3.13995 -8.94515
425 1 17.2991 17.299 4.71576 -8.94886
426 1 18.8711 15.7255 3.14368 -8.94952
427 1 20.4418 17.2974 4.71672 -8.94985
428 1 22.0135 18.8696 3.14428 -8.94957
429 1 1.57141 20.4421 4.71643 -8.94903
430 1 3.14317 18.8705 3.1431 -8.94817
431 1 4.7161 20.4428 4.71583 -8.95005
432 1 6.28888 18.8705 3.1433 -8.94938
433 1 7.86187 20.4427 4.71602 -8.94944
434 1 9.43436 18.8706 3.14344 -8.94931
435 1 11.0073 20.4427 4.7161 -8.94946
436 1 12.5798 18.8707 3.14358 -8.94905
437 1 14.1525 20.4428 4.71648 -8.95051
438 1 15.7257 18.8712 3.14342 -8.94942
439 1 17.2974 20.4422 4.71679 -8.9495
440 1 18.8699 18.87 3.14434 -8.94937
441 1 20.4414 20.4418 4.71699 -8.94952
442 1 1.57167 11.007 7.86115 -8.94742
443 1 4.71959 11.007 7.86227 -8.93791
444 1 7.88799 11.007 7.88359 -8.84226
445 1 11.1024 11.007 7.67414 -8.22895
446 1 14.1723 11.007 7.84536 -8.965
447 1 17.3031 11.007 7.86045 -8.95196
448 1 20.4428 11.007 7.86175 -8.95002
449 1 22.014 12.5794 6.28896 -8.94976
450 1 1.56949 14.1519 7.86142 -8.95187
451 1 3.14334 12.5784 6.2886 -8.94903
452 1 4.70573 14.1548 7.85873 -8.96022
453 1 6.28812 12.5753 6.29011 -8.9507
454 1 7.81714 14.1925 7.82261 -8.85811
455 1 9.42658 12.5975 6.2912 -8.91679
456 1 11.0239 14.169 7.82978 -8.89575
457 1 12.6196 12.6105 6.24631 -8.88322
458 1 14.1681 14.1646 7.85075 -8.93577
459 1 15.7374 12.5832 6.28258 -8.95436
460 1 17.3016 14.1536 7.86143 -8.95217
461 1 18.8728 12.58 6.28852 -8.95112
462 1 20.4421 14.1522 7.86194 -8.95053
463 1 22.0131 15.7247 6.28901 -8.95044
464 1 1.5693 17.2985 7.86072 -8.94935
465 1 3.13994 15.7262 6.28684 -8.95167
466 1 4.70915 17.3043 7.85632 -8.94142
467 1 6.27476 15.7383 6.27415 -8.93118
468 1 7.85839 17.3072 7.8587 -8.95824
469 1 9.43276 15.7343 6.28223 -8.94693
470 1 11.0068 17.3019 7.8596 -8.95124
471 1 12.5872 15.7371 6.279 -8.95137
472 1 14.1558 17.3027 7.85938 -8.94817
473 1 15.7308 15.73 6.28546 -8.9464
474 1 17.2984 17.2983 7.86189 -8.94978
475 1 18.8711 15.7255 6.28904 -8.95021
476 1 20.4413 17.2975 7.86182 -8.94976
477 1 -0.000900092 18.8698 6.28906 -8.9494
478 1 1.57119 20.4422 7.86156 -8.94937
479 1 3.14206 18.8715 6.28748 -8.9476
480 1 4.71523 20.4437 7.86067 -8.94975
481 1 6.28748 18.8735 6.287 -8.9516
482 1 7.86186 20.4438 7.86125 -8.95117
483 1 9.43454 18.8727 6.28756 -8.94998
484 1 11.0073 20.443 7.86149 -8.9496
485 1 12.5802 18.8725 6.28837 -8.95188
486 1 14.1527 20.4429 7.86178 -8.9505
487 1 15.726 18.8716 6.28866 -8.94918
488 1 17.2972 20.442 7.86209 -8.94958
489 1 18.8696 18.8699 6.28944 -8.94967
490 1 20.4413 20.4418 7.86195 -8.94948
491 1 22.0131 12.5791 9.43434 -8.94947
492 1 3.14159 12.578 9.43405 -8.95009
493 1 6.28255 12.5843 9.43537 -8.96849
494 1 9.35911 12.8571 9.44533 -8.05806
495 1 12.5949 12.6058 9.38485 -8.83162
496 1 15.7284 12.5797 9.43236 -8.95257
497 1 18.8706 12.5795 9.4347 -8.9497
498 1 22.0119 15.7251 9.43418 -8.95056
499 1 3.13616 15.7285 9.43241 -8.95026
500 1 6.26567 15.7474 9.42151 -8.91818
501 1 9.42992 15.7291 9.43176 -9.00882
502 1 12.5868 15.7357 9.4258 -8.94541
503 1 15.7279 15.7269 9.43449 -8.94889
504 1 18.8702 15.7253 9.43462 -8.94973
505 1 22.0129 18.87 9.43429 -8.94939
506 1 3.1418 18.8717 9.43366 -8.94898
507 1 6.28554 18.8765 9.43278 -8.95145
508 1 9.43467 18.8725 9.43354 -8.94696
509 1 12.5803 18.8721 9.43409 -8.95186
510 1 15.7253 18.8705 9.43467 -8.94939
511 1 18.8695 18.8699 9.43449 -8.9494
688 3 10.0863 11.007 9.39679 2.36212
512 1 1.57177 11.007 11.007 -8.94536
513 1 4.72358 11.007 11.007 -8.9337
514 1 7.90057 11.007 11.007 -8.72444
515 1 11.2725 11.007 11.007 -7.39487
516 1 14.1402 11.007 11.007 -9.01487
517 1 17.296 11.007 11.007 -8.94518
518 1 20.4415 11.007 11.007 -8.94793
519 1 1.56748 14.1523 11.007 -8.95418
520 1 4.69632 14.1588 11.007 -8.9667
521 1 7.775 14.226 11.007 -8.73667
522 1 11.0561 14.1734 11.007 -8.83254
523 1 14.1589 14.1514 11.007 -8.96685
524 1 17.299 14.1525 11.007 -8.95065
525 1 20.4412 14.1522 11.007 -8.95036
526 1 1.56911 17.2986 11.007 -8.94904
527 1 4.70929 17.3042 11.007 -8.94548
528 1 7.85591 17.3134 11.007 -8.96657
529 1 11.0069 17.301 11.007 -8.95482
530 1 14.1534 17.2985 11.007 -8.94711
531 1 17.298 17.2981 11.007 -8.94862
532 1 20.4412 17.2976 11.007 -8.94955
533 1 1.57113 20.4422 11.007 -8.94938
534 1 4.71504 20.4438 11.007 -8.94922
535 1 7.86175 20.4447 11.007 -8.95336
536 1 11.0072 20.4427 11.007 -8.94954
537 1 14.1526 20.4423 11.007 -8.94904
538 1 17.2973 20.442 11.007 -8.94948
539 1 20.4413 20.4419 11.007 -8.94952
540 1 1.57167 11.007 14.1528 -8.94742
541 1 4.71959 11.007 14.1516 -8.93791
542 1 7.88799 11.007 14.1303 -8.84226
543 1 11.1024 11.007 14.3398 -8.22895
544 1 14.1723 11.007 14.1685 -8.965
545 1 17.3031 11.007 14.1534 -8.95196
546 1 20.4428 11.007 14.1522 -8.95002
547 1 22.0131 12.5791 12.5796 -8.94947
548 1 1.56949 14.1519 14.1525 -8.95187
549 1 3.14159 12.578 12.5798 -8.95009
550 1 4.70573 14.1548 14.1552 -8.96022
551 1 6.28255 12.5843 12.5785 -8.96849
552 1 7.81714 14.1925 14.1913 -8.85811
553 1 9.35911 12.8571 12.5686 -8.05806
554 1 11.0239 14.169 14.1841 -8.89575
555 1 12.5949 12.6058 12.6291 -8.83162
556 1 14.1681 14.1646 14.1631 -8.93577
557 1 15.7284 12.5797 12.5815 -8.95257
558 1 17.3016 14.1536 14.1525 -8.95217
559 1 18.8706 12.5795 12.5792 -8.9497
560 1 20.4421 14.1522 14.152 -8.95053
561 1 22.0119 15.7251 12.5797 -8.95056
562 1 1.5693 17.2985 14.1532 -8.94935
563 1 3.13616 15.7285 12.5815 -8.95026
564 1 4.70915 17.3043 14.1576 -8.94142
565 1 6.26567 15.7474 12.5924 -8.91818
566 1 7.85839 17.3072 14.1552 -8.95824
567 1 9.42992 15.7291 12.5821 -9.00882
568 1 11.0068 17.3019 14.1543 -8.95124
569 1 12.5868 15.7357 12.5881 -8.94541
570 1 14.1558 17.3027 14.1545 -8.94817
571 1 15.7279 15.7269 12.5794 -8.94889
572 1 17.2984 17.2983 14.152 -8.94978
573 1 18.8702 15.7253 12.5793 -8.94973
574 1 20.4413 17.2975 14.1521 -8.94976
575 1 22.0129 18.87 12.5796 -8.94939
576 1 1.57119 20.4422 14.1523 -8.94937
577 1 3.1418 18.8717 12.5802 -8.94898
578 1 4.71523 20.4437 14.1532 -8.94975
579 1 6.28554 18.8765 12.5811 -8.95145
580 1 7.86186 20.4438 14.1526 -8.95117
581 1 9.43467 18.8725 12.5804 -8.94696
582 1 11.0073 20.443 14.1524 -8.9496
583 1 12.5803 18.8721 12.5798 -8.95186
584 1 14.1527 20.4429 14.1521 -8.9505
585 1 15.7253 18.8705 12.5792 -8.94939
586 1 17.2972 20.442 14.1518 -8.94958
587 1 18.8695 18.8699 12.5794 -8.9494
588 1 20.4413 20.4418 14.1519 -8.94948
589 1 1.57183 11.007 17.2977 -8.94944
590 1 4.71607 11.007 17.2983 -8.94625
591 1 7.86619 11.007 17.2905 -8.94371
592 1 11.0122 11.007 17.2955 -8.99277
593 1 14.1644 11.007 17.31 -8.94189
594 1 17.3023 11.007 17.3 -8.94904
595 1 20.443 11.007 17.2976 -8.94983
596 1 22.014 12.5794 15.7249 -8.94976
597 1 1.57175 14.1517 17.2974 -8.94961
598 1 3.14334 12.5784 15.7253 -8.94903
599 1 4.71531 14.1512 17.2984 -8.95146
600 1 6.28812 12.5753 15.7238 -8.9507
601 1 7.85756 14.1564 17.3062 -8.95808
602 1 9.42658 12.5975 15.7227 -8.91679
603 1 11.007 14.1568 17.3068 -8.95309
604 1 12.6196 12.6105 15.7676 -8.88322
605 1 14.1657 14.1646 17.3121 -8.93337
606 1 15.7374 12.5832 15.7313 -8.95436
607 1 17.3021 14.1545 17.2997 -8.95012
608 1 18.8728 12.58 15.7254 -8.95112
609 1 20.4428 14.1523 17.2974 -8.94995
610 1 22.0131 15.7247 15.7249 -8.95044
611 1 1.5707 17.2976 17.298 -8.94997
612 1 3.13994 15.7262 15.7271 -8.95167
613 1 4.71221 17.3013 17.3022 -8.94461
614 1 6.27476 15.7383 15.7397 -8.93118
615 1 7.86054 17.3005 17.3003 -8.94808
616 1 9.43276 15.7343 15.7317 -8.94693
617 1 11.0073 17.3005 17.3001 -8.94754
618 1 12.5872 15.7371 15.7349 -8.95137
619 1 14.1553 17.3024 17.3007 -8.94968
620 1 15.7308 15.73 15.7284 -8.9464
621 1 17.2991 17.299 17.2981 -8.94886
622 1 18.8711 15.7255 15.7249 -8.95021
623 1 20.4418 17.2974 17.2972 -8.94985
624 1 -0.000900092 18.8698 15.7248 -8.9494
625 1 1.57141 20.4421 17.2975 -8.94903
626 1 3.14206 18.8715 15.7264 -8.9476
627 1 4.7161 20.4428 17.2981 -8.95005
628 1 6.28748 18.8735 15.7269 -8.9516
629 1 7.86187 20.4427 17.2979 -8.94944
630 1 9.43454 18.8727 15.7263 -8.94998
631 1 11.0073 20.4427 17.2978 -8.94946
632 1 12.5802 18.8725 15.7255 -8.95188
633 1 14.1525 20.4428 17.2974 -8.95051
634 1 15.726 18.8716 15.7252 -8.94918
635 1 17.2974 20.4422 17.2971 -8.9495
636 1 18.8696 18.8699 15.7245 -8.94967
637 1 20.4414 20.4418 17.2969 -8.94952
638 1 1.57218 11.007 20.4419 -8.94956
639 1 4.71665 11.007 20.442 -8.94971
640 1 7.86195 11.007 20.4408 -8.94718
641 1 11.0065 11.007 20.4423 -8.9465
642 1 14.1548 11.007 20.4452 -8.95002
643 1 17.2989 11.007 20.4428 -8.94926
644 1 20.4423 11.007 20.4419 -8.94947
645 1 0.000264346 12.5795 18.8697 -8.9495
646 1 1.57222 14.1518 20.4418 -8.94937
647 1 3.14413 12.5793 18.87 -8.94896
648 1 4.71684 14.1513 20.442 -8.94969
649 1 6.28965 12.5781 18.8692 -8.94928
650 1 7.86164 14.1518 20.4431 -8.95262
651 1 9.43491 12.5791 18.8692 -8.94838
652 1 11.0062 14.153 20.4438 -8.95107
653 1 12.5826 12.5809 18.8788 -8.96006
654 1 14.154 14.1539 20.445 -8.95221
655 1 15.7291 12.5811 18.8738 -8.94743
656 1 17.2988 14.1529 20.4427 -8.94896
657 1 18.8712 12.5799 18.8704 -8.94924
658 1 20.4423 14.1521 20.4419 -8.94941
659 1 22.0141 15.7245 18.8696 -8.94972
660 1 1.57207 17.2969 20.4419 -8.94992
661 1 3.14381 15.7243 18.8702 -8.95043
662 1 4.71596 17.2977 20.443 -8.95006
663 1 6.28703 15.7264 18.8737 -8.95157
664 1 7.86144 17.2979 20.4427 -8.94907
665 1 9.43354 15.7269 18.8727 -8.94797
666 1 11.0068 17.2982 20.4426 -8.94929
667 1 12.5804 15.7273 18.8734 -8.94982
668 1 14.1526 17.2984 20.4427 -8.94978
669 1 15.7292 15.7291 18.874 -8.94515
670 1 17.2985 17.2986 20.4426 -8.9482
671 1 18.8711 15.7255 18.8702 -8.94952
672 1 20.4421 17.2972 20.4418 -8.9495
673 1 22.0135 18.8696 18.8696 -8.94957
674 1 1.57182 20.4419 20.4419 -8.94906
675 1 3.14317 18.8705 18.8708 -8.94817
676 1 4.71682 20.4419 20.442 -8.94956
677 1 6.28888 18.8705 18.8706 -8.94938
678 1 7.86192 20.442 20.442 -8.94943
679 1 9.43436 18.8706 18.8705 -8.94931
680 1 11.007 20.442 20.442 -8.94947
681 1 12.5798 18.8707 18.8703 -8.94905
682 1 14.1521 20.4421 20.4419 -8.94944
683 1 15.7257 18.8712 18.8705 -8.94942
684 1 17.2973 20.4421 20.4419 -8.94949
685 1 18.8699 18.87 18.8696 -8.94937
686 1 20.4416 20.4418 20.4416 -8.9493
687 3 10.0863 11.007 12.6171 2.36212
