ITEM: TIMESTEP
61
ITEM: NUMBER OF ATOMS
688
ITEM: BOX BOUNDS pp pp pp
0.0000000000000000e+00 2.2013900999999997e+01
0.0000000000000000e+00 2.2013900999999997e+01
0.0000000000000000e+00 2.2013900999999997e+01
ITEM: ATOMS id type x y z c_pot
1 1 22.0138 1.58117e-16 1.04526e-15 -8.94941
2 1 1.57223 1.57227 1.57227 -8.9493
3 1 3.14479 1.48913e-15 6.76695e-16 -8.94972
4 1 4.71718 1.57227 1.57227 -8.94968
5 1 6.28965 1.45874e-15 1.14994e-15 -8.9496
6 1 7.86207 1.57222 1.57225 -8.94957
7 1 9.43452 1.83097e-15 5.46666e-16 -8.94962
8 1 11.007 1.57221 1.57224 -8.94959
9 1 12.5794 1.40597e-15 2.68143e-16 -8.94961
10 1 14.1519 1.57223 1.57228 -8.94955
11 1 15.7242 6.01305e-16 3.17389e-16 -8.94962
12 1 17.2968 1.57219 1.57226 -8.94959
13 1 18.8692 4.55888e-16 1.34248e-15 -8.94949
14 1 20.4415 1.57235 1.57239 -8.94952
15 1 22.0139 3.14478 2.02955e-15 -8.94965
16 1 1.57229 4.71721 1.57228 -8.94982
17 1 3.14455 3.14455 1.52075e-15 -8.94949
18 1 4.71659 4.71664 1.57157 -8.94981
19 1 6.28958 3.14456 8.94733e-16 -8.94946
20 1 7.86187 4.71659 1.57176 -8.94913
21 1 9.43449 3.14447 1.49167e-15 -8.94956
22 1 11.0069 4.7165 1.57179 -8.94938
23 1 12.5794 3.1445 1.34248e-15 -8.9495
24 1 14.152 4.71652 1.57183 -8.94977
25 1 15.7244 3.14453 6.812e-16 -8.94979
26 1 17.2975 4.71634 1.57179 -8.94839
27 1 18.8694 3.14455 1.83266e-15 -8.94909
28 1 20.4417 4.71711 1.57229 -8.9496
29 1 22.0139 6.28965 1.91323e-15 -8.94957
30 1 1.57228 7.86208 1.57227 -8.94948
31 1 3.14469 6.28973 1.84848e-15 -8.94975
32 1 4.71699 7.86233 1.5721 -8.94965
33 1 6.28924 6.28934 1.26706e-15 -8.95095
34 1 7.86175 7.86199 1.57101 -8.95227
35 1 9.43416 6.28891 9.39655e-16 -8.94954
36 1 11.0063 7.86125 1.57059 -8.95059
37 1 12.5793 6.28899 1.37643e-15 -8.94958
38 1 14.1531 7.86071 1.56981 -8.95199
39 1 15.7251 6.2887 1.95487e-15 -8.95011
40 1 17.2975 7.86169 1.5718 -8.94923
41 1 18.8694 6.28951 1.662e-15 -8.94961
42 1 20.4417 7.86203 1.57227 -8.94955
43 1 22.0139 9.43451 1.87314e-15 -8.94962
44 1 3.14456 9.4345 1.30799e-15 -8.94955
45 1 6.28935 9.43471 1.59137e-15 -8.94934
46 1 9.43414 9.4346 1.356e-15 -8.94885
47 1 12.5794 9.43437 -7.71393e-16 -8.95304
48 1 15.7253 9.43417 7.10546e-16 -8.94915
49 1 18.8695 9.43447 1.53468e-15 -8.94957
50 1 -8.60339e-05 8.7438e-18 3.14478 -8.94953
51 1 1.57209 1.57219 4.71702 -8.94933
52 1 3.1446 1.10509e-15 3.14457 -8.94963
53 1 4.71677 1.5717 4.71665 -8.94999
54 1 6.28963 1.65172e-15 3.14459 -8.94956
55 1 7.86207 1.57177 4.71672 -8.94948
56 1 9.43454 1.82498e-15 3.14455 -8.94959
57 1 11.0071 1.57174 4.71669 -8.94951
58 1 12.5795 1.62577e-15 3.14457 -8.94952
59 1 14.1521 1.57173 4.71692 -8.95028
60 1 15.7244 8.89744e-16 3.14466 -8.94985
61 1 17.2969 1.57213 4.71711 -8.94955
62 1 18.8691 6.92503e-16 3.14478 -8.94959
63 1 20.4415 1.57233 4.71721 -8.94961
64 1 22.0137 3.14468 3.14467 -8.9496
65 1 1.57152 4.71676 4.71664 -8.94984
66 1 3.14403 3.14408 3.14399 -8.94842
67 1 4.7139 4.71402 4.71351 -8.94497
68 1 6.28945 3.14416 3.14417 -8.94958
69 1 7.8615 4.71481 4.71505 -8.94846
70 1 9.4345 3.14403 3.14415 -8.94946
71 1 11.0072 4.71474 4.71519 -8.94783
72 1 12.5795 3.14402 3.14424 -8.9492
73 1 14.1539 4.71343 4.71489 -8.95008
74 1 15.7249 3.14377 3.14416 -8.94955
75 1 17.2978 4.71609 4.71655 -8.94892
76 1 18.8693 3.14454 3.14468 -8.94949
77 1 20.4416 4.717 4.71708 -8.94974
78 1 22.0139 6.2896 3.14465 -8.9497
79 1 1.57196 7.86217 4.71685 -8.94956
80 1 3.14431 6.28966 3.1443 -8.95019
81 1 4.71583 7.86266 4.71596 -8.95111
82 1 6.28787 6.28808 3.14138 -8.95112
83 1 7.85808 7.85838 4.70841 -8.95741
84 1 9.43392 6.28784 3.14228 -8.94798
85 1 11.0062 7.85823 4.70893 -8.95218
86 1 12.5797 6.28779 3.1422 -8.94957
87 1 14.1638 7.85049 4.70406 -8.93249
88 1 15.7276 6.28626 3.14137 -8.94512
89 1 17.3002 7.86046 4.71545 -8.95039
90 1 18.87 6.28913 3.14428 -8.94966
91 1 20.4421 7.86187 4.71691 -8.94994
92 1 1.90275e-05 9.43448 3.14457 -8.94958
93 1 3.14429 9.43454 3.14423 -8.94909
94 1 6.28941 9.43548 3.14429 -8.94939
95 1 9.43456 9.43481 3.14392 -8.94891
96 1 12.5815 9.43327 3.1363 -8.95995
97 1 15.7271 9.43348 3.14184 -8.94763
98 1 18.87 9.43435 3.14423 -8.94937
99 1 22.0138 1.04776e-15 6.28963 -8.94964
100 1 1.57204 1.57215 7.86197 -8.94958
101 1 3.14436 1.2273e-15 6.28933 -8.94943
102 1 4.71628 1.57113 7.86142 -8.94967
103 1 6.28945 1.52531e-15 6.28924 -8.95036
104 1 7.8621 1.57076 7.86168 -8.951
105 1 9.43469 1.67918e-15 6.2892 -8.94998
106 1 11.0072 1.57138 7.86174 -8.94953
107 1 12.5796 1.65317e-15 6.28941 -8.95009
108 1 14.1523 1.57155 7.86194 -8.95025
109 1 15.7245 1.82441e-15 6.28954 -8.94979
110 1 17.2969 1.5722 7.86212 -8.94962
111 1 18.8691 9.2627e-16 6.28967 -8.94965
112 1 20.4415 1.57232 7.86208 -8.94959
113 1 -0.000345145 3.14455 6.28949 -8.94949
114 1 1.57078 4.7163 7.86143 -8.94937
115 1 3.1435 3.14357 6.28864 -8.9481
116 1 4.7119 4.71195 7.85808 -8.9424
117 1 6.28853 3.14186 6.28813 -8.9515
118 1 7.85997 4.70883 7.85977 -8.95804
119 1 9.43477 3.14235 6.28842 -8.94987
120 1 11.0067 4.7134 7.86079 -8.95069
121 1 12.5798 3.14253 6.28906 -8.95167
122 1 14.1544 4.71289 7.86071 -8.94893
123 1 15.7251 3.14349 6.28924 -8.94935
124 1 17.2976 4.7164 7.86211 -8.94973
125 1 18.8693 3.14456 6.28963 -8.94968
126 1 20.4414 4.71691 7.862 -8.94967
127 1 22.0134 6.28944 6.28938 -8.95018
128 1 1.5703 7.86206 7.86166 -8.95147
129 1 3.14154 6.2884 6.28789 -8.95131
130 1 4.70752 7.85997 7.85921 -8.95927
131 1 6.27743 6.27795 6.27646 -8.93204
132 1 7.82019 7.82528 7.82463 -8.86244
133 1 9.43363 6.28185 6.28413 -8.94769
134 1 11.0205 7.84916 7.83416 -8.90003
135 1 12.5849 6.27913 6.28234 -8.95303
136 1 14.1662 7.85017 7.85303 -8.93396
137 1 15.7288 6.28555 6.28697 -8.94617
138 1 17.3004 7.86071 7.86187 -8.95179
139 1 18.8702 6.28902 6.28938 -8.94997
140 1 20.4419 7.86186 7.86204 -8.95038
141 1 22.0138 9.43452 6.2893 -8.9498
142 1 3.14336 9.4352 6.28873 -8.9491
143 1 6.28732 9.43833 6.28903 -8.9506
144 1 9.42529 9.41806 6.28931 -8.91557
145 1 12.6188 9.40231 6.24762 -8.87742
146 1 15.735 9.4315 6.28483 -8.95494
147 1 18.8716 9.43418 6.28911 -8.95104
148 1 -0.000128392 1.68947e-15 9.43451 -8.94963
149 1 3.14431 2.12029e-15 9.43441 -8.94944
150 1 6.2891 1.89663e-15 9.43424 -8.95097
151 1 9.4349 1.6544e-15 9.43426 -8.94926
152 1 12.5797 1.79049e-15 9.43448 -8.95015
153 1 15.7245 1.60357e-15 9.43455 -8.94956
154 1 18.8692 9.54868e-16 9.43451 -8.9496
155 1 22.0136 3.14451 9.43446 -8.94952
156 1 3.14345 3.14351 9.43417 -8.94926
157 1 6.28717 3.13948 9.43334 -8.95113
158 1 9.43505 3.14213 9.43382 -8.94674
159 1 12.58 3.14257 9.43432 -8.95149
160 1 15.7248 3.14399 9.4347 -8.9495
161 1 18.8693 3.14451 9.43451 -8.94951
162 1 22.0128 6.28918 9.43434 -8.95029
163 1 3.13881 6.28687 9.43303 -8.95008
164 1 6.2699 6.27043 9.42316 -8.92076
165 1 9.43069 6.28731 9.43242 -9.00637
166 1 12.5842 6.28027 9.42811 -8.9484
167 1 15.7268 6.28758 9.43493 -8.94856
168 1 18.8699 6.289 9.43462 -8.94952
169 1 22.0132 9.43469 9.43438 -8.94978
170 1 3.1414 9.43574 9.43398 -8.95039
171 1 6.28049 9.43077 9.43475 -8.96864
172 1 9.35622 9.17394 9.44456 -8.05692
173 1 12.5968 9.40745 9.3859 -8.82429
174 1 15.7289 9.43389 9.43323 -8.95291
175 1 18.8705 9.43435 9.43474 -8.94989
176 1 1.57201 1.57213 11.007 -8.94956
177 1 4.71621 1.57109 11.007 -8.94925
178 1 7.86206 1.56993 11.007 -8.95303
179 1 11.0072 1.57143 11.007 -8.94956
180 1 14.1523 1.57189 11.007 -8.9492
181 1 17.2969 1.57215 11.007 -8.94956
182 1 20.4415 1.5723 11.007 -8.94962
183 1 1.57077 4.71627 11.007 -8.94915
184 1 4.71227 4.71225 11.007 -8.94615
185 1 7.85809 4.70286 11.007 -8.96611
186 1 11.0067 4.71379 11.007 -8.95391
187 1 14.1527 4.71591 11.007 -8.94785
188 1 17.2976 4.71632 11.007 -8.94877
189 1 20.4414 4.71684 11.007 -8.94955
190 1 1.56874 7.86184 11.007 -8.9536
191 1 4.69895 7.85688 11.007 -8.96529
192 1 7.78121 7.79371 11.007 -8.74713
193 1 11.049 7.84601 11.007 -8.84428
194 1 14.1576 7.8622 11.007 -8.96494
195 1 17.2987 7.86127 11.007 -8.94996
196 1 20.4415 7.86181 11.007 -8.95025
197 1 -0.000128392 1.37168e-15 12.5794 -8.94963
198 1 1.57204 1.57215 14.1519 -8.94958
199 1 3.14431 1.94927e-15 12.5795 -8.94944
200 1 4.71628 1.57113 14.1525 -8.94967
201 1 6.2891 1.55992e-15 12.5797 -8.95097
202 1 7.8621 1.57076 14.1522 -8.951
203 1 9.4349 1.42461e-15 12.5796 -8.94926
204 1 11.0072 1.57138 14.1522 -8.94953
205 1 12.5797 1.7714e-15 12.5794 -8.95015
206 1 14.1523 1.57155 14.152 -8.95025
207 1 15.7245 1.51851e-15 12.5794 -8.94956
208 1 17.2969 1.5722 14.1518 -8.94962
209 1 18.8692 1.74377e-15 12.5794 -8.9496
210 1 20.4415 1.57232 14.1518 -8.94959
211 1 22.0136 3.14451 12.5794 -8.94952
212 1 1.57078 4.7163 14.1525 -8.94937
213 1 3.14345 3.14351 12.5797 -8.94926
214 1 4.7119 4.71195 14.1558 -8.9424
215 1 6.28717 3.13948 12.5806 -8.95113
216 1 7.85997 4.70883 14.1541 -8.95804
217 1 9.43505 3.14213 12.5801 -8.94674
218 1 11.0067 4.7134 14.1531 -8.95069
219 1 12.58 3.14257 12.5796 -8.95149
220 1 14.1544 4.71289 14.1532 -8.94893
221 1 15.7248 3.14399 12.5792 -8.9495
222 1 17.2976 4.7164 14.1518 -8.94973
223 1 18.8693 3.14451 12.5794 -8.94951
224 1 20.4414 4.71691 14.1519 -8.94967
225 1 22.0128 6.28918 12.5796 -8.95029
226 1 1.5703 7.86206 14.1522 -8.95147
227 1 3.13881 6.28687 12.5809 -8.95008
228 1 4.70752 7.85997 14.1547 -8.95927
229 1 6.2699 6.27043 12.5907 -8.92076
230 1 7.82019 7.82528 14.1893 -8.86244
231 1 9.43069 6.28731 12.5815 -9.00637
232 1 11.0205 7.84916 14.1797 -8.90003
233 1 12.5842 6.28027 12.5858 -8.9484
234 1 14.1662 7.85017 14.1609 -8.93396
235 1 15.7268 6.28758 12.579 -8.94856
236 1 17.3004 7.86071 14.152 -8.95179
237 1 18.8699 6.289 12.5793 -8.94952
238 1 20.4419 7.86186 14.1519 -8.95038
239 1 22.0132 9.43469 12.5795 -8.94978
240 1 3.1414 9.43574 12.5799 -8.95039
241 1 6.28049 9.43077 12.5791 -8.96864
242 1 9.35622 9.17394 12.5693 -8.05692
243 1 12.5968 9.40745 12.628 -8.82429
244 1 15.7289 9.43389 12.5807 -8.95291
245 1 18.8705 9.43435 12.5792 -8.94989
246 1 22.0138 1.608e-15 15.7243 -8.94964
247 1 1.57209 1.57219 17.2969 -8.94933
248 1 3.14436 1.45143e-15 15.7246 -8.94943
249 1 4.71677 1.5717 17.2973 -8.94999
250 1 6.28945 1.82339e-15 15.7247 -8.95036
251 1 7.86207 1.57177 17.2972 -8.94948
252 1 9.43469 1.33855e-15 15.7247 -8.94998
253 1 11.0071 1.57174 17.2972 -8.94951
254 1 12.5796 1.59978e-15 15.7245 -8.95009
255 1 14.1521 1.57173 17.297 -8.95028
256 1 15.7245 1.87577e-15 15.7244 -8.94979
257 1 17.2969 1.57213 17.2968 -8.94955
258 1 18.8691 1.51614e-15 15.7242 -8.94965
259 1 20.4415 1.57233 17.2967 -8.94961
260 1 -0.000345145 3.14455 15.7244 -8.94949
261 1 1.57152 4.71676 17.2973 -8.94984
262 1 3.1435 3.14357 15.7253 -8.9481
263 1 4.7139 4.71402 17.3004 -8.94497
264 1 6.28853 3.14186 15.7258 -8.9515
265 1 7.8615 4.71481 17.2988 -8.94846
266 1 9.43477 3.14235 15.7255 -8.94987
267 1 11.0072 4.71474 17.2987 -8.94783
268 1 12.5798 3.14253 15.7248 -8.95167
269 1 14.1539 4.71343 17.299 -8.95008
270 1 15.7251 3.14349 15.7247 -8.94935
271 1 17.2978 4.71609 17.2974 -8.94892
272 1 18.8693 3.14456 15.7243 -8.94968
273 1 20.4416 4.717 17.2968 -8.94974
274 1 22.0134 6.28944 15.7245 -8.95018
275 1 1.57196 7.86217 17.297 -8.94956
276 1 3.14154 6.2884 15.726 -8.95131
277 1 4.71583 7.86266 17.2979 -8.95111
278 1 6.27743 6.27795 15.7374 -8.93204
279 1 7.85808 7.85838 17.3055 -8.95741
280 1 9.43363 6.28185 15.7298 -8.94769
281 1 11.0062 7.85823 17.305 -8.95218
282 1 12.5849 6.27913 15.7316 -8.95303
283 1 14.1638 7.85049 17.3098 -8.93249
284 1 15.7288 6.28555 15.7269 -8.94617
285 1 17.3002 7.86046 17.2985 -8.95039
286 1 18.8702 6.28902 15.7245 -8.94997
287 1 20.4421 7.86187 17.297 -8.94994
288 1 22.0138 9.43452 15.7246 -8.9498
289 1 3.14336 9.4352 15.7252 -8.9491
290 1 6.28732 9.43833 15.7249 -8.9506
291 1 9.42529 9.41806 15.7246 -8.91557
292 1 12.6188 9.40231 15.7663 -8.87742
293 1 15.735 9.4315 15.7291 -8.95494
294 1 18.8716 9.43418 15.7248 -8.95104
295 1 -8.60339e-05 1.13554e-15 18.8691 -8.94953
296 1 1.57223 1.57227 20.4416 -8.9493
297 1 3.1446 8.47447e-16 18.8693 -8.94963
298 1 4.71718 1.57227 20.4416 -8.94968
299 1 6.28963 1.60046e-15 18.8693 -8.94956
300 1 7.86207 1.57222 20.4417 -8.94957
301 1 9.43454 1.6561e-15 18.8694 -8.94959
302 1 11.007 1.57221 20.4417 -8.94959
303 1 12.5795 1.62485e-15 18.8693 -8.94952
304 1 14.1519 1.57223 20.4416 -8.94955
305 1 15.7244 1.06967e-15 18.8692 -8.94985
306 1 17.2968 1.57219 20.4416 -8.94959
307 1 18.8691 6.41336e-16 18.8691 -8.94959
308 1 20.4415 1.57235 20.4415 -8.94952
309 1 22.0137 3.14468 18.8692 -8.9496
310 1 1.57229 4.71721 20.4416 -8.94982
311 1 3.14403 3.14408 18.8699 -8.94842
312 1 4.71659 4.71664 20.4423 -8.94981
313 1 6.28945 3.14416 18.8697 -8.94958
314 1 7.86187 4.71659 20.4421 -8.94913
315 1 9.4345 3.14403 18.8698 -8.94946
316 1 11.0069 4.7165 20.4421 -8.94938
317 1 12.5795 3.14402 18.8697 -8.9492
318 1 14.152 4.71652 20.4421 -8.94977
319 1 15.7249 3.14377 18.8697 -8.94955
320 1 17.2975 4.71634 20.4421 -8.94839
321 1 18.8693 3.14454 18.8692 -8.94949
322 1 20.4417 4.71711 20.4416 -8.9496
323 1 22.0139 6.2896 18.8692 -8.9497
324 1 1.57228 7.86208 20.4416 -8.94948
325 1 3.14431 6.28966 18.8696 -8.95019
326 1 4.71699 7.86233 20.4418 -8.94965
327 1 6.28787 6.28808 18.8725 -8.95112
328 1 7.86175 7.86199 20.4429 -8.95227
329 1 9.43392 6.28784 18.8716 -8.94798
330 1 11.0063 7.86125 20.4433 -8.95059
331 1 12.5797 6.28779 18.8717 -8.94957
332 1 14.1531 7.86071 20.4441 -8.95199
333 1 15.7276 6.28626 18.8725 -8.94512
334 1 17.2975 7.86169 20.4421 -8.94923
335 1 18.87 6.28913 18.8696 -8.94966
336 1 20.4417 7.86203 20.4416 -8.94955
337 1 1.90275e-05 9.43448 18.8693 -8.94958
338 1 3.14429 9.43454 18.8697 -8.94909
339 1 6.28941 9.43548 18.8696 -8.94939
340 1 9.43456 9.43481 18.87 -8.94891
341 1 12.5815 9.43327 18.8776 -8.95995
342 1 15.7271 9.43348 18.8721 -8.94763
343 1 18.87 9.43435 18.8697 -8.94937
344 1 1.57225 11.007 1.57224 -8.94963
345 1 4.71676 11.007 1.57193 -8.94971
346 1 7.8618 11.007 1.57249 -8.94788
347 1 11.0064 11.007 1.57137 -8.94698
348 1 14.1536 11.007 1.5697 -8.94974
349 1 17.2976 11.007 1.57179 -8.94943
350 1 20.4417 11.007 1.57225 -8.94959
351 1 22.0139 12.5794 1.52791e-15 -8.94962
352 1 1.57228 14.1518 1.57227 -8.94948
353 1 3.14456 12.5794 1.52435e-15 -8.94955
354 1 4.71699 14.1516 1.5721 -8.94965
355 1 6.28935 12.5792 1.79161e-15 -8.94934
356 1 7.86175 14.1519 1.57101 -8.95227
357 1 9.43414 12.5793 1.31368e-15 -8.94885
358 1 11.0063 14.1527 1.57059 -8.95059
359 1 12.5794 12.5795 -7.71227e-16 -8.95304
360 1 14.1531 14.1532 1.56981 -8.95199
361 1 15.7253 12.5797 9.2222e-16 -8.94915
362 1 17.2975 14.1522 1.5718 -8.94923
363 1 18.8695 12.5794 1.44904e-15 -8.94957
364 1 20.4417 14.1519 1.57227 -8.94955
365 1 22.0139 15.7242 1.84291e-15 -8.94957
366 1 1.57229 17.2967 1.57228 -8.94982
367 1 3.14469 15.7242 1.72623e-15 -8.94975
368 1 4.71659 17.2973 1.57157 -8.94981
369 1 6.28924 15.7246 1.5163e-15 -8.95095
370 1 7.86187 17.2973 1.57176 -8.94913
371 1 9.43416 15.725 1.12339e-15 -8.94954
372 1 11.0069 17.2974 1.57179 -8.94938
373 1 12.5793 15.7249 1.34571e-15 -8.94958
374 1 14.152 17.2974 1.57183 -8.94977
375 1 15.7251 15.7252 1.45905e-15 -8.95011
376 1 17.2975 17.2976 1.57179 -8.94839
377 1 18.8694 15.7244 1.87066e-15 -8.94961
378 1 20.4417 17.2968 1.57229 -8.9496
379 1 22.0139 18.8691 1.77929e-15 -8.94965
380 1 1.57223 20.4416 1.57227 -8.9493
381 1 3.14455 18.8694 1.78501e-15 -8.94949
382 1 4.71718 20.4416 1.57227 -8.94968
383 1 6.28958 18.8693 1.06514e-15 -8.94946
384 1 7.86207 20.4417 1.57225 -8.94957
385 1 9.43449 18.8694 1.00635e-15 -8.94956
386 1 11.007 20.4417 1.57224 -8.94959
387 1 12.5794 18.8694 1.60754e-15 -8.9495
388 1 14.1519 20.4417 1.57228 -8.94955
389 1 15.7244 18.8694 1.24291e-15 -8.94979
390 1 17.2968 20.4417 1.57226 -8.94959
391 1 18.8694 18.8694 1.56997e-15 -8.94909
392 1 20.4415 20.4416 1.57239 -8.94952
393 1 1.57185 11.007 4.71659 -8.94949
394 1 4.71587 11.007 4.7155 -8.94659
395 1 7.86484 11.007 4.72093 -8.94483
396 1 11.0113 11.007 4.71776 -8.99487
397 1 14.1618 11.007 4.70644 -8.94204
398 1 17.3002 11.007 4.71531 -8.94914
399 1 20.4422 11.007 4.71682 -8.9498
400 1 1.90275e-05 12.5794 3.14457 -8.94958
401 1 1.57196 14.1517 4.71685 -8.94956
402 1 3.14429 12.5794 3.14423 -8.94909
403 1 4.71583 14.1512 4.71596 -8.95111
404 1 6.28941 12.5784 3.14429 -8.94939
405 1 7.85808 14.1555 4.70841 -8.95741
406 1 9.43456 12.5791 3.14392 -8.94891
407 1 11.0062 14.1557 4.70893 -8.95218
408 1 12.5815 12.5806 3.1363 -8.95995
409 1 14.1638 14.1634 4.70406 -8.93249
410 1 15.7271 12.5804 3.14184 -8.94763
411 1 17.3002 14.1534 4.71545 -8.95039
412 1 18.87 12.5796 3.14423 -8.94937
413 1 20.4421 14.152 4.71691 -8.94994
414 1 22.0139 15.7243 3.14465 -8.9497
415 1 1.57152 17.2971 4.71664 -8.94984
416 1 3.14431 15.7242 3.1443 -8.95019
417 1 4.7139 17.2999 4.71351 -8.94497
418 1 6.28787 15.7258 3.14138 -8.95112
419 1 7.8615 17.2991 4.71505 -8.94846
420 1 9.43392 15.7261 3.14228 -8.94798
421 1 11.0072 17.2992 4.71519 -8.94783
422 1 12.5797 15.7261 3.1422 -8.94957
423 1 14.1539 17.3005 4.71489 -8.95008
424 1 15.7276 15.7276 3.14137 -8.94512
425 1 17.2978 17.2978 4.71655 -8.94892
426 1 18.87 15.7248 3.14428 -8.94966
427 1 20.4416 17.2969 4.71708 -8.94974
428 1 22.0137 18.8692 3.14467 -8.9496
429 1 1.57209 20.4417 4.71702 -8.94933
430 1 3.14403 18.8698 3.14399 -8.94842
431 1 4.71677 20.4422 4.71665 -8.94999
432 1 6.28945 18.8697 3.14417 -8.94958
433 1 7.86207 20.4421 4.71672 -8.94948
434 1 9.4345 18.8699 3.14415 -8.94946
435 1 11.0071 20.4422 4.71669 -8.94951
436 1 12.5795 18.8699 3.14424 -8.9492
437 1 14.1521 20.4422 4.71692 -8.95028
438 1 15.7249 18.8701 3.14416 -8.94955
439 1 17.2969 20.4418 4.71711 -8.94955
440 1 18.8693 18.8694 3.14468 -8.94949
441 1 20.4415 20.4416 4.71721 -8.94961
442 1 1.57149 11.007 7.86131 -8.9479
443 1 4.71786 11.007 7.86142 -8.93925
444 1 7.88249 11.007 7.87849 -8.85138
445 1 11.1049 11.007 7.66423 -8.21179
446 1 14.1708 11.007 7.84807 -8.96571
447 1 17.3019 11.007 7.86137 -8.95178
448 1 20.4424 11.007 7.86195 -8.9501
449 1 22.0138 12.5794 6.2893 -8.9498
450 1 1.5703 14.1518 7.86166 -8.95147
451 1 3.14336 12.5787 6.28873 -8.9491
452 1 4.70752 14.1539 7.85921 -8.95927
453 1 6.28732 12.5756 6.28903 -8.9506
454 1 7.82019 14.1886 7.82463 -8.86244
455 1 9.42529 12.5958 6.28931 -8.91557
456 1 11.0205 14.1647 7.83416 -8.90003
457 1 12.6188 12.6116 6.24762 -8.87742
458 1 14.1662 14.1637 7.85303 -8.93396
459 1 15.735 12.5824 6.28483 -8.95494
460 1 17.3004 14.1532 7.86187 -8.95179
461 1 18.8716 12.5797 6.28911 -8.95104
462 1 20.4419 14.152 7.86204 -8.95038
463 1 22.0134 15.7245 6.28938 -8.95018
464 1 1.57078 17.2976 7.86143 -8.94937
465 1 3.14154 15.7255 6.28789 -8.95131
466 1 4.7119 17.3019 7.85808 -8.9424
467 1 6.27743 15.736 6.27646 -8.93204
468 1 7.85997 17.3051 7.85977 -8.95804
469 1 9.43363 15.7321 6.28413 -8.94769
470 1 11.0067 17.3005 7.86079 -8.95069
471 1 12.5849 15.7348 6.28234 -8.95303
472 1 14.1544 17.301 7.86071 -8.94893
473 1 15.7288 15.7283 6.28697 -8.94617
474 1 17.2976 17.2975 7.86211 -8.94973
475 1 18.8702 15.7249 6.28938 -8.94997
476 1 20.4414 17.297 7.862 -8.94967
477 1 -0.000345145 18.8694 6.28949 -8.94949
478 1 1.57204 20.4418 7.86197 -8.94958
479 1 3.1435 18.8703 6.28864 -8.9481
480 1 4.71628 20.4428 7.86142 -8.94967
481 1 6.28853 18.872 6.28813 -8.9515
482 1 7.8621 20.4431 7.86168 -8.951
483 1 9.43477 18.8716 6.28842 -8.94987
484 1 11.0072 20.4425 7.86174 -8.94953
485 1 12.5798 18.8714 6.28906 -8.95167
486 1 14.1523 20.4423 7.86194 -8.95025
487 1 15.7251 18.8704 6.28924 -8.94935
488 1 17.2969 20.4417 7.86212 -8.94962
489 1 18.8693 18.8693 6.28963 -8.94968
490 1 20.4415 20.4416 7.86208 -8.94959
491 1 22.0132 12.5792 9.43438 -8.94978
492 1 3.1414 12.5782 9.43398 -8.95039
493 1 6.28049 12.5831 9.43475 -8.96864
494 1 9.35622 12.84 9.44456 -8.05692
495 1 12.5968 12.6065 9.3859 -8.82429
496 1 15.7289 12.58 9.43323 -8.95291
497 1 18.8705 12.5796 9.43474 -8.94989
498 1 22.0128 15.7247 9.43434 -8.95029
499 1 3.13881 15.727 9.43303 -8.95008
500 1 6.2699 15.7435 9.42316 -8.92076
501 1 9.43069 15.7266 9.43242 -9.00637
502 1 12.5842 15.7336 9.42811 -8.9484
503 1 15.7268 15.7263 9.43493 -8.94856
504 1 18.8699 15.7249 9.43462 -8.94952
505 1 22.0136 18.8694 9.43446 -8.94952
506 1 3.14345 18.8704 9.43417 -8.94926
507 1 6.28717 18.8744 9.43334 -8.95113
508 1 9.43505 18.8718 9.43382 -8.94674
509 1 12.58 18.8713 9.43432 -8.95149
510 1 15.7248 18.8699 9.4347 -8.9495
511 1 18.8693 18.8694 9.43451 -8.94951
688 3 10.1103 11.007 9.39511 2.38224
512 1 1.57142 11.007 11.007 -8.94643
513 1 4.7204 11.007 11.007 -8.93569
514 1 7.89142 11.007 11.007 -8.73896
515 1 11.2851 11.007 11.007 -7.3524
516 1 14.1447 11.007 11.007 -9.0164
517 1 17.2972 11.007 11.007 -8.9462
518 1 20.4417 11.007 11.007 -8.94869
519 1 1.56874 14.1521 11.007 -8.9536
520 1 4.69895 14.157 11.007 -8.96529
521 1 7.78121 14.2202 11.007 -8.74713
522 1 11.049 14.1679 11.007 -8.84428
523 1 14.1576 14.1517 11.007 -8.96494
524 1 17.2987 14.1526 11.007 -8.94996
525 1 20.4415 14.1521 11.007 -8.95025
526 1 1.57077 17.2976 11.007 -8.94915
527 1 4.71227 17.3016 11.007 -8.94615
528 1 7.85809 17.311 11.007 -8.96611
529 1 11.0067 17.3001 11.007 -8.95391
530 1 14.1527 17.298 11.007 -8.94785
531 1 17.2976 17.2976 11.007 -8.94877
532 1 20.4414 17.2971 11.007 -8.94955
533 1 1.57201 20.4418 11.007 -8.94956
534 1 4.71621 20.4428 11.007 -8.94925
535 1 7.86206 20.444 11.007 -8.95303
536 1 11.0072 20.4425 11.007 -8.94956
537 1 14.1523 20.442 11.007 -8.9492
538 1 17.2969 20.4418 11.007 -8.94956
539 1 20.4415 20.4416 11.007 -8.94962
540 1 1.57149 11.007 14.1526 -8.9479
541 1 4.71786 11.007 14.1525 -8.93925
542 1 7.88249 11.007 14.1354 -8.85138
543 1 11.1049 11.007 14.3497 -8.21179
544 1 14.1708 11.007 14.1658 -8.96571
545 1 17.3019 11.007 14.1525 -8.95178
546 1 20.4424 11.007 14.1519 -8.9501
547 1 22.0132 12.5792 12.5795 -8.94978
548 1 1.5703 14.1518 14.1522 -8.95147
549 1 3.1414 12.5782 12.5799 -8.95039
550 1 4.70752 14.1539 14.1547 -8.95927
551 1 6.28049 12.5831 12.5791 -8.96864
552 1 7.82019 14.1886 14.1893 -8.86244
553 1 9.35622 12.84 12.5693 -8.05692
554 1 11.0205 14.1647 14.1797 -8.90003
555 1 12.5968 12.6065 12.628 -8.82429
556 1 14.1662 14.1637 14.1609 -8.93396
557 1 15.7289 12.58 12.5807 -8.95291
558 1 17.3004 14.1532 14.152 -8.95179
559 1 18.8705 12.5796 12.5792 -8.94989
560 1 20.4419 14.152 14.1519 -8.95038
561 1 22.0128 15.7247 12.5796 -8.95029
562 1 1.57078 17.2976 14.1525 -8.94937
563 1 3.13881 15.727 12.5809 -8.95008
564 1 4.7119 17.3019 14.1558 -8.9424
565 1 6.2699 15.7435 12.5907 -8.92076
566 1 7.85997 17.3051 14.1541 -8.95804
567 1 9.43069 15.7266 12.5815 -9.00637
568 1 11.0067 17.3005 14.1531 -8.95069
569 1 12.5842 15.7336 12.5858 -8.9484
570 1 14.1544 17.301 14.1532 -8.94893
571 1 15.7268 15.7263 12.579 -8.94856
572 1 17.2976 17.2975 14.1518 -8.94973
573 1 18.8699 15.7249 12.5793 -8.94952
574 1 20.4414 17.297 14.1519 -8.94967
575 1 22.0136 18.8694 12.5794 -8.94952
576 1 1.57204 20.4418 14.1519 -8.94958
577 1 3.14345 18.8704 12.5797 -8.94926
578 1 4.71628 20.4428 14.1525 -8.94967
579 1 6.28717 18.8744 12.5806 -8.95113
580 1 7.8621 20.4431 14.1522 -8.951
581 1 9.43505 18.8718 12.5801 -8.94674
582 1 11.0072 20.4425 14.1522 -8.94953
583 1 12.58 18.8713 12.5796 -8.95149
584 1 14.1523 20.4423 14.152 -8.95025
585 1 15.7248 18.8699 12.5792 -8.9495
586 1 17.2969 20.4417 14.1518 -8.94962
587 1 18.8693 18.8694 12.5794 -8.94951
588 1 20.4415 20.4416 14.1518 -8.94959
589 1 1.57185 11.007 17.2973 -8.94949
590 1 4.71587 11.007 17.2984 -8.94659
591 1 7.86484 11.007 17.293 -8.94483
592 1 11.0113 11.007 17.2961 -8.99487
593 1 14.1618 11.007 17.3075 -8.94204
594 1 17.3002 11.007 17.2986 -8.94914
595 1 20.4422 11.007 17.2971 -8.9498
596 1 22.0138 12.5794 15.7246 -8.9498
597 1 1.57196 14.1517 17.297 -8.94956
598 1 3.14336 12.5787 15.7252 -8.9491
599 1 4.71583 14.1512 17.2979 -8.95111
600 1 6.28732 12.5756 15.7249 -8.9506
601 1 7.85808 14.1555 17.3055 -8.95741
602 1 9.42529 12.5958 15.7246 -8.91557
603 1 11.0062 14.1557 17.305 -8.95218
604 1 12.6188 12.6116 15.7663 -8.87742
605 1 14.1638 14.1634 17.3098 -8.93249
606 1 15.735 12.5824 15.7291 -8.95494
607 1 17.3002 14.1534 17.2985 -8.95039
608 1 18.8716 12.5797 15.7248 -8.95104
609 1 20.4421 14.152 17.297 -8.94994
610 1 22.0134 15.7245 15.7245 -8.95018
611 1 1.57152 17.2971 17.2973 -8.94984
612 1 3.14154 15.7255 15.726 -8.95131
613 1 4.7139 17.2999 17.3004 -8.94497
614 1 6.27743 15.736 15.7374 -8.93204
615 1 7.8615 17.2991 17.2988 -8.94846
616 1 9.43363 15.7321 15.7298 -8.94769
617 1 11.0072 17.2992 17.2987 -8.94783
618 1 12.5849 15.7348 15.7316 -8.95303
619 1 14.1539 17.3005 17.299 -8.95008
620 1 15.7288 15.7283 15.7269 -8.94617
621 1 17.2978 17.2978 17.2974 -8.94892
622 1 18.8702 15.7249 15.7245 -8.94997
623 1 20.4416 17.2969 17.2968 -8.94974
624 1 -0.000345145 18.8694 15.7244 -8.94949
625 1 1.57209 20.4417 17.2969 -8.94933
626 1 3.1435 18.8703 15.7253 -8.9481
627 1 4.71677 20.4422 17.2973 -8.94999
628 1 6.28853 18.872 15.7258 -8.9515
629 1 7.86207 20.4421 17.2972 -8.94948
630 1 9.43477 18.8716 15.7255 -8.94987
631 1 11.0071 20.4422 17.2972 -8.94951
632 1 12.5798 18.8714 15.7248 -8.95167
633 1 14.1521 20.4422 17.297 -8.95028
634 1 15.7251 18.8704 15.7247 -8.94935
635 1 17.2969 20.4418 17.2968 -8.94955
636 1 18.8693 18.8693 15.7243 -8.94968
637 1 20.4415 20.4416 17.2967 -8.94961
638 1 1.57225 11.007 20.4417 -8.94963
639 1 4.71676 11.007 20.442 -8.94971
640 1 7.8618 11.007 20.4414 -8.94788
641 1 11.0064 11.007 20.4425 -8.94698
642 1 14.1536 11.007 20.4442 -8.94974
643 1 17.2976 11.007 20.4421 -8.94943
644 1 20.4417 11.007 20.4416 -8.94959
645 1 1.90275e-05 12.5794 18.8693 -8.94958
646 1 1.57228 14.1518 20.4416 -8.94948
647 1 3.14429 12.5794 18.8697 -8.94909
648 1 4.71699 14.1516 20.4418 -8.94965
649 1 6.28941 12.5784 18.8696 -8.94939
650 1 7.86175 14.1519 20.4429 -8.95227
651 1 9.43456 12.5791 18.87 -8.94891
652 1 11.0063 14.1527 20.4433 -8.95059
653 1 12.5815 12.5806 18.8776 -8.95995
654 1 14.1531 14.1532 20.4441 -8.95199
655 1 15.7271 12.5804 18.8721 -8.94763
656 1 17.2975 14.1522 20.4421 -8.94923
657 1 18.87 12.5796 18.8697 -8.94937
658 1 20.4417 14.1519 20.4416 -8.94955
659 1 22.0139 15.7243 18.8692 -8.9497
660 1 1.57229 17.2967 20.4416 -8.94982
661 1 3.14431 15.7242 18.8696 -8.95019
662 1 4.71659 17.2973 20.4423 -8.94981
663 1 6.28787 15.7258 18.8725 -8.95112
664 1 7.86187 17.2973 20.4421 -8.94913
665 1 9.43392 15.7261 18.8716 -8.94798
666 1 11.0069 17.2974 20.4421 -8.94938
667 1 12.5797 15.7261 18.8717 -8.94957
668 1 14.152 17.2974 20.4421 -8.94977
669 1 15.7276 15.7276 18.8725 -8.94512
670 1 17.2975 17.2976 20.4421 -8.94839
671 1 18.87 15.7248 18.8696 -8.94966
672 1 20.4417 17.2968 20.4416 -8.9496
673 1 22.0137 18.8692 18.8692 -8.9496
674 1 1.57223 20.4416 20.4416 -8.9493
675 1 3.14403 18.8698 18.8699 -8.94842
676 1 4.71718 20.4416 20.4416 -8.94968
677 1 6.28945 18.8697 18.8697 -8.94958
678 1 7.86207 20.4417 20.4417 -8.94957
679 1 9.4345 18.8699 18.8698 -8.94946
680 1 11.007 20.4417 20.4417 -8.94959
681 1 12.5795 18.8699 18.8697 -8.9492
682 1 14.1519 20.4417 20.4416 -8.94955
683 1 15.7249 18.8701 18.8697 -8.94955
684 1 17.2968 20.4417 20.4416 -8.94959
685 1 18.8693 18.8694 18.8692 -8.94949
686 1 20.4415 20.4416 20.4415 -8.94952
687 3 10.1103 11.007 12.6188 2.38224
