ITEM: TIMESTEP
44
ITEM: NUMBER OF ATOMS
688
ITEM: BOX BOUNDS pp pp pp
0.0000000000000000e+00 2.2013900999999997e+01
0.0000000000000000e+00 2.2013900999999997e+01
0.0000000000000000e+00 2.2013900999999997e+01
ITEM: ATOMS id type x y z c_pot
1 1 22.0139 4.57657e-16 1.2422e-15 -8.94963
2 1 1.57242 1.57242 1.57242 -8.94963
3 1 3.14484 1.0391e-15 3.81914e-16 -8.94963
4 1 4.71726 1.57242 1.57242 -8.94963
5 1 6.28969 8.6446e-16 1.43334e-15 -8.94963
6 1 7.86211 1.57242 1.57242 -8.94963
7 1 9.43453 1.4514e-15 1.18888e-15 -8.94963
8 1 11.007 1.57242 1.57242 -8.94963
9 1 12.5794 1.42881e-15 4.38219e-16 -8.94963
10 1 14.1518 1.57242 1.57242 -8.94963
11 1 15.7242 -7.96826e-16 -3.81631e-16 -8.94963
12 1 17.2966 1.57242 1.57242 -8.94963
13 1 18.8691 1.0556e-15 4.19723e-16 -8.94963
14 1 20.4415 1.57242 1.57242 -8.94963
15 1 22.0139 3.14484 7.17931e-16 -8.94963
16 1 1.57242 4.71726 1.57242 -8.94963
17 1 3.14484 3.14484 9.18897e-16 -8.94963
18 1 4.71726 4.71726 1.57242 -8.94963
19 1 6.28969 3.14484 1.82581e-15 -8.94963
20 1 7.86211 4.71726 1.57242 -8.94964
21 1 9.43453 3.14484 4.91323e-16 -8.94963
22 1 11.007 4.71726 1.57242 -8.94964
23 1 12.5794 3.14484 2.71057e-16 -8.94963
24 1 14.1518 4.71727 1.57242 -8.94966
25 1 15.7242 3.14484 7.00878e-17 -8.94964
26 1 17.2966 4.71726 1.57242 -8.94962
27 1 18.8691 3.14484 8.585e-16 -8.94963
28 1 20.4415 4.71726 1.57242 -8.94963
29 1 22.0139 6.28969 1.61563e-15 -8.94963
30 1 1.57242 7.86211 1.57242 -8.94963
31 1 3.14484 6.28969 1.91344e-15 -8.94963
32 1 4.71726 7.86211 1.57242 -8.94964
33 1 6.28968 6.28968 1.21279e-15 -8.94963
34 1 7.8621 7.8621 1.5724 -8.94967
35 1 9.43453 6.28969 -1.64644e-16 -8.94964
36 1 11.0069 7.86211 1.57242 -8.94964
37 1 12.5794 6.28969 7.15538e-16 -8.94964
38 1 14.1518 7.86209 1.57239 -8.94964
39 1 15.7242 6.28968 -5.1978e-16 -8.94962
40 1 17.2966 7.86211 1.57242 -8.94965
41 1 18.8691 6.28969 1.08329e-15 -8.94964
42 1 20.4415 7.86211 1.57242 -8.94963
43 1 22.0139 9.43453 9.96824e-16 -8.94963
44 1 3.14484 9.43453 7.67511e-16 -8.94963
45 1 6.28969 9.43453 7.62929e-16 -8.94965
46 1 9.43452 9.43452 1.5142e-15 -8.94967
47 1 12.5794 9.43452 -1.51384e-16 -8.94981
48 1 15.7242 9.43453 -1.27699e-16 -8.94963
49 1 18.8691 9.43453 7.53232e-16 -8.94963
50 1 2.97734e-09 6.03701e-16 3.14484 -8.94963
51 1 1.57242 1.57242 4.71726 -8.94963
52 1 3.14484 -1.88521e-16 3.14484 -8.94963
53 1 4.71726 1.57242 4.71726 -8.94963
54 1 6.28969 1.82557e-15 3.14484 -8.94963
55 1 7.86211 1.57242 4.71727 -8.94963
56 1 9.43453 1.891e-15 3.14484 -8.94963
57 1 11.007 1.57242 4.71726 -8.94964
58 1 12.5794 5.19542e-16 3.14484 -8.94963
59 1 14.1518 1.57242 4.71726 -8.94963
60 1 15.7242 -1.31224e-18 3.14484 -8.94963
61 1 17.2966 1.57242 4.71726 -8.94963
62 1 18.8691 2.62629e-16 3.14484 -8.94963
63 1 20.4415 1.57242 4.71726 -8.94963
64 1 22.0139 3.14484 3.14484 -8.94963
65 1 1.57242 4.71726 4.71726 -8.94963
66 1 3.14484 3.14484 3.14484 -8.94962
67 1 4.71724 4.71724 4.71724 -8.9494
68 1 6.28969 3.14484 3.14484 -8.94966
69 1 7.86212 4.71728 4.71728 -8.94989
70 1 9.43453 3.14484 3.14484 -8.94964
71 1 11.0069 4.71726 4.71726 -8.94963
72 1 12.5794 3.14484 3.14484 -8.94964
73 1 14.1518 4.71724 4.71725 -8.94967
74 1 15.7242 3.14484 3.14484 -8.94963
75 1 17.2966 4.71726 4.71726 -8.94964
76 1 18.8691 3.14484 3.14484 -8.94963
77 1 20.4415 4.71726 4.71726 -8.94963
78 1 22.0139 6.28969 3.14484 -8.94963
79 1 1.57242 7.86211 4.71726 -8.94963
80 1 3.14484 6.28969 3.14484 -8.94965
81 1 4.71726 7.8621 4.71726 -8.94977
82 1 6.28967 6.28967 3.14481 -8.94965
83 1 7.86193 7.86194 4.71677 -8.95075
84 1 9.43453 6.28968 3.14484 -8.94963
85 1 11.0068 7.8621 4.71712 -8.95135
86 1 12.5794 6.2897 3.14486 -8.94988
87 1 14.1523 7.86158 4.71674 -8.94574
88 1 15.7242 6.28966 3.14482 -8.9494
89 1 17.2967 7.8621 4.71725 -8.94969
90 1 18.8691 6.28969 3.14484 -8.94963
91 1 20.4415 7.86211 4.71726 -8.94964
92 1 7.34957e-08 9.43453 3.14484 -8.94963
93 1 3.14484 9.43453 3.14484 -8.94965
94 1 6.28968 9.43454 3.14483 -8.94974
95 1 9.43435 9.43435 3.14457 -8.94896
96 1 12.5796 9.43433 3.14432 -8.9507
97 1 15.7242 9.43453 3.14485 -8.94983
98 1 18.8691 9.43453 3.14484 -8.94963
99 1 22.0139 1.89098e-16 6.28969 -8.94963
100 1 1.57242 1.57242 7.86211 -8.94963
101 1 3.14484 1.38054e-16 6.28969 -8.94963
102 1 4.71726 1.57242 7.86211 -8.94963
103 1 6.28969 3.09521e-16 6.28969 -8.94964
104 1 7.8621 1.5724 7.8621 -8.94972
105 1 9.43453 1.12366e-15 6.28969 -8.94963
106 1 11.007 1.57241 7.8621 -8.94965
107 1 12.5794 9.98706e-16 6.28969 -8.94964
108 1 14.1518 1.57242 7.86211 -8.94964
109 1 15.7242 1.07599e-15 6.28969 -8.94963
110 1 17.2966 1.57242 7.86211 -8.94963
111 1 18.8691 1.33e-15 6.28969 -8.94963
112 1 20.4415 1.57242 7.86211 -8.94963
113 1 1.86037e-08 3.14484 6.28969 -8.94963
114 1 1.57242 4.71726 7.86211 -8.94963
115 1 3.14484 3.14484 6.28969 -8.94964
116 1 4.71725 4.71725 7.86209 -8.9496
117 1 6.28967 3.14481 6.28967 -8.94965
118 1 7.86192 4.71677 7.86192 -8.95084
119 1 9.43453 3.14484 6.28969 -8.94964
120 1 11.0071 4.71701 7.86193 -8.94895
121 1 12.5794 3.14482 6.28968 -8.94967
122 1 14.1518 4.71722 7.8621 -8.94974
123 1 15.7242 3.14484 6.28969 -8.94963
124 1 17.2966 4.71727 7.86211 -8.94966
125 1 18.8691 3.14484 6.28969 -8.94963
126 1 20.4415 4.71726 7.86211 -8.94963
127 1 22.0139 6.28969 6.28969 -8.94964
128 1 1.5724 7.8621 7.8621 -8.94972
129 1 3.14482 6.28967 6.28967 -8.94968
130 1 4.71682 7.86198 7.86198 -8.95115
131 1 6.28918 6.28917 6.28915 -8.94578
132 1 7.85384 7.85428 7.85369 -8.89551
133 1 9.43465 6.28954 6.28969 -8.9514
134 1 11.0095 7.86049 7.8591 -8.93294
135 1 12.5795 6.28922 6.28953 -8.95095
136 1 14.1526 7.86136 7.86155 -8.94534
137 1 15.7242 6.28966 6.28965 -8.94955
138 1 17.2967 7.86208 7.86209 -8.94968
139 1 18.8691 6.28969 6.28968 -8.94963
140 1 20.4415 7.86211 7.86211 -8.94964
141 1 22.0139 9.43453 6.28969 -8.94964
142 1 3.14482 9.43453 6.28967 -8.94966
143 1 6.2893 9.43446 6.2894 -8.94896
144 1 9.43182 9.43147 6.28791 -8.93284
145 1 12.5877 9.42635 6.28148 -8.89478
146 1 15.7246 9.43441 6.28958 -8.95126
147 1 18.8691 9.43453 6.28968 -8.94972
148 1 -6.93857e-09 1.68483e-15 9.43453 -8.94963
149 1 3.14484 7.06558e-16 9.43453 -8.94963
150 1 6.28968 1.23724e-15 9.43453 -8.94964
151 1 9.43453 9.71607e-16 9.43453 -8.9498
152 1 12.5794 1.43171e-15 9.43453 -8.94964
153 1 15.7242 8.94781e-16 9.43453 -8.94963
154 1 18.8691 1.00045e-15 9.43453 -8.94963
155 1 22.0139 3.14484 9.43453 -8.94963
156 1 3.14484 3.14484 9.43453 -8.94967
157 1 6.28967 3.1448 9.43451 -8.9496
158 1 9.43454 3.14451 9.43453 -8.95119
159 1 12.5794 3.14481 9.43452 -8.9497
160 1 15.7242 3.14484 9.43453 -8.94963
161 1 18.8691 3.14484 9.43453 -8.94963
162 1 22.0139 6.28969 9.43453 -8.94964
163 1 3.14481 6.28967 9.43452 -8.94964
164 1 6.28903 6.289 9.43402 -8.94709
165 1 9.43442 6.28354 9.43456 -8.97759
166 1 12.5795 6.28911 9.43436 -8.95209
167 1 15.7242 6.28968 9.43452 -8.94968
168 1 18.8691 6.28969 9.43453 -8.94963
169 1 22.0139 9.43453 9.43453 -8.94969
170 1 3.14462 9.43453 9.43452 -8.95066
171 1 6.2851 9.43383 9.43429 -8.96254
172 1 9.36834 9.28666 9.4352 -8.0088
173 1 12.5893 9.42402 9.42639 -8.86153
174 1 15.725 9.43424 9.43443 -8.95069
175 1 18.8691 9.43452 9.43453 -8.94977
176 1 1.57242 1.57242 11.007 -8.94963
177 1 4.71727 1.57242 11.007 -8.94964
178 1 7.86209 1.57238 11.007 -8.94981
179 1 11.007 1.57239 11.007 -8.94967
180 1 14.1518 1.57242 11.007 -8.94965
181 1 17.2966 1.57242 11.007 -8.94963
182 1 20.4415 1.57242 11.007 -8.94963
183 1 1.57242 4.71727 11.007 -8.94963
184 1 4.71728 4.71728 11.007 -8.95004
185 1 7.86171 4.71625 11.007 -8.95146
186 1 11.0073 4.71674 11.007 -8.9483
187 1 14.1518 4.71724 11.007 -8.94984
188 1 17.2966 4.71727 11.007 -8.94966
189 1 20.4415 4.71726 11.007 -8.94963
190 1 1.57239 7.8621 11.007 -8.94982
191 1 4.71638 7.86187 11.007 -8.9523
192 1 7.84588 7.84676 11.007 -8.83963
193 1 11.0125 7.85874 11.007 -8.91519
194 1 14.1525 7.8616 11.007 -8.95034
195 1 17.2967 7.86208 11.007 -8.94961
196 1 20.4415 7.86211 11.007 -8.94965
197 1 -6.93857e-09 1.76503e-15 12.5794 -8.94963
198 1 1.57242 1.57242 14.1518 -8.94963
199 1 3.14484 6.9183e-16 12.5794 -8.94963
200 1 4.71726 1.57242 14.1518 -8.94963
201 1 6.28968 1.30832e-15 12.5794 -8.94964
202 1 7.8621 1.5724 14.1518 -8.94972
203 1 9.43453 1.14058e-15 12.5794 -8.9498
204 1 11.007 1.57241 14.1518 -8.94965
205 1 12.5794 1.63318e-15 12.5794 -8.94964
206 1 14.1518 1.57242 14.1518 -8.94964
207 1 15.7242 8.51878e-16 12.5794 -8.94963
208 1 17.2966 1.57242 14.1518 -8.94963
209 1 18.8691 1.02398e-15 12.5794 -8.94963
210 1 20.4415 1.57242 14.1518 -8.94963
211 1 22.0139 3.14484 12.5794 -8.94963
212 1 1.57242 4.71726 14.1518 -8.94963
213 1 3.14484 3.14484 12.5794 -8.94967
214 1 4.71725 4.71725 14.1518 -8.9496
215 1 6.28967 3.1448 12.5794 -8.9496
216 1 7.86192 4.71677 14.152 -8.95084
217 1 9.43454 3.14451 12.5794 -8.95119
218 1 11.0071 4.71701 14.152 -8.94895
219 1 12.5794 3.14481 12.5794 -8.9497
220 1 14.1518 4.71722 14.1518 -8.94974
221 1 15.7242 3.14484 12.5794 -8.94963
222 1 17.2966 4.71727 14.1518 -8.94966
223 1 18.8691 3.14484 12.5794 -8.94963
224 1 20.4415 4.71726 14.1518 -8.94963
225 1 22.0139 6.28969 12.5794 -8.94964
226 1 1.5724 7.8621 14.1518 -8.94972
227 1 3.14481 6.28967 12.5794 -8.94964
228 1 4.71682 7.86198 14.1519 -8.95115
229 1 6.28903 6.289 12.5799 -8.94709
230 1 7.85384 7.85428 14.1602 -8.89551
231 1 9.43442 6.28354 12.5793 -8.97759
232 1 11.0095 7.86049 14.1548 -8.93294
233 1 12.5795 6.28911 12.5795 -8.95209
234 1 14.1526 7.86136 14.1523 -8.94534
235 1 15.7242 6.28968 12.5794 -8.94968
236 1 17.2967 7.86208 14.1518 -8.94968
237 1 18.8691 6.28969 12.5794 -8.94963
238 1 20.4415 7.86211 14.1518 -8.94964
239 1 22.0139 9.43453 12.5794 -8.94969
240 1 3.14462 9.43453 12.5794 -8.95066
241 1 6.2851 9.43383 12.5796 -8.96254
242 1 9.36834 9.28666 12.5787 -8.0088
243 1 12.5893 9.42402 12.5875 -8.86153
244 1 15.725 9.43424 12.5795 -8.95069
245 1 18.8691 9.43452 12.5794 -8.94977
246 1 22.0139 1.76094e-16 15.7242 -8.94963
247 1 1.57242 1.57242 17.2966 -8.94963
248 1 3.14484 3.35138e-16 15.7242 -8.94963
249 1 4.71726 1.57242 17.2966 -8.94963
250 1 6.28969 3.13432e-16 15.7242 -8.94964
251 1 7.86211 1.57242 17.2966 -8.94963
252 1 9.43453 1.33521e-15 15.7242 -8.94963
253 1 11.007 1.57242 17.2966 -8.94964
254 1 12.5794 8.35321e-16 15.7242 -8.94964
255 1 14.1518 1.57242 17.2966 -8.94963
256 1 15.7242 1.26699e-15 15.7242 -8.94963
257 1 17.2966 1.57242 17.2966 -8.94963
258 1 18.8691 1.46111e-15 15.7242 -8.94963
259 1 20.4415 1.57242 17.2966 -8.94963
260 1 1.86037e-08 3.14484 15.7242 -8.94963
261 1 1.57242 4.71726 17.2966 -8.94963
262 1 3.14484 3.14484 15.7242 -8.94964
263 1 4.71724 4.71724 17.2967 -8.9494
264 1 6.28967 3.14481 15.7242 -8.94965
265 1 7.86212 4.71728 17.2966 -8.94989
266 1 9.43453 3.14484 15.7242 -8.94964
267 1 11.0069 4.71726 17.2966 -8.94963
268 1 12.5794 3.14482 15.7242 -8.94967
269 1 14.1518 4.71724 17.2966 -8.94967
270 1 15.7242 3.14484 15.7242 -8.94963
271 1 17.2966 4.71726 17.2966 -8.94964
272 1 18.8691 3.14484 15.7242 -8.94963
273 1 20.4415 4.71726 17.2966 -8.94963
274 1 22.0139 6.28969 15.7242 -8.94964
275 1 1.57242 7.86211 17.2966 -8.94963
276 1 3.14482 6.28967 15.7242 -8.94968
277 1 4.71726 7.8621 17.2966 -8.94977
278 1 6.28918 6.28917 15.7248 -8.94578
279 1 7.86193 7.86194 17.2971 -8.95075
280 1 9.43465 6.28954 15.7242 -8.9514
281 1 11.0068 7.8621 17.2968 -8.95135
282 1 12.5795 6.28922 15.7244 -8.95095
283 1 14.1523 7.86158 17.2972 -8.94574
284 1 15.7242 6.28966 15.7242 -8.94955
285 1 17.2967 7.8621 17.2966 -8.94969
286 1 18.8691 6.28969 15.7242 -8.94963
287 1 20.4415 7.86211 17.2966 -8.94964
288 1 22.0139 9.43453 15.7242 -8.94964
289 1 3.14482 9.43453 15.7242 -8.94966
290 1 6.2893 9.43446 15.7245 -8.94896
291 1 9.43182 9.43147 15.726 -8.93284
292 1 12.5877 9.42635 15.7324 -8.89478
293 1 15.7246 9.43441 15.7243 -8.95126
294 1 18.8691 9.43453 15.7242 -8.94972
295 1 2.97734e-09 6.78092e-16 18.8691 -8.94963
296 1 1.57242 1.57242 20.4415 -8.94963
297 1 3.14484 -2.16854e-16 18.8691 -8.94963
298 1 4.71726 1.57242 20.4415 -8.94963
299 1 6.28969 1.86177e-15 18.8691 -8.94963
300 1 7.86211 1.57242 20.4415 -8.94963
301 1 9.43453 1.92316e-15 18.8691 -8.94963
302 1 11.007 1.57242 20.4415 -8.94963
303 1 12.5794 5.02005e-16 18.8691 -8.94963
304 1 14.1518 1.57242 20.4415 -8.94963
305 1 15.7242 -1.77067e-16 18.8691 -8.94963
306 1 17.2966 1.57242 20.4415 -8.94963
307 1 18.8691 1.03672e-16 18.8691 -8.94963
308 1 20.4415 1.57242 20.4415 -8.94963
309 1 22.0139 3.14484 18.8691 -8.94963
310 1 1.57242 4.71726 20.4415 -8.94963
311 1 3.14484 3.14484 18.8691 -8.94962
312 1 4.71726 4.71726 20.4415 -8.94963
313 1 6.28969 3.14484 18.8691 -8.94966
314 1 7.86211 4.71726 20.4415 -8.94964
315 1 9.43453 3.14484 18.8691 -8.94964
316 1 11.007 4.71726 20.4415 -8.94964
317 1 12.5794 3.14484 18.8691 -8.94964
318 1 14.1518 4.71727 20.4415 -8.94966
319 1 15.7242 3.14484 18.8691 -8.94963
320 1 17.2966 4.71726 20.4415 -8.94962
321 1 18.8691 3.14484 18.8691 -8.94963
322 1 20.4415 4.71726 20.4415 -8.94963
323 1 22.0139 6.28969 18.8691 -8.94963
324 1 1.57242 7.86211 20.4415 -8.94963
325 1 3.14484 6.28969 18.8691 -8.94965
326 1 4.71726 7.86211 20.4415 -8.94964
327 1 6.28967 6.28967 18.8691 -8.94965
328 1 7.8621 7.8621 20.4415 -8.94967
329 1 9.43453 6.28968 18.8691 -8.94963
330 1 11.0069 7.86211 20.4415 -8.94964
331 1 12.5794 6.2897 18.869 -8.94988
332 1 14.1518 7.86209 20.4415 -8.94964
333 1 15.7242 6.28966 18.8691 -8.9494
334 1 17.2966 7.86211 20.4415 -8.94965
335 1 18.8691 6.28969 18.8691 -8.94963
336 1 20.4415 7.86211 20.4415 -8.94963
337 1 7.34957e-08 9.43453 18.8691 -8.94963
338 1 3.14484 9.43453 18.8691 -8.94965
339 1 6.28968 9.43454 18.8691 -8.94974
340 1 9.43435 9.43435 18.8693 -8.94896
341 1 12.5796 9.43433 18.8696 -8.9507
342 1 15.7242 9.43453 18.869 -8.94983
343 1 18.8691 9.43453 18.8691 -8.94963
344 1 1.57242 11.007 1.57242 -8.94963
345 1 4.71726 11.007 1.57242 -8.94962
346 1 7.86211 11.007 1.57242 -8.94967
347 1 11.0069 11.007 1.5721 -8.95132
348 1 14.1518 11.007 1.57241 -8.9496
349 1 17.2966 11.007 1.57242 -8.94965
350 1 20.4415 11.007 1.57242 -8.94963
351 1 22.0139 12.5794 8.94505e-16 -8.94963
352 1 1.57242 14.1518 1.57242 -8.94963
353 1 3.14484 12.5794 7.27699e-16 -8.94963
354 1 4.71726 14.1518 1.57242 -8.94964
355 1 6.28969 12.5794 7.19989e-16 -8.94965
356 1 7.8621 14.1518 1.5724 -8.94967
357 1 9.43452 12.5794 1.42496e-15 -8.94967
358 1 11.0069 14.1518 1.57242 -8.94964
359 1 12.5794 12.5794 -1.35723e-16 -8.94981
360 1 14.1518 14.1518 1.57239 -8.94964
361 1 15.7242 12.5794 -1.66586e-16 -8.94963
362 1 17.2966 14.1518 1.57242 -8.94965
363 1 18.8691 12.5794 1.07394e-15 -8.94963
364 1 20.4415 14.1518 1.57242 -8.94963
365 1 22.0139 15.7242 1.49757e-15 -8.94963
366 1 1.57242 17.2966 1.57242 -8.94963
367 1 3.14484 15.7242 1.82048e-15 -8.94963
368 1 4.71726 17.2966 1.57242 -8.94963
369 1 6.28968 15.7242 1.38425e-15 -8.94963
370 1 7.86211 17.2966 1.57242 -8.94964
371 1 9.43453 15.7242 1.87787e-16 -8.94964
372 1 11.007 17.2966 1.57242 -8.94964
373 1 12.5794 15.7242 5.18967e-16 -8.94964
374 1 14.1518 17.2966 1.57242 -8.94966
375 1 15.7242 15.7242 -5.87255e-16 -8.94962
376 1 17.2966 17.2966 1.57242 -8.94962
377 1 18.8691 15.7242 1.28208e-15 -8.94964
378 1 20.4415 17.2966 1.57242 -8.94963
379 1 22.0139 18.8691 8.52188e-16 -8.94963
380 1 1.57242 20.4415 1.57242 -8.94963
381 1 3.14484 18.8691 1.04551e-15 -8.94963
382 1 4.71726 20.4415 1.57242 -8.94963
383 1 6.28969 18.8691 1.50245e-15 -8.94963
384 1 7.86211 20.4415 1.57242 -8.94963
385 1 9.43453 18.8691 4.19901e-16 -8.94963
386 1 11.007 20.4415 1.57242 -8.94963
387 1 12.5794 18.8691 2.19253e-16 -8.94963
388 1 14.1518 20.4415 1.57242 -8.94963
389 1 15.7242 18.8691 1.52818e-16 -8.94964
390 1 17.2966 20.4415 1.57242 -8.94963
391 1 18.8691 18.8691 1.30444e-15 -8.94963
392 1 20.4415 20.4415 1.57242 -8.94963
393 1 1.57242 11.007 4.71726 -8.94963
394 1 4.71727 11.007 4.71726 -8.94956
395 1 7.86219 11.007 4.71714 -8.9513
396 1 11.0072 11.007 4.71104 -8.97618
397 1 14.152 11.007 4.71708 -8.95101
398 1 17.2966 11.007 4.71726 -8.94961
399 1 20.4415 11.007 4.71726 -8.94963
400 1 7.34957e-08 12.5794 3.14484 -8.94963
401 1 1.57242 14.1518 4.71726 -8.94963
402 1 3.14484 12.5794 3.14484 -8.94965
403 1 4.71726 14.1518 4.71726 -8.94977
404 1 6.28968 12.5794 3.14483 -8.94974
405 1 7.86193 14.152 4.71677 -8.95075
406 1 9.43435 12.5796 3.14457 -8.94896
407 1 11.0068 14.1518 4.71712 -8.95135
408 1 12.5796 12.5796 3.14432 -8.9507
409 1 14.1523 14.1523 4.71674 -8.94574
410 1 15.7242 12.5794 3.14485 -8.94983
411 1 17.2967 14.1518 4.71725 -8.94969
412 1 18.8691 12.5794 3.14484 -8.94963
413 1 20.4415 14.1518 4.71726 -8.94964
414 1 22.0139 15.7242 3.14484 -8.94963
415 1 1.57242 17.2966 4.71726 -8.94963
416 1 3.14484 15.7242 3.14484 -8.94965
417 1 4.71724 17.2967 4.71724 -8.9494
418 1 6.28967 15.7242 3.14481 -8.94965
419 1 7.86212 17.2966 4.71728 -8.94989
420 1 9.43453 15.7242 3.14484 -8.94963
421 1 11.0069 17.2966 4.71726 -8.94963
422 1 12.5794 15.7242 3.14486 -8.94988
423 1 14.1518 17.2967 4.71725 -8.94967
424 1 15.7242 15.7242 3.14482 -8.9494
425 1 17.2966 17.2966 4.71726 -8.94964
426 1 18.8691 15.7242 3.14484 -8.94963
427 1 20.4415 17.2966 4.71726 -8.94963
428 1 22.0139 18.8691 3.14484 -8.94963
429 1 1.57242 20.4415 4.71726 -8.94963
430 1 3.14484 18.8691 3.14484 -8.94962
431 1 4.71726 20.4415 4.71726 -8.94963
432 1 6.28969 18.8691 3.14484 -8.94966
433 1 7.86211 20.4415 4.71727 -8.94963
434 1 9.43453 18.8691 3.14484 -8.94964
435 1 11.007 20.4415 4.71726 -8.94964
436 1 12.5794 18.8691 3.14484 -8.94964
437 1 14.1518 20.4415 4.71726 -8.94963
438 1 15.7242 18.8691 3.14484 -8.94963
439 1 17.2966 20.4415 4.71726 -8.94963
440 1 18.8691 18.8691 3.14484 -8.94963
441 1 20.4415 20.4415 4.71726 -8.94963
442 1 1.5724 11.007 7.8621 -8.94968
443 1 4.71689 11.007 7.86193 -8.94924
444 1 7.85889 11.007 7.85878 -8.89804
445 1 11.0754 11.007 7.71577 -8.0716
446 1 14.1561 11.007 7.86159 -8.96592
447 1 17.2968 11.007 7.8621 -8.95057
448 1 20.4415 11.007 7.86211 -8.94968
449 1 22.0139 12.5794 6.28969 -8.94964
450 1 1.5724 14.1518 7.8621 -8.94972
451 1 3.14482 12.5794 6.28967 -8.94966
452 1 4.71682 14.1519 7.86198 -8.95115
453 1 6.2893 12.5794 6.2894 -8.94896
454 1 7.85384 14.1596 7.85369 -8.89551
455 1 9.43182 12.5824 6.28791 -8.93284
456 1 11.0095 14.1534 7.8591 -8.93294
457 1 12.5877 12.5876 6.28148 -8.89478
458 1 14.1526 14.1525 7.86155 -8.94534
459 1 15.7246 12.5795 6.28958 -8.95126
460 1 17.2967 14.1518 7.86209 -8.94968
461 1 18.8691 12.5794 6.28968 -8.94972
462 1 20.4415 14.1518 7.86211 -8.94964
463 1 22.0139 15.7242 6.28969 -8.94964
464 1 1.57242 17.2966 7.86211 -8.94963
465 1 3.14482 15.7242 6.28967 -8.94968
466 1 4.71725 17.2966 7.86209 -8.9496
467 1 6.28918 15.7247 6.28915 -8.94578
468 1 7.86192 17.2971 7.86192 -8.95084
469 1 9.43465 15.7244 6.28969 -8.9514
470 1 11.0071 17.2969 7.86193 -8.94895
471 1 12.5795 15.7247 6.28953 -8.95095
472 1 14.1518 17.2967 7.8621 -8.94974
473 1 15.7242 15.7242 6.28965 -8.94955
474 1 17.2966 17.2966 7.86211 -8.94966
475 1 18.8691 15.7242 6.28968 -8.94963
476 1 20.4415 17.2966 7.86211 -8.94963
477 1 1.86037e-08 18.8691 6.28969 -8.94963
478 1 1.57242 20.4415 7.86211 -8.94963
479 1 3.14484 18.8691 6.28969 -8.94964
480 1 4.71726 20.4415 7.86211 -8.94963
481 1 6.28967 18.8691 6.28967 -8.94965
482 1 7.8621 20.4415 7.8621 -8.94972
483 1 9.43453 18.8691 6.28969 -8.94964
484 1 11.007 20.4415 7.8621 -8.94965
485 1 12.5794 18.8691 6.28968 -8.94967
486 1 14.1518 20.4415 7.86211 -8.94964
487 1 15.7242 18.8691 6.28969 -8.94963
488 1 17.2966 20.4415 7.86211 -8.94963
489 1 18.8691 18.8691 6.28969 -8.94963
490 1 20.4415 20.4415 7.86211 -8.94963
491 1 22.0139 12.5794 9.43453 -8.94969
492 1 3.14462 12.5794 9.43452 -8.95066
493 1 6.2851 12.5801 9.43429 -8.96254
494 1 9.36834 12.7272 9.4352 -8.0088
495 1 12.5893 12.5899 9.42639 -8.86153
496 1 15.725 12.5797 9.43443 -8.95069
497 1 18.8691 12.5794 9.43453 -8.94977
498 1 22.0139 15.7242 9.43453 -8.94964
499 1 3.14481 15.7242 9.43452 -8.94964
500 1 6.28903 15.7249 9.43402 -8.94709
501 1 9.43442 15.7304 9.43456 -8.97759
502 1 12.5795 15.7248 9.43436 -8.95209
503 1 15.7242 15.7242 9.43452 -8.94968
504 1 18.8691 15.7242 9.43453 -8.94963
505 1 22.0139 18.8691 9.43453 -8.94963
506 1 3.14484 18.8691 9.43453 -8.94967
507 1 6.28967 18.8691 9.43451 -8.9496
508 1 9.43454 18.8694 9.43453 -8.95119
509 1 12.5794 18.8691 9.43452 -8.9497
510 1 15.7242 18.8691 9.43453 -8.94963
511 1 18.8691 18.8691 9.43453 -8.94963
688 3 10.1933 11.007 9.40978 3.13917
512 1 1.57238 11.007 11.007 -8.94972
513 1 4.7165 11.007 11.007 -8.94886
514 1 7.85579 11.007 11.007 -8.8371
515 1 11.1874 11.007 11.007 -7.02023
516 1 14.1572 11.007 11.007 -8.98083
517 1 17.297 11.007 11.007 -8.9509
518 1 20.4415 11.007 11.007 -8.94972
519 1 1.57239 14.1518 11.007 -8.94982
520 1 4.71638 14.152 11.007 -8.9523
521 1 7.84588 14.1671 11.007 -8.83963
522 1 11.0125 14.1552 11.007 -8.91519
523 1 14.1525 14.1523 11.007 -8.95034
524 1 17.2967 14.1518 11.007 -8.94961
525 1 20.4415 14.1518 11.007 -8.94965
526 1 1.57242 17.2966 11.007 -8.94963
527 1 4.71728 17.2966 11.007 -8.95004
528 1 7.86171 17.2977 11.007 -8.95146
529 1 11.0073 17.2972 11.007 -8.9483
530 1 14.1518 17.2967 11.007 -8.94984
531 1 17.2966 17.2966 11.007 -8.94966
532 1 20.4415 17.2966 11.007 -8.94963
533 1 1.57242 20.4415 11.007 -8.94963
534 1 4.71727 20.4415 11.007 -8.94964
535 1 7.86209 20.4415 11.007 -8.94981
536 1 11.007 20.4415 11.007 -8.94967
537 1 14.1518 20.4415 11.007 -8.94965
538 1 17.2966 20.4415 11.007 -8.94963
539 1 20.4415 20.4415 11.007 -8.94963
540 1 1.5724 11.007 14.1518 -8.94968
541 1 4.71689 11.007 14.152 -8.94924
542 1 7.85889 11.007 14.1551 -8.89804
543 1 11.0754 11.007 14.2981 -8.0716
544 1 14.1561 11.007 14.1523 -8.96592
545 1 17.2968 11.007 14.1518 -8.95057
546 1 20.4415 11.007 14.1518 -8.94968
547 1 22.0139 12.5794 12.5794 -8.94969
548 1 1.5724 14.1518 14.1518 -8.94972
549 1 3.14462 12.5794 12.5794 -8.95066
550 1 4.71682 14.1519 14.1519 -8.95115
551 1 6.2851 12.5801 12.5796 -8.96254
552 1 7.85384 14.1596 14.1602 -8.89551
553 1 9.36834 12.7272 12.5787 -8.0088
554 1 11.0095 14.1534 14.1548 -8.93294
555 1 12.5893 12.5899 12.5875 -8.86153
556 1 14.1526 14.1525 14.1523 -8.94534
557 1 15.725 12.5797 12.5795 -8.95069
558 1 17.2967 14.1518 14.1518 -8.94968
559 1 18.8691 12.5794 12.5794 -8.94977
560 1 20.4415 14.1518 14.1518 -8.94964
561 1 22.0139 15.7242 12.5794 -8.94964
562 1 1.57242 17.2966 14.1518 -8.94963
563 1 3.14481 15.7242 12.5794 -8.94964
564 1 4.71725 17.2966 14.1518 -8.9496
565 1 6.28903 15.7249 12.5799 -8.94709
566 1 7.86192 17.2971 14.152 -8.95084
567 1 9.43442 15.7304 12.5793 -8.97759
568 1 11.0071 17.2969 14.152 -8.94895
569 1 12.5795 15.7248 12.5795 -8.95209
570 1 14.1518 17.2967 14.1518 -8.94974
571 1 15.7242 15.7242 12.5794 -8.94968
572 1 17.2966 17.2966 14.1518 -8.94966
573 1 18.8691 15.7242 12.5794 -8.94963
574 1 20.4415 17.2966 14.1518 -8.94963
575 1 22.0139 18.8691 12.5794 -8.94963
576 1 1.57242 20.4415 14.1518 -8.94963
577 1 3.14484 18.8691 12.5794 -8.94967
578 1 4.71726 20.4415 14.1518 -8.94963
579 1 6.28967 18.8691 12.5794 -8.9496
580 1 7.8621 20.4415 14.1518 -8.94972
581 1 9.43454 18.8694 12.5794 -8.95119
582 1 11.007 20.4415 14.1518 -8.94965
583 1 12.5794 18.8691 12.5794 -8.9497
584 1 14.1518 20.4415 14.1518 -8.94964
585 1 15.7242 18.8691 12.5794 -8.94963
586 1 17.2966 20.4415 14.1518 -8.94963
587 1 18.8691 18.8691 12.5794 -8.94963
588 1 20.4415 20.4415 14.1518 -8.94963
589 1 1.57242 11.007 17.2966 -8.94963
590 1 4.71727 11.007 17.2966 -8.94956
591 1 7.86219 11.007 17.2968 -8.9513
592 1 11.0072 11.007 17.3029 -8.97618
593 1 14.152 11.007 17.2968 -8.95101
594 1 17.2966 11.007 17.2966 -8.94961
595 1 20.4415 11.007 17.2966 -8.94963
596 1 22.0139 12.5794 15.7242 -8.94964
597 1 1.57242 14.1518 17.2966 -8.94963
598 1 3.14482 12.5794 15.7242 -8.94966
599 1 4.71726 14.1518 17.2966 -8.94977
600 1 6.2893 12.5794 15.7245 -8.94896
601 1 7.86193 14.152 17.2971 -8.95075
602 1 9.43182 12.5824 15.726 -8.93284
603 1 11.0068 14.1518 17.2968 -8.95135
604 1 12.5877 12.5876 15.7324 -8.89478
605 1 14.1523 14.1523 17.2972 -8.94574
606 1 15.7246 12.5795 15.7243 -8.95126
607 1 17.2967 14.1518 17.2966 -8.94969
608 1 18.8691 12.5794 15.7242 -8.94972
609 1 20.4415 14.1518 17.2966 -8.94964
610 1 22.0139 15.7242 15.7242 -8.94964
611 1 1.57242 17.2966 17.2966 -8.94963
612 1 3.14482 15.7242 15.7242 -8.94968
613 1 4.71724 17.2967 17.2967 -8.9494
614 1 6.28918 15.7247 15.7248 -8.94578
615 1 7.86212 17.2966 17.2966 -8.94989
616 1 9.43465 15.7244 15.7242 -8.9514
617 1 11.0069 17.2966 17.2966 -8.94963
618 1 12.5795 15.7247 15.7244 -8.95095
619 1 14.1518 17.2967 17.2966 -8.94967
620 1 15.7242 15.7242 15.7242 -8.94955
621 1 17.2966 17.2966 17.2966 -8.94964
622 1 18.8691 15.7242 15.7242 -8.94963
623 1 20.4415 17.2966 17.2966 -8.94963
624 1 1.86037e-08 18.8691 15.7242 -8.94963
625 1 1.57242 20.4415 17.2966 -8.94963
626 1 3.14484 18.8691 15.7242 -8.94964
627 1 4.71726 20.4415 17.2966 -8.94963
628 1 6.28967 18.8691 15.7242 -8.94965
629 1 7.86211 20.4415 17.2966 -8.94963
630 1 9.43453 18.8691 15.7242 -8.94964
631 1 11.007 20.4415 17.2966 -8.94964
632 1 12.5794 18.8691 15.7242 -8.94967
633 1 14.1518 20.4415 17.2966 -8.94963
634 1 15.7242 18.8691 15.7242 -8.94963
635 1 17.2966 20.4415 17.2966 -8.94963
636 1 18.8691 18.8691 15.7242 -8.94963
637 1 20.4415 20.4415 17.2966 -8.94963
638 1 1.57242 11.007 20.4415 -8.94963
639 1 4.71726 11.007 20.4415 -8.94962
640 1 7.86211 11.007 20.4415 -8.94967
641 1 11.0069 11.007 20.4418 -8.95132
642 1 14.1518 11.007 20.4415 -8.9496
643 1 17.2966 11.007 20.4415 -8.94965
644 1 20.4415 11.007 20.4415 -8.94963
645 1 7.34957e-08 12.5794 18.8691 -8.94963
646 1 1.57242 14.1518 20.4415 -8.94963
647 1 3.14484 12.5794 18.8691 -8.94965
648 1 4.71726 14.1518 20.4415 -8.94964
649 1 6.28968 12.5794 18.8691 -8.94974
650 1 7.8621 14.1518 20.4415 -8.94967
651 1 9.43435 12.5796 18.8693 -8.94896
652 1 11.0069 14.1518 20.4415 -8.94964
653 1 12.5796 12.5796 18.8696 -8.9507
654 1 14.1518 14.1518 20.4415 -8.94964
655 1 15.7242 12.5794 18.869 -8.94983
656 1 17.2966 14.1518 20.4415 -8.94965
657 1 18.8691 12.5794 18.8691 -8.94963
658 1 20.4415 14.1518 20.4415 -8.94963
659 1 22.0139 15.7242 18.8691 -8.94963
660 1 1.57242 17.2966 20.4415 -8.94963
661 1 3.14484 15.7242 18.8691 -8.94965
662 1 4.71726 17.2966 20.4415 -8.94963
663 1 6.28967 15.7242 18.8691 -8.94965
664 1 7.86211 17.2966 20.4415 -8.94964
665 1 9.43453 15.7242 18.8691 -8.94963
666 1 11.007 17.2966 20.4415 -8.94964
667 1 12.5794 15.7242 18.869 -8.94988
668 1 14.1518 17.2966 20.4415 -8.94966
669 1 15.7242 15.7242 18.8691 -8.9494
670 1 17.2966 17.2966 20.4415 -8.94962
671 1 18.8691 15.7242 18.8691 -8.94963
672 1 20.4415 17.2966 20.4415 -8.94963
673 1 22.0139 18.8691 18.8691 -8.94963
674 1 1.57242 20.4415 20.4415 -8.94963
675 1 3.14484 18.8691 18.8691 -8.94962
676 1 4.71726 20.4415 20.4415 -8.94963
677 1 6.28969 18.8691 18.8691 -8.94966
678 1 7.86211 20.4415 20.4415 -8.94963
679 1 9.43453 18.8691 18.8691 -8.94964
680 1 11.007 20.4415 20.4415 -8.94963
681 1 12.5794 18.8691 18.8691 -8.94964
682 1 14.1518 20.4415 20.4415 -8.94963
683 1 15.7242 18.8691 18.8691 -8.94963
684 1 17.2966 20.4415 20.4415 -8.94963
685 1 18.8691 18.8691 18.8691 -8.94963
686 1 20.4415 20.4415 20.4415 -8.94963
687 3 10.1933 11.007 12.6041 3.13917
