ITEM: TIMESTEP
65
ITEM: NUMBER OF ATOMS
688
ITEM: BOX BOUNDS pp pp pp
0.0000000000000000e+00 2.2013900999999997e+01
0.0000000000000000e+00 2.2013900999999997e+01
0.0000000000000000e+00 2.2013900999999997e+01
ITEM: ATOMS id type x y z c_pot
1 1 22.0138 6.69527e-16 7.63058e-16 -8.94923
2 1 1.57203 1.57214 1.57214 -8.94917
3 1 3.14467 1.60948e-15 9.78293e-16 -8.94969
4 1 4.71703 1.57211 1.57211 -8.94962
5 1 6.28958 1.16927e-15 8.19394e-16 -8.94954
6 1 7.86201 1.57206 1.57209 -8.9495
7 1 9.4345 1.06209e-15 3.17129e-16 -8.94957
8 1 11.007 1.57202 1.57209 -8.94953
9 1 12.5794 9.40376e-16 3.88025e-16 -8.94955
10 1 14.1519 1.57204 1.57215 -8.94949
11 1 15.7243 1.36427e-15 -5.46599e-16 -8.94959
12 1 17.297 1.57199 1.57214 -8.94955
13 1 18.8693 5.36999e-16 1.29924e-15 -8.94937
14 1 20.4416 1.57224 1.57233 -8.94942
15 1 22.0139 3.14467 1.46289e-15 -8.94963
16 1 1.57218 4.71713 1.57213 -8.94988
17 1 3.14431 3.14434 1.5753e-15 -8.94948
18 1 4.71626 4.71637 1.57122 -8.94995
19 1 6.28944 3.14432 6.56751e-16 -8.94939
20 1 7.86166 4.71626 1.57146 -8.94907
21 1 9.43443 3.14418 7.43102e-16 -8.9495
22 1 11.0069 4.71609 1.5715 -8.94931
23 1 12.5795 3.14419 1.00934e-15 -8.94941
24 1 14.1523 4.716 1.57148 -8.94977
25 1 15.7246 3.14418 1.61319e-16 -8.94975
26 1 17.2981 4.71582 1.57151 -8.94825
27 1 18.8696 3.14428 1.42573e-15 -8.94891
28 1 20.4419 4.71693 1.57218 -8.94956
29 1 22.014 6.28959 1.92984e-15 -8.94951
30 1 1.57221 7.86207 1.57216 -8.94941
31 1 3.14457 6.28975 1.63269e-15 -8.94981
32 1 4.71689 7.86245 1.57199 -8.94966
33 1 6.28906 6.28928 1.367e-15 -8.95127
34 1 7.86169 7.86205 1.57088 -8.95251
35 1 9.43396 6.28864 9.09278e-16 -8.94959
36 1 11.0062 7.86106 1.57024 -8.95088
37 1 12.5794 6.28864 1.22708e-15 -8.94972
38 1 14.1535 7.8603 1.56925 -8.95217
39 1 15.7256 6.28821 1.30562e-15 -8.95021
40 1 17.2982 7.86134 1.57146 -8.94906
41 1 18.8698 6.28926 1.67338e-15 -8.94947
42 1 20.4419 7.86192 1.57213 -8.94948
43 1 22.014 9.43448 1.65294e-15 -8.94958
44 1 3.14442 9.43452 1.70022e-15 -8.94953
45 1 6.28929 9.43483 1.77763e-15 -8.94924
46 1 9.43408 9.43472 1.57555e-15 -8.94856
47 1 12.5795 9.43434 1.26007e-16 -8.95326
48 1 15.7259 9.43395 1.0127e-15 -8.94912
49 1 18.8699 9.43438 1.48631e-15 -8.94947
50 1 -0.000206677 4.28911e-16 3.14468 -8.9494
51 1 1.57177 1.57201 4.71675 -8.94916
52 1 3.14437 1.22334e-15 3.14432 -8.94962
53 1 4.71646 1.57139 4.71625 -8.95005
54 1 6.28953 1.63096e-15 3.14434 -8.94951
55 1 7.862 1.57145 4.71637 -8.94946
56 1 9.43455 1.45178e-15 3.1443 -8.94953
57 1 11.0072 1.57145 4.71638 -8.94948
58 1 12.5796 1.61035e-15 3.14436 -8.94947
59 1 14.1523 1.5714 4.71671 -8.95043
60 1 15.7246 1.28186e-15 3.1445 -8.94994
61 1 17.2971 1.5719 4.71697 -8.94952
62 1 18.8692 9.41122e-16 3.1447 -8.94954
63 1 20.4414 1.57221 4.71713 -8.94957
64 1 22.0136 3.14452 3.14449 -8.94959
65 1 1.57108 4.7165 4.71626 -8.9499
66 1 3.14358 3.14371 3.14353 -8.94826
67 1 4.71297 4.71321 4.7125 -8.94476
68 1 6.28919 3.14374 3.14372 -8.94945
69 1 7.861 4.71399 4.71426 -8.94822
70 1 9.43445 3.14362 3.14378 -8.94938
71 1 11.0072 4.71399 4.71449 -8.94764
72 1 12.5796 3.14356 3.14391 -8.94911
73 1 14.1547 4.71234 4.71397 -8.94989
74 1 15.7253 3.14321 3.14378 -8.94949
75 1 17.2985 4.71545 4.71614 -8.94884
76 1 18.8696 3.14425 3.14452 -8.94942
77 1 20.4417 4.71678 4.71691 -8.9498
78 1 22.014 6.28952 3.14448 -8.94972
79 1 1.57181 7.86221 4.71664 -8.94958
80 1 3.14403 6.28961 3.14396 -8.95033
81 1 4.71549 7.86274 4.71566 -8.95132
82 1 6.28738 6.28774 3.14066 -8.95139
83 1 7.8577 7.85789 4.7079 -8.95777
84 1 9.43368 6.28735 3.14166 -8.94795
85 1 11.0066 7.85759 4.70778 -8.95265
86 1 12.5801 6.28712 3.14125 -8.94967
87 1 14.165 7.84961 4.70264 -8.93281
88 1 15.7285 6.28539 3.14053 -8.94506
89 1 17.3013 7.85988 4.71478 -8.95025
90 1 18.8706 6.28877 3.14397 -8.94959
91 1 20.4425 7.86173 4.71669 -8.94995
92 1 0.000101431 9.43444 3.14436 -8.94954
93 1 3.14415 9.43459 3.14402 -8.949
94 1 6.28951 9.43567 3.14446 -8.94932
95 1 9.43476 9.43486 3.14432 -8.94869
96 1 12.5821 9.43316 3.13555 -8.96018
97 1 15.7282 9.43308 3.14086 -8.94746
98 1 18.8707 9.4342 3.14388 -8.94929
99 1 22.0136 1.12295e-15 6.28953 -8.94957
100 1 1.57164 1.57192 7.86179 -8.94947
101 1 3.14396 1.4287e-15 6.28901 -8.94937
102 1 4.71577 1.57062 7.86105 -8.94973
103 1 6.28931 1.37859e-15 6.28895 -8.95044
104 1 7.86203 1.57037 7.86148 -8.95108
105 1 9.43476 1.8271e-15 6.28894 -8.95004
106 1 11.0073 1.57113 7.86163 -8.94954
107 1 12.5797 1.8623e-15 6.28928 -8.95016
108 1 14.1525 1.57124 7.86187 -8.95042
109 1 15.7247 1.56373e-15 6.28944 -8.94988
110 1 17.2971 1.57203 7.86212 -8.9496
111 1 18.8692 8.39334e-16 6.28964 -8.94964
112 1 20.4414 1.57219 7.86203 -8.94954
113 1 -0.000619749 3.1443 6.28929 -8.94944
114 1 1.56999 4.71583 7.86106 -8.94935
115 1 3.14276 3.14295 6.28804 -8.94778
116 1 4.71038 4.7106 7.85706 -8.94181
117 1 6.28804 3.14104 6.28755 -8.95158
118 1 7.85916 4.70768 7.85923 -8.95821
119 1 9.43469 3.14168 6.28798 -8.94995
120 1 11.0067 4.71268 7.86023 -8.95106
121 1 12.5799 3.14189 6.28875 -8.95184
122 1 14.1551 4.71192 7.86004 -8.94854
123 1 15.7255 3.14286 6.28896 -8.94926
124 1 17.298 4.71597 7.86204 -8.94975
125 1 18.8694 3.1443 6.28955 -8.94968
126 1 20.4414 4.71666 7.86192 -8.94971
127 1 22.0132 6.2893 6.28919 -8.95033
128 1 1.5698 7.86205 7.86152 -8.95171
129 1 3.14062 6.28802 6.28729 -8.95152
130 1 4.70641 7.85948 7.85888 -8.95982
131 1 6.27588 6.27662 6.27509 -8.93159
132 1 7.81832 7.8232 7.82347 -8.86003
133 1 9.43306 6.28061 6.28304 -8.94727
134 1 11.0224 7.84684 7.83145 -8.8975
135 1 12.5862 6.27774 6.28046 -8.95217
136 1 14.1675 7.84951 7.85163 -8.93476
137 1 15.73 6.28456 6.28614 -8.94622
138 1 17.3011 7.86044 7.86168 -8.95205
139 1 18.8707 6.2887 6.28922 -8.95011
140 1 20.442 7.86179 7.86199 -8.95048
141 1 22.0139 9.43452 6.28911 -8.94978
142 1 3.14327 9.43538 6.28861 -8.94906
143 1 6.28766 9.43853 6.28955 -8.95068
144 1 9.42583 9.41706 6.29028 -8.91602
145 1 12.6197 9.40258 6.24645 -8.88105
146 1 15.7365 9.431 6.28354 -8.95463
147 1 18.8723 9.43404 6.28882 -8.95111
148 1 -0.000319898 1.62896e-15 9.43447 -8.94957
149 1 3.14385 1.54377e-15 9.43428 -8.94937
150 1 6.28885 1.53182e-15 9.43412 -8.9512
151 1 9.43499 1.60114e-15 9.43417 -8.94905
152 1 12.5798 1.7098e-15 9.43449 -8.95021
153 1 15.7247 1.82334e-15 9.43456 -8.94951
154 1 18.8693 1.20537e-15 9.4345 -8.94956
155 1 22.0132 3.14423 9.43439 -8.94945
156 1 3.14262 3.14281 9.43391 -8.94909
157 1 6.28636 3.13831 9.43305 -8.95136
158 1 9.43488 3.1418 9.43368 -8.94673
159 1 12.5801 3.14217 9.43424 -8.95174
160 1 15.7251 3.14368 9.43472 -8.94944
161 1 18.8694 3.14426 9.43451 -8.94944
162 1 22.0123 6.28895 9.43425 -8.95044
163 1 3.13729 6.28608 9.43267 -8.95018
164 1 6.26742 6.26822 9.4222 -8.91933
165 1 9.4302 6.2864 9.43207 -9.00783
166 1 12.5856 6.27916 9.42678 -8.94675
167 1 15.7274 6.28722 9.43474 -8.94872
168 1 18.8701 6.28877 9.43464 -8.94961
169 1 22.0131 9.43476 9.43435 -8.9496
170 1 3.14139 9.43586 9.43399 -8.95023
171 1 6.2815 9.43014 9.43505 -8.96845
172 1 9.35795 9.16448 9.44486 -8.05758
173 1 12.596 9.40782 9.38475 -8.82755
174 1 15.7287 9.43408 9.43273 -8.95278
175 1 18.8706 9.43438 9.43475 -8.94979
176 1 1.57161 1.5719 11.007 -8.94947
177 1 4.71565 1.57054 11.007 -8.94924
178 1 7.86197 1.56951 11.007 -8.95321
179 1 11.0072 1.57132 11.007 -8.94949
180 1 14.1524 1.57173 11.007 -8.94909
181 1 17.2971 1.572 11.007 -8.94952
182 1 20.4414 1.57216 11.007 -8.94957
183 1 1.5699 4.71577 11.007 -8.94908
184 1 4.71065 4.7108 11.007 -8.94572
185 1 7.85695 4.70161 11.007 -8.96653
186 1 11.0067 4.7135 11.007 -8.95454
187 1 14.153 4.71564 11.007 -8.94741
188 1 17.2978 4.71601 11.007 -8.94866
189 1 20.4413 4.71655 11.007 -8.94953
190 1 1.56797 7.86175 11.007 -8.95397
191 1 4.6973 7.85589 11.007 -8.96611
192 1 7.77754 7.79067 11.007 -8.74142
193 1 11.0532 7.84331 11.007 -8.83762
194 1 14.1583 7.86244 11.007 -8.96616
195 1 17.2989 7.86132 11.007 -8.95034
196 1 20.4414 7.86174 11.007 -8.95031
197 1 -0.000319898 1.85699e-15 12.5794 -8.94957
198 1 1.57164 1.57192 14.1521 -8.94947
199 1 3.14385 1.68391e-15 12.5796 -8.94937
200 1 4.71577 1.57062 14.1529 -8.94973
201 1 6.28885 1.88867e-15 12.5798 -8.9512
202 1 7.86203 1.57037 14.1524 -8.95108
203 1 9.43499 1.57983e-15 12.5797 -8.94905
204 1 11.0073 1.57113 14.1523 -8.94954
205 1 12.5798 1.80906e-15 12.5794 -8.95021
206 1 14.1525 1.57124 14.152 -8.95042
207 1 15.7247 1.62087e-15 12.5793 -8.94951
208 1 17.2971 1.57203 14.1518 -8.9496
209 1 18.8693 1.81086e-15 12.5794 -8.94956
210 1 20.4414 1.57219 14.1519 -8.94954
211 1 22.0132 3.14423 12.5795 -8.94945
212 1 1.56999 4.71583 14.1528 -8.94935
213 1 3.14262 3.14281 12.58 -8.94909
214 1 4.71038 4.7106 14.1568 -8.94181
215 1 6.28636 3.13831 12.5809 -8.95136
216 1 7.85916 4.70768 14.1547 -8.95821
217 1 9.43488 3.1418 12.5802 -8.94673
218 1 11.0067 4.71268 14.1537 -8.95106
219 1 12.5801 3.14217 12.5797 -8.95174
220 1 14.1551 4.71192 14.1539 -8.94854
221 1 15.7251 3.14368 12.5792 -8.94944
222 1 17.298 4.71597 14.1519 -8.94975
223 1 18.8694 3.14426 12.5794 -8.94944
224 1 20.4414 4.71666 14.152 -8.94971
225 1 22.0123 6.28895 12.5796 -8.95044
226 1 1.5698 7.86205 14.1524 -8.95171
227 1 3.13729 6.28608 12.5812 -8.95018
228 1 4.70641 7.85948 14.155 -8.95982
229 1 6.26742 6.26822 12.5917 -8.91933
230 1 7.81832 7.8232 14.1904 -8.86003
231 1 9.4302 6.2864 12.5818 -9.00783
232 1 11.0224 7.84684 14.1825 -8.8975
233 1 12.5856 6.27916 12.5871 -8.94675
234 1 14.1675 7.84951 14.1623 -8.93476
235 1 15.7274 6.28722 12.5792 -8.94872
236 1 17.3011 7.86044 14.1522 -8.95205
237 1 18.8701 6.28877 12.5793 -8.94961
238 1 20.442 7.86179 14.1519 -8.95048
239 1 22.0131 9.43476 12.5795 -8.9496
240 1 3.14139 9.43586 12.5799 -8.95023
241 1 6.2815 9.43014 12.5788 -8.96845
242 1 9.35795 9.16448 12.569 -8.05758
243 1 12.596 9.40782 12.6291 -8.82755
244 1 15.7287 9.43408 12.5812 -8.95278
245 1 18.8706 9.43438 12.5792 -8.94979
246 1 22.0136 1.62513e-15 15.7244 -8.94957
247 1 1.57177 1.57201 17.2971 -8.94916
248 1 3.14396 1.27611e-15 15.7249 -8.94937
249 1 4.71646 1.57139 17.2976 -8.95005
250 1 6.28931 1.17736e-15 15.725 -8.95044
251 1 7.862 1.57145 17.2975 -8.94946
252 1 9.43476 1.58523e-15 15.725 -8.95004
253 1 11.0072 1.57145 17.2975 -8.94948
254 1 12.5797 2.02211e-15 15.7246 -8.95016
255 1 14.1523 1.5714 17.2972 -8.95043
256 1 15.7247 1.47895e-15 15.7245 -8.94988
257 1 17.2971 1.5719 17.2969 -8.94952
258 1 18.8692 8.15358e-16 15.7243 -8.94964
259 1 20.4414 1.57221 17.2968 -8.94957
260 1 -0.000619749 3.1443 15.7246 -8.94944
261 1 1.57108 4.7165 17.2976 -8.9499
262 1 3.14276 3.14295 15.7259 -8.94778
263 1 4.71297 4.71321 17.3014 -8.94476
264 1 6.28804 3.14104 15.7264 -8.95158
265 1 7.861 4.71399 17.2996 -8.94822
266 1 9.43469 3.14168 15.7259 -8.94995
267 1 11.0072 4.71399 17.2994 -8.94764
268 1 12.5799 3.14189 15.7251 -8.95184
269 1 14.1547 4.71234 17.2999 -8.94989
270 1 15.7255 3.14286 15.7249 -8.94926
271 1 17.2985 4.71545 17.2978 -8.94884
272 1 18.8694 3.1443 15.7244 -8.94968
273 1 20.4417 4.71678 17.297 -8.9498
274 1 22.0132 6.2893 15.7247 -8.95033
275 1 1.57181 7.86221 17.2973 -8.94958
276 1 3.14062 6.28802 15.7266 -8.95152
277 1 4.71549 7.86274 17.2982 -8.95132
278 1 6.27588 6.27662 15.7388 -8.93159
279 1 7.8577 7.85789 17.306 -8.95777
280 1 9.43306 6.28061 15.7309 -8.94727
281 1 11.0066 7.85759 17.3061 -8.95265
282 1 12.5862 6.27774 15.7334 -8.95217
283 1 14.165 7.84961 17.3113 -8.93281
284 1 15.73 6.28456 15.7278 -8.94622
285 1 17.3013 7.85988 17.2991 -8.95025
286 1 18.8707 6.2887 15.7247 -8.95011
287 1 20.4425 7.86173 17.2972 -8.94995
288 1 22.0139 9.43452 15.7248 -8.94978
289 1 3.14327 9.43538 15.7253 -8.94906
290 1 6.28766 9.43853 15.7244 -8.95068
291 1 9.42583 9.41706 15.7236 -8.91602
292 1 12.6197 9.40258 15.7675 -8.88105
293 1 15.7365 9.431 15.7304 -8.95463
294 1 18.8723 9.43404 15.7251 -8.95111
295 1 -0.000206677 1.35104e-15 18.8692 -8.9494
296 1 1.57203 1.57214 20.4418 -8.94917
297 1 3.14437 1.26077e-15 18.8696 -8.94962
298 1 4.71703 1.57211 20.4418 -8.94962
299 1 6.28953 1.36588e-15 18.8696 -8.94951
300 1 7.86201 1.57206 20.4418 -8.9495
301 1 9.43455 2.04427e-15 18.8696 -8.94953
302 1 11.007 1.57202 20.4418 -8.94953
303 1 12.5796 1.74941e-15 18.8695 -8.94947
304 1 14.1519 1.57204 20.4417 -8.94949
305 1 15.7246 1.65552e-15 18.8694 -8.94994
306 1 17.297 1.57199 20.4418 -8.94955
307 1 18.8692 5.87155e-16 18.8692 -8.94954
308 1 20.4416 1.57224 20.4416 -8.94942
309 1 22.0136 3.14452 18.8694 -8.94959
310 1 1.57218 4.71713 20.4418 -8.94988
311 1 3.14358 3.14371 18.8704 -8.94826
312 1 4.71626 4.71637 20.4427 -8.94995
313 1 6.28919 3.14374 18.8702 -8.94945
314 1 7.86166 4.71626 20.4424 -8.94907
315 1 9.43445 3.14362 18.8701 -8.94938
316 1 11.0069 4.71609 20.4424 -8.94931
317 1 12.5796 3.14356 18.87 -8.94911
318 1 14.1523 4.716 20.4424 -8.94977
319 1 15.7253 3.14321 18.8701 -8.94949
320 1 17.2981 4.71582 20.4424 -8.94825
321 1 18.8696 3.14425 18.8694 -8.94942
322 1 20.4419 4.71693 20.4417 -8.94956
323 1 22.014 6.28952 18.8694 -8.94972
324 1 1.57221 7.86207 20.4417 -8.94941
325 1 3.14403 6.28961 18.8699 -8.95033
326 1 4.71689 7.86245 20.4419 -8.94966
327 1 6.28738 6.28774 18.8732 -8.95139
328 1 7.86169 7.86205 20.443 -8.95251
329 1 9.43368 6.28735 18.8722 -8.94795
330 1 11.0062 7.86106 20.4437 -8.95088
331 1 12.5801 6.28712 18.8726 -8.94967
332 1 14.1535 7.8603 20.4446 -8.95217
333 1 15.7285 6.28539 18.8734 -8.94506
334 1 17.2982 7.86134 20.4424 -8.94906
335 1 18.8706 6.28877 18.8699 -8.94959
336 1 20.4419 7.86192 20.4418 -8.94948
337 1 0.000101431 9.43444 18.8695 -8.94954
338 1 3.14415 9.43459 18.8699 -8.949
339 1 6.28951 9.43567 18.8694 -8.94932
340 1 9.43476 9.43486 18.8696 -8.94869
341 1 12.5821 9.43316 18.8784 -8.96018
342 1 15.7282 9.43308 18.873 -8.94746
343 1 18.8707 9.4342 18.87 -8.94929
344 1 1.57217 11.007 1.57211 -8.94959
345 1 4.71665 11.007 1.57187 -8.94972
346 1 7.86184 11.007 1.57276 -8.9475
347 1 11.0064 11.007 1.57151 -8.94653
348 1 14.1543 11.007 1.56909 -8.9499
349 1 17.2983 11.007 1.57145 -8.94933
350 1 20.442 11.007 1.57211 -8.94953
351 1 22.014 12.5794 1.44071e-15 -8.94958
352 1 1.57221 14.1518 1.57216 -8.94941
353 1 3.14442 12.5794 1.80713e-15 -8.94953
354 1 4.71689 14.1514 1.57199 -8.94966
355 1 6.28929 12.5791 1.35381e-15 -8.94924
356 1 7.86169 14.1518 1.57088 -8.95251
357 1 9.43408 12.5792 1.33956e-15 -8.94856
358 1 11.0062 14.1528 1.57024 -8.95088
359 1 12.5795 12.5796 7.84697e-17 -8.95326
360 1 14.1535 14.1536 1.56925 -8.95217
361 1 15.7259 12.58 1.1862e-15 -8.94912
362 1 17.2982 14.1526 1.57146 -8.94906
363 1 18.8699 12.5795 1.4082e-15 -8.94947
364 1 20.4419 14.152 1.57213 -8.94948
365 1 22.014 15.7243 2.15079e-15 -8.94951
366 1 1.57218 17.2968 1.57213 -8.94988
367 1 3.14457 15.7242 1.82933e-15 -8.94981
368 1 4.71626 17.2975 1.57122 -8.94995
369 1 6.28906 15.7246 1.77272e-15 -8.95127
370 1 7.86166 17.2976 1.57146 -8.94907
371 1 9.43396 15.7253 7.70693e-16 -8.94959
372 1 11.0069 17.2978 1.5715 -8.94931
373 1 12.5794 15.7253 1.04225e-15 -8.94972
374 1 14.1523 17.2979 1.57148 -8.94977
375 1 15.7256 15.7257 1.46179e-15 -8.95021
376 1 17.2981 17.2981 1.57151 -8.94825
377 1 18.8698 15.7246 1.61591e-15 -8.94947
378 1 20.4419 17.297 1.57218 -8.94956
379 1 22.0139 18.8692 1.45293e-15 -8.94963
380 1 1.57203 20.4418 1.57214 -8.94917
381 1 3.14431 18.8696 1.69788e-15 -8.94948
382 1 4.71703 20.4418 1.57211 -8.94962
383 1 6.28944 18.8696 9.03434e-16 -8.94939
384 1 7.86201 20.4418 1.57209 -8.9495
385 1 9.43443 18.8697 4.64649e-16 -8.9495
386 1 11.007 20.4419 1.57209 -8.94953
387 1 12.5795 18.8697 1.18044e-15 -8.94941
388 1 14.1519 20.4419 1.57215 -8.94949
389 1 15.7246 18.8697 1.30964e-15 -8.94975
390 1 17.297 20.4419 1.57214 -8.94955
391 1 18.8696 18.8696 1.43394e-15 -8.94891
392 1 20.4416 20.4417 1.57233 -8.94942
393 1 1.57177 11.007 4.71633 -8.94946
394 1 4.71589 11.007 4.71547 -8.94638
395 1 7.86556 11.007 4.72225 -8.94413
396 1 11.0118 11.007 4.7184 -8.99374
397 1 14.1633 11.007 4.70483 -8.94183
398 1 17.3014 11.007 4.71455 -8.94909
399 1 20.4426 11.007 4.71654 -8.94982
400 1 0.000101431 12.5795 3.14436 -8.94954
401 1 1.57181 14.1517 4.71664 -8.94958
402 1 3.14415 12.5793 3.14402 -8.949
403 1 4.71549 14.1512 4.71566 -8.95132
404 1 6.28951 12.5782 3.14446 -8.94932
405 1 7.8577 14.156 4.7079 -8.95777
406 1 9.43476 12.579 3.14432 -8.94869
407 1 11.0066 14.1563 4.70778 -8.95265
408 1 12.5821 12.5807 3.13555 -8.96018
409 1 14.165 14.1643 4.70264 -8.93281
410 1 15.7282 12.5808 3.14086 -8.94746
411 1 17.3013 14.154 4.71478 -8.95025
412 1 18.8707 12.5797 3.14388 -8.94929
413 1 20.4425 14.1522 4.71669 -8.94995
414 1 22.014 15.7244 3.14448 -8.94972
415 1 1.57108 17.2974 4.71626 -8.9499
416 1 3.14403 15.7243 3.14396 -8.95033
417 1 4.71297 17.3007 4.7125 -8.94476
418 1 6.28738 15.7262 3.14066 -8.95139
419 1 7.861 17.2999 4.71426 -8.94822
420 1 9.43368 15.7266 3.14166 -8.94795
421 1 11.0072 17.2999 4.71449 -8.94764
422 1 12.5801 15.7268 3.14125 -8.94967
423 1 14.1547 17.3016 4.71397 -8.94989
424 1 15.7285 15.7285 3.14053 -8.94506
425 1 17.2985 17.2985 4.71614 -8.94884
426 1 18.8706 15.7251 3.14397 -8.94959
427 1 20.4417 17.2971 4.71691 -8.9498
428 1 22.0136 18.8694 3.14449 -8.94959
429 1 1.57177 20.4419 4.71675 -8.94916
430 1 3.14358 18.8702 3.14353 -8.94826
431 1 4.71646 20.4425 4.71625 -8.95005
432 1 6.28919 18.8702 3.14372 -8.94945
433 1 7.862 20.4424 4.71637 -8.94946
434 1 9.43445 18.8703 3.14378 -8.94938
435 1 11.0072 20.4424 4.71638 -8.94948
436 1 12.5796 18.8703 3.14391 -8.94911
437 1 14.1523 20.4425 4.71671 -8.95043
438 1 15.7253 18.8707 3.14378 -8.94949
439 1 17.2971 20.442 4.71697 -8.94952
440 1 18.8696 18.8696 3.14452 -8.94942
441 1 20.4414 20.4417 4.71713 -8.94957
442 1 1.5715 11.007 7.86118 -8.94761
443 1 4.71875 11.007 7.86184 -8.93845
444 1 7.88554 11.007 7.88129 -8.84652
445 1 11.103 11.007 7.67009 -8.22022
446 1 14.1719 11.007 7.84626 -8.9651
447 1 17.3027 11.007 7.86091 -8.95191
448 1 20.4426 11.007 7.86185 -8.95006
449 1 22.0139 12.5794 6.28911 -8.94978
450 1 1.5698 14.1518 7.86152 -8.95171
451 1 3.14327 12.5785 6.28861 -8.94906
452 1 4.70641 14.1544 7.85888 -8.95982
453 1 6.28766 12.5754 6.28955 -8.95068
454 1 7.81832 14.1907 7.82347 -8.86003
455 1 9.42583 12.5968 6.29028 -8.91602
456 1 11.0224 14.1671 7.83145 -8.8975
457 1 12.6197 12.6113 6.24645 -8.88105
458 1 14.1675 14.1644 7.85163 -8.93476
459 1 15.7365 12.5829 6.28354 -8.95463
460 1 17.3011 14.1535 7.86168 -8.95205
461 1 18.8723 12.5799 6.28882 -8.95111
462 1 20.442 14.1521 7.86199 -8.95048
463 1 22.0132 15.7246 6.28919 -8.95033
464 1 1.56999 17.2981 7.86106 -8.94935
465 1 3.14062 15.7259 6.28729 -8.95152
466 1 4.71038 17.3033 7.85706 -8.94181
467 1 6.27588 15.7373 6.27509 -8.93159
468 1 7.85916 17.3062 7.85923 -8.95821
469 1 9.43306 15.7333 6.28304 -8.94727
470 1 11.0067 17.3012 7.86023 -8.95106
471 1 12.5862 15.7362 6.28046 -8.95217
472 1 14.1551 17.302 7.86004 -8.94854
473 1 15.73 15.7293 6.28614 -8.94622
474 1 17.298 17.2979 7.86204 -8.94975
475 1 18.8707 15.7252 6.28922 -8.95011
476 1 20.4414 17.2972 7.86192 -8.94971
477 1 -0.000619749 18.8696 6.28929 -8.94944
478 1 1.57164 20.442 7.86179 -8.94947
479 1 3.14276 18.871 6.28804 -8.94778
480 1 4.71577 20.4433 7.86105 -8.94973
481 1 6.28804 18.8729 6.28755 -8.95158
482 1 7.86203 20.4435 7.86148 -8.95108
483 1 9.43469 18.8722 6.28798 -8.94995
484 1 11.0073 20.4428 7.86163 -8.94954
485 1 12.5799 18.872 6.28875 -8.95184
486 1 14.1525 20.4427 7.86187 -8.95042
487 1 15.7255 18.871 6.28896 -8.94926
488 1 17.2971 20.4419 7.86212 -8.9496
489 1 18.8694 18.8696 6.28955 -8.94968
490 1 20.4414 20.4417 7.86203 -8.94954
491 1 22.0131 12.5791 9.43435 -8.9496
492 1 3.14139 12.578 9.43399 -8.95023
493 1 6.2815 12.5838 9.43505 -8.96845
494 1 9.35795 12.8494 9.44486 -8.05758
495 1 12.596 12.6061 9.38475 -8.82755
496 1 15.7287 12.5798 9.43273 -8.95278
497 1 18.8706 12.5795 9.43475 -8.94979
498 1 22.0123 15.7249 9.43425 -8.95044
499 1 3.13729 15.7278 9.43267 -8.95018
500 1 6.26742 15.7457 9.4222 -8.91933
501 1 9.4302 15.7275 9.43207 -9.00783
502 1 12.5856 15.7347 9.42678 -8.94675
503 1 15.7274 15.7267 9.43474 -8.94872
504 1 18.8701 15.7251 9.43464 -8.94961
505 1 22.0132 18.8697 9.43439 -8.94945
506 1 3.14262 18.8711 9.43391 -8.94909
507 1 6.28636 18.8756 9.43305 -8.95136
508 1 9.43488 18.8721 9.43368 -8.94673
509 1 12.5801 18.8717 9.43424 -8.95174
510 1 15.7251 18.8702 9.43472 -8.94944
511 1 18.8694 18.8696 9.43451 -8.94944
688 3 10.0973 11.007 9.39475 2.36995
512 1 1.57152 11.007 11.007 -8.94582
513 1 4.72206 11.007 11.007 -8.93465
514 1 7.89619 11.007 11.007 -8.7309
515 1 11.2806 11.007 11.007 -7.3804
516 1 14.1423 11.007 11.007 -9.01588
517 1 17.2966 11.007 11.007 -8.94564
518 1 20.4416 11.007 11.007 -8.94824
519 1 1.56797 14.1522 11.007 -8.95397
520 1 4.6973 14.158 11.007 -8.96611
521 1 7.77754 14.2232 11.007 -8.74142
522 1 11.0532 14.1706 11.007 -8.83762
523 1 14.1583 14.1515 11.007 -8.96616
524 1 17.2989 14.1526 11.007 -8.95034
525 1 20.4414 14.1522 11.007 -8.95031
526 1 1.5699 17.2981 11.007 -8.94908
527 1 4.71065 17.3031 11.007 -8.94572
528 1 7.85695 17.3123 11.007 -8.96653
529 1 11.0067 17.3004 11.007 -8.95454
530 1 14.153 17.2983 11.007 -8.94741
531 1 17.2978 17.2979 11.007 -8.94866
532 1 20.4413 17.2974 11.007 -8.94953
533 1 1.57161 20.442 11.007 -8.94947
534 1 4.71565 20.4434 11.007 -8.94924
535 1 7.86197 20.4444 11.007 -8.95321
536 1 11.0072 20.4426 11.007 -8.94949
537 1 14.1524 20.4422 11.007 -8.94909
538 1 17.2971 20.4419 11.007 -8.94952
539 1 20.4414 20.4417 11.007 -8.94957
540 1 1.5715 11.007 14.1527 -8.94761
541 1 4.71875 11.007 14.1521 -8.93845
542 1 7.88554 11.007 14.1326 -8.84652
543 1 11.103 11.007 14.3438 -8.22022
544 1 14.1719 11.007 14.1676 -8.9651
545 1 17.3027 11.007 14.153 -8.95191
546 1 20.4426 11.007 14.1521 -8.95006
547 1 22.0131 12.5791 12.5795 -8.9496
548 1 1.5698 14.1518 14.1524 -8.95171
549 1 3.14139 12.578 12.5799 -8.95023
550 1 4.70641 14.1544 14.155 -8.95982
551 1 6.2815 12.5838 12.5788 -8.96845
552 1 7.81832 14.1907 14.1904 -8.86003
553 1 9.35795 12.8494 12.569 -8.05758
554 1 11.0224 14.1671 14.1825 -8.8975
555 1 12.596 12.6061 12.6291 -8.82755
556 1 14.1675 14.1644 14.1623 -8.93476
557 1 15.7287 12.5798 12.5812 -8.95278
558 1 17.3011 14.1535 14.1522 -8.95205
559 1 18.8706 12.5795 12.5792 -8.94979
560 1 20.442 14.1521 14.1519 -8.95048
561 1 22.0123 15.7249 12.5796 -8.95044
562 1 1.56999 17.2981 14.1528 -8.94935
563 1 3.13729 15.7278 12.5812 -8.95018
564 1 4.71038 17.3033 14.1568 -8.94181
565 1 6.26742 15.7457 12.5917 -8.91933
566 1 7.85916 17.3062 14.1547 -8.95821
567 1 9.4302 15.7275 12.5818 -9.00783
568 1 11.0067 17.3012 14.1537 -8.95106
569 1 12.5856 15.7347 12.5871 -8.94675
570 1 14.1551 17.302 14.1539 -8.94854
571 1 15.7274 15.7267 12.5792 -8.94872
572 1 17.298 17.2979 14.1519 -8.94975
573 1 18.8701 15.7251 12.5793 -8.94961
574 1 20.4414 17.2972 14.152 -8.94971
575 1 22.0132 18.8697 12.5795 -8.94945
576 1 1.57164 20.442 14.1521 -8.94947
577 1 3.14262 18.8711 12.58 -8.94909
578 1 4.71577 20.4433 14.1529 -8.94973
579 1 6.28636 18.8756 12.5809 -8.95136
580 1 7.86203 20.4435 14.1524 -8.95108
581 1 9.43488 18.8721 12.5802 -8.94673
582 1 11.0073 20.4428 14.1523 -8.94954
583 1 12.5801 18.8717 12.5797 -8.95174
584 1 14.1525 20.4427 14.152 -8.95042
585 1 15.7251 18.8702 12.5792 -8.94944
586 1 17.2971 20.4419 14.1518 -8.9496
587 1 18.8694 18.8696 12.5794 -8.94944
588 1 20.4414 20.4417 14.1519 -8.94954
589 1 1.57177 11.007 17.2976 -8.94946
590 1 4.71589 11.007 17.2984 -8.94638
591 1 7.86556 11.007 17.2917 -8.94413
592 1 11.0118 11.007 17.2955 -8.99374
593 1 14.1633 11.007 17.3091 -8.94183
594 1 17.3014 11.007 17.2994 -8.94909
595 1 20.4426 11.007 17.2974 -8.94982
596 1 22.0139 12.5794 15.7248 -8.94978
597 1 1.57181 14.1517 17.2973 -8.94958
598 1 3.14327 12.5785 15.7253 -8.94906
599 1 4.71549 14.1512 17.2982 -8.95132
600 1 6.28766 12.5754 15.7244 -8.95068
601 1 7.8577 14.156 17.306 -8.95777
602 1 9.42583 12.5968 15.7236 -8.91602
603 1 11.0066 14.1563 17.3061 -8.95265
604 1 12.6197 12.6113 15.7675 -8.88105
605 1 14.165 14.1643 17.3113 -8.93281
606 1 15.7365 12.5829 15.7304 -8.95463
607 1 17.3013 14.154 17.2991 -8.95025
608 1 18.8723 12.5799 15.7251 -8.95111
609 1 20.4425 14.1522 17.2972 -8.94995
610 1 22.0132 15.7246 15.7247 -8.95033
611 1 1.57108 17.2974 17.2976 -8.9499
612 1 3.14062 15.7259 15.7266 -8.95152
613 1 4.71297 17.3007 17.3014 -8.94476
614 1 6.27588 15.7373 15.7388 -8.93159
615 1 7.861 17.2999 17.2996 -8.94822
616 1 9.43306 15.7333 15.7309 -8.94727
617 1 11.0072 17.2999 17.2994 -8.94764
618 1 12.5862 15.7362 15.7334 -8.95217
619 1 14.1547 17.3016 17.2999 -8.94989
620 1 15.73 15.7293 15.7278 -8.94622
621 1 17.2985 17.2985 17.2978 -8.94884
622 1 18.8707 15.7252 15.7247 -8.95011
623 1 20.4417 17.2971 17.297 -8.9498
624 1 -0.000619749 18.8696 15.7246 -8.94944
625 1 1.57177 20.4419 17.2971 -8.94916
626 1 3.14276 18.871 15.7259 -8.94778
627 1 4.71646 20.4425 17.2976 -8.95005
628 1 6.28804 18.8729 15.7264 -8.95158
629 1 7.862 20.4424 17.2975 -8.94946
630 1 9.43469 18.8722 15.7259 -8.94995
631 1 11.0072 20.4424 17.2975 -8.94948
632 1 12.5799 18.872 15.7251 -8.95184
633 1 14.1523 20.4425 17.2972 -8.95043
634 1 15.7255 18.871 15.7249 -8.94926
635 1 17.2971 20.442 17.2969 -8.94952
636 1 18.8694 18.8696 15.7244 -8.94968
637 1 20.4414 20.4417 17.2968 -8.94957
638 1 1.57217 11.007 20.4418 -8.94959
639 1 4.71665 11.007 20.442 -8.94972
640 1 7.86184 11.007 20.4411 -8.9475
641 1 11.0064 11.007 20.4424 -8.94653
642 1 14.1543 11.007 20.4448 -8.9499
643 1 17.2983 11.007 20.4425 -8.94933
644 1 20.442 11.007 20.4418 -8.94953
645 1 0.000101431 12.5795 18.8695 -8.94954
646 1 1.57221 14.1518 20.4417 -8.94941
647 1 3.14415 12.5793 18.8699 -8.949
648 1 4.71689 14.1514 20.4419 -8.94966
649 1 6.28951 12.5782 18.8694 -8.94932
650 1 7.86169 14.1518 20.443 -8.95251
651 1 9.43476 12.579 18.8696 -8.94869
652 1 11.0062 14.1528 20.4437 -8.95088
653 1 12.5821 12.5807 18.8784 -8.96018
654 1 14.1535 14.1536 20.4446 -8.95217
655 1 15.7282 12.5808 18.873 -8.94746
656 1 17.2982 14.1526 20.4424 -8.94906
657 1 18.8707 12.5797 18.87 -8.94929
658 1 20.4419 14.152 20.4418 -8.94948
659 1 22.014 15.7244 18.8694 -8.94972
660 1 1.57218 17.2968 20.4418 -8.94988
661 1 3.14403 15.7243 18.8699 -8.95033
662 1 4.71626 17.2975 20.4427 -8.94995
663 1 6.28738 15.7262 18.8732 -8.95139
664 1 7.86166 17.2976 20.4424 -8.94907
665 1 9.43368 15.7266 18.8722 -8.94795
666 1 11.0069 17.2978 20.4424 -8.94931
667 1 12.5801 15.7268 18.8726 -8.94967
668 1 14.1523 17.2979 20.4424 -8.94977
669 1 15.7285 15.7285 18.8734 -8.94506
670 1 17.2981 17.2981 20.4424 -8.94825
671 1 18.8706 15.7251 18.8699 -8.94959
672 1 20.4419 17.297 20.4417 -8.94956
673 1 22.0136 18.8694 18.8694 -8.94959
674 1 1.57203 20.4418 20.4418 -8.94917
675 1 3.14358 18.8702 18.8704 -8.94826
676 1 4.71703 20.4418 20.4418 -8.94962
677 1 6.28919 18.8702 18.8702 -8.94945
678 1 7.86201 20.4418 20.4418 -8.9495
679 1 9.43445 18.8703 18.8701 -8.94938
680 1 11.007 20.4419 20.4418 -8.94953
681 1 12.5796 18.8703 18.87 -8.94911
682 1 14.1519 20.4419 20.4417 -8.94949
683 1 15.7253 18.8707 18.8701 -8.94949
684 1 17.297 20.4419 20.4418 -8.94955
685 1 18.8696 18.8696 18.8694 -8.94942
686 1 20.4416 20.4417 20.4416 -8.94942
687 3 10.0973 11.007 12.6192 2.36995
