ITEM: TIMESTEP
62
ITEM: NUMBER OF ATOMS
688
ITEM: BOX BOUNDS pp pp pp
0.0000000000000000e+00 2.2013900999999997e+01
0.0000000000000000e+00 2.2013900999999997e+01
0.0000000000000000e+00 2.2013900999999997e+01
ITEM: ATOMS id type x y z c_pot
1 1 22.0138 9.87423e-17 9.92214e-16 -8.94937
2 1 1.57218 1.57224 1.57224 -8.94927
3 1 3.14476 1.54285e-15 7.53776e-16 -8.94972
4 1 4.71715 1.57223 1.57223 -8.94966
5 1 6.28964 1.52493e-15 1.01702e-15 -8.94958
6 1 7.86206 1.57218 1.57221 -8.94955
7 1 9.43451 1.08927e-15 5.70027e-16 -8.94961
8 1 11.007 1.57216 1.5722 -8.94958
9 1 12.5794 1.23466e-15 2.35962e-16 -8.9496
10 1 14.1519 1.57219 1.57225 -8.94953
11 1 15.7243 7.55095e-16 1.77591e-16 -8.94962
12 1 17.2969 1.57215 1.57223 -8.94958
13 1 18.8692 6.11732e-16 1.00624e-15 -8.94946
14 1 20.4415 1.57232 1.57238 -8.9495
15 1 22.0139 3.14475 1.35404e-15 -8.94964
16 1 1.57227 4.71719 1.57224 -8.94983
17 1 3.14449 3.1445 1.57581e-15 -8.94949
18 1 4.71651 4.71657 1.57148 -8.94985
19 1 6.28955 3.1445 7.29262e-16 -8.94944
20 1 7.86182 4.71651 1.57168 -8.94911
21 1 9.43448 3.1444 1.38655e-15 -8.94955
22 1 11.0069 4.7164 1.57172 -8.94936
23 1 12.5794 3.14442 1.2101e-15 -8.94948
24 1 14.1521 4.71639 1.57174 -8.94977
25 1 15.7244 3.14445 7.08454e-16 -8.94978
26 1 17.2977 4.71621 1.57172 -8.94834
27 1 18.8694 3.14448 1.25644e-15 -8.94903
28 1 20.4417 4.71707 1.57226 -8.94959
29 1 22.0139 6.28964 1.77502e-15 -8.94956
30 1 1.57226 7.86208 1.57225 -8.94946
31 1 3.14466 6.28973 1.51772e-15 -8.94976
32 1 4.71696 7.86236 1.57207 -8.94965
33 1 6.2892 6.28932 1.26706e-15 -8.95104
34 1 7.86173 7.86201 1.57097 -8.95234
35 1 9.43411 6.28884 8.28692e-16 -8.94955
36 1 11.0063 7.8612 1.57049 -8.95067
37 1 12.5793 6.2889 1.46792e-15 -8.94961
38 1 14.1532 7.8606 1.56965 -8.95205
39 1 15.7253 6.28858 1.72321e-15 -8.95015
40 1 17.2977 7.86161 1.57172 -8.94918
41 1 18.8695 6.28945 2.00462e-15 -8.94958
42 1 20.4418 7.86201 1.57223 -8.94953
43 1 22.0139 9.4345 1.38159e-15 -8.94961
44 1 3.14452 9.4345 1.53166e-15 -8.94954
45 1 6.28933 9.43474 1.79577e-15 -8.94931
46 1 9.43412 9.43464 1.39883e-15 -8.94877
47 1 12.5794 9.43437 -6.40964e-16 -8.95311
48 1 15.7254 9.43412 7.7868e-16 -8.94914
49 1 18.8695 9.43445 1.81081e-15 -8.94954
50 1 -0.000111417 1.05106e-16 3.14476 -8.9495
51 1 1.57202 1.57215 4.71696 -8.94928
52 1 3.14455 1.15382e-15 3.14452 -8.94963
53 1 4.7167 1.57162 4.71656 -8.95001
54 1 6.28961 1.71329e-15 3.14454 -8.94954
55 1 7.86206 1.57169 4.71664 -8.94947
56 1 9.43454 1.25879e-15 3.14449 -8.94958
57 1 11.0071 1.57167 4.71661 -8.9495
58 1 12.5795 1.72986e-15 3.14452 -8.94951
59 1 14.1521 1.57165 4.71687 -8.95033
60 1 15.7244 9.51978e-16 3.14462 -8.94988
61 1 17.2969 1.57208 4.71708 -8.94955
62 1 18.8692 7.36121e-16 3.14477 -8.94958
63 1 20.4415 1.57231 4.7172 -8.9496
64 1 22.0137 3.14464 3.14463 -8.9496
65 1 1.57141 4.7167 4.71655 -8.94985
66 1 3.14392 3.14399 3.14388 -8.94837
67 1 4.71365 4.71379 4.71323 -8.94491
68 1 6.2894 3.14405 3.14406 -8.94954
69 1 7.86138 4.71459 4.71484 -8.94839
70 1 9.43449 3.14393 3.14406 -8.94944
71 1 11.0072 4.71454 4.71501 -8.94777
72 1 12.5795 3.14391 3.14416 -8.94917
73 1 14.1541 4.71313 4.71465 -8.95004
74 1 15.725 3.14363 3.14406 -8.94954
75 1 17.298 4.71593 4.71645 -8.94889
76 1 18.8694 3.14448 3.14465 -8.94947
77 1 20.4416 4.71695 4.71704 -8.94975
78 1 22.0139 6.28958 3.14461 -8.94971
79 1 1.57191 7.86218 4.7168 -8.94957
80 1 3.14424 6.28965 3.14421 -8.95023
81 1 4.71573 7.86269 4.71587 -8.95117
82 1 6.28774 6.28798 3.14118 -8.95119
83 1 7.85796 7.85824 4.70825 -8.9575
84 1 9.43385 6.28771 3.14211 -8.94796
85 1 11.0062 7.85806 4.7086 -8.95232
86 1 12.5798 6.28762 3.14195 -8.94958
87 1 14.1641 7.85021 4.70365 -8.93258
88 1 15.7278 6.28602 3.14114 -8.94509
89 1 17.3005 7.86031 4.71527 -8.95036
90 1 18.8702 6.28904 3.1442 -8.94964
91 1 20.4422 7.86184 4.71686 -8.94994
92 1 3.27899e-05 9.43447 3.14452 -8.94956
93 1 3.14425 9.43455 3.14417 -8.94906
94 1 6.28943 9.43553 3.14432 -8.94937
95 1 9.43462 9.43484 3.14402 -8.94886
96 1 12.5817 9.43325 3.13608 -8.96004
97 1 15.7274 9.43338 3.14158 -8.94757
98 1 18.8702 9.43431 3.14415 -8.94935
99 1 22.0137 1.12515e-15 6.28961 -8.94962
100 1 1.57195 1.57209 7.86193 -8.94955
101 1 3.14427 1.38683e-15 6.28926 -8.94941
102 1 4.71615 1.57099 7.86133 -8.94968
103 1 6.28942 1.84007e-15 6.28917 -8.95038
104 1 7.8621 1.57065 7.86163 -8.95102
105 1 9.43471 1.87397e-15 6.28914 -8.95
106 1 11.0073 1.57131 7.86172 -8.94953
107 1 12.5796 1.72897e-15 6.28938 -8.95011
108 1 14.1523 1.57147 7.86193 -8.9503
109 1 15.7246 1.42059e-15 6.28952 -8.94981
110 1 17.2969 1.57216 7.86212 -8.94961
111 1 18.8692 9.96656e-16 6.28967 -8.94965
112 1 20.4415 1.57229 7.86207 -8.94958
113 1 -0.000410409 3.14449 6.28944 -8.94948
114 1 1.57058 4.71618 7.86134 -8.94937
115 1 3.14331 3.14341 6.28849 -8.948
116 1 4.71149 4.71158 7.8578 -8.94223
117 1 6.28842 3.14164 6.28798 -8.95153
118 1 7.85977 4.70853 7.85963 -8.9581
119 1 9.43476 3.14217 6.28831 -8.94989
120 1 11.0067 4.71321 7.86067 -8.9508
121 1 12.5798 3.14236 6.28899 -8.95172
122 1 14.1545 4.71262 7.86055 -8.94883
123 1 15.7252 3.14333 6.28917 -8.94932
124 1 17.2977 4.71629 7.8621 -8.94973
125 1 18.8693 3.1445 6.28961 -8.94968
126 1 20.4414 4.71685 7.86198 -8.94968
127 1 22.0134 6.2894 6.28934 -8.95022
128 1 1.57016 7.86207 7.86162 -8.95154
129 1 3.14129 6.2883 6.28773 -8.95137
130 1 4.7072 7.85985 7.85911 -8.95942
131 1 6.277 6.27758 6.27607 -8.93194
132 1 7.81967 7.82474 7.82434 -8.86178
133 1 9.43346 6.28151 6.28384 -8.94757
134 1 11.021 7.84855 7.83338 -8.89933
135 1 12.5853 6.27874 6.28183 -8.95281
136 1 14.1666 7.84995 7.85263 -8.93413
137 1 15.7291 6.28527 6.28676 -8.94616
138 1 17.3006 7.86064 7.86183 -8.95187
139 1 18.8703 6.28894 6.28935 -8.95
140 1 20.4419 7.86184 7.86203 -8.95041
141 1 22.0138 9.43452 6.28925 -8.9498
142 1 3.14332 9.43525 6.28869 -8.94909
143 1 6.28739 9.43839 6.28915 -8.95063
144 1 9.42541 9.41778 6.28956 -8.91562
145 1 12.6191 9.40236 6.24725 -8.87807
146 1 15.7354 9.43136 6.28448 -8.95485
147 1 18.8717 9.43415 6.28904 -8.95107
148 1 -0.000168235 1.64518e-15 9.4345 -8.94962
149 1 3.1442 2.00367e-15 9.43438 -8.94942
150 1 6.28904 1.59148e-15 9.43421 -8.95104
151 1 9.43493 1.69662e-15 9.43423 -8.94919
152 1 12.5797 1.39178e-15 9.43448 -8.95017
153 1 15.7246 1.59445e-15 9.43455 -8.94955
154 1 18.8692 9.95201e-16 9.43451 -8.94959
155 1 22.0135 3.14444 9.43445 -8.9495
156 1 3.14325 3.14333 9.43411 -8.94921
157 1 6.28697 3.13916 9.43326 -8.9512
158 1 9.43502 3.14205 9.43378 -8.9467
159 1 12.58 3.14246 9.43431 -8.95157
160 1 15.7249 3.14391 9.43471 -8.94948
161 1 18.8693 3.14445 9.43451 -8.94949
162 1 22.0127 6.28913 9.43431 -8.95033
163 1 3.1384 6.28666 9.43293 -8.95011
164 1 6.26921 6.26982 9.42289 -8.92038
165 1 9.43054 6.28718 9.43233 -9.00678
166 1 12.5846 6.27997 9.42775 -8.94797
167 1 15.727 6.28748 9.4349 -8.9486
168 1 18.8699 6.28894 9.43463 -8.94954
169 1 22.0132 9.43471 9.43437 -8.94973
170 1 3.14138 9.43578 9.43398 -8.95035
171 1 6.28073 9.43059 9.43482 -8.96859
172 1 9.35664 9.17138 9.44467 -8.05699
173 1 12.5967 9.40751 9.3855 -8.82527
174 1 15.7288 9.43394 9.4331 -8.9529
175 1 18.8705 9.43435 9.43475 -8.94986
176 1 1.57192 1.57208 11.007 -8.94954
177 1 4.71607 1.57095 11.007 -8.94924
178 1 7.86205 1.56981 11.007 -8.95308
179 1 11.0072 1.5714 11.007 -8.94954
180 1 14.1523 1.57185 11.007 -8.94917
181 1 17.297 1.57211 11.007 -8.94955
182 1 20.4415 1.57227 11.007 -8.94961
183 1 1.57055 4.71615 11.007 -8.94913
184 1 4.71185 4.71186 11.007 -8.94602
185 1 7.8578 4.70253 11.007 -8.96627
186 1 11.0067 4.71374 11.007 -8.95412
187 1 14.1528 4.71584 11.007 -8.94772
188 1 17.2976 4.71623 11.007 -8.94873
189 1 20.4414 4.71677 11.007 -8.94954
190 1 1.56852 7.86182 11.007 -8.95371
191 1 4.69847 7.85662 11.007 -8.96551
192 1 7.78019 7.79292 11.007 -8.74551
193 1 11.0502 7.84534 11.007 -8.84248
194 1 14.1578 7.86228 11.007 -8.96526
195 1 17.2988 7.86127 11.007 -8.95006
196 1 20.4415 7.86179 11.007 -8.95027
197 1 -0.000168235 1.55504e-15 12.5794 -8.94962
198 1 1.57195 1.57209 14.152 -8.94955
199 1 3.1442 1.63469e-15 12.5795 -8.94942
200 1 4.71615 1.57099 14.1526 -8.94968
201 1 6.28904 1.83246e-15 12.5797 -8.95104
202 1 7.8621 1.57065 14.1523 -8.95102
203 1 9.43493 1.7867e-15 12.5797 -8.94919
204 1 11.0073 1.57131 14.1522 -8.94953
205 1 12.5797 1.93492e-15 12.5794 -8.95017
206 1 14.1523 1.57147 14.152 -8.9503
207 1 15.7246 1.84361e-15 12.5793 -8.94955
208 1 17.2969 1.57216 14.1518 -8.94961
209 1 18.8692 1.5744e-15 12.5794 -8.94959
210 1 20.4415 1.57229 14.1518 -8.94958
211 1 22.0135 3.14444 12.5795 -8.9495
212 1 1.57058 4.71618 14.1526 -8.94937
213 1 3.14325 3.14333 12.5798 -8.94921
214 1 4.71149 4.71158 14.1561 -8.94223
215 1 6.28697 3.13916 12.5806 -8.9512
216 1 7.85977 4.70853 14.1543 -8.9581
217 1 9.43502 3.14205 12.5801 -8.9467
218 1 11.0067 4.71321 14.1532 -8.9508
219 1 12.58 3.14246 12.5796 -8.95157
220 1 14.1545 4.71262 14.1534 -8.94883
221 1 15.7249 3.14391 12.5792 -8.94948
222 1 17.2977 4.71629 14.1518 -8.94973
223 1 18.8693 3.14445 12.5794 -8.94949
224 1 20.4414 4.71685 14.1519 -8.94968
225 1 22.0127 6.28913 12.5796 -8.95033
226 1 1.57016 7.86207 14.1523 -8.95154
227 1 3.1384 6.28666 12.581 -8.95011
228 1 4.7072 7.85985 14.1548 -8.95942
229 1 6.26921 6.26982 12.591 -8.92038
230 1 7.81967 7.82474 14.1896 -8.86178
231 1 9.43054 6.28718 12.5816 -9.00678
232 1 11.021 7.84855 14.1805 -8.89933
233 1 12.5846 6.27997 12.5862 -8.94797
234 1 14.1666 7.84995 14.1613 -8.93413
235 1 15.727 6.28748 12.579 -8.9486
236 1 17.3006 7.86064 14.1521 -8.95187
237 1 18.8699 6.28894 12.5793 -8.94954
238 1 20.4419 7.86184 14.1519 -8.95041
239 1 22.0132 9.43471 12.5795 -8.94973
240 1 3.14138 9.43578 12.5799 -8.95035
241 1 6.28073 9.43059 12.5791 -8.96859
242 1 9.35664 9.17138 12.5692 -8.05699
243 1 12.5967 9.40751 12.6284 -8.82527
244 1 15.7288 9.43394 12.5808 -8.9529
245 1 18.8705 9.43435 12.5792 -8.94986
246 1 22.0137 1.64888e-15 15.7243 -8.94962
247 1 1.57202 1.57215 17.2969 -8.94928
248 1 3.14427 1.38375e-15 15.7246 -8.94941
249 1 4.7167 1.57162 17.2973 -8.95001
250 1 6.28942 1.22186e-15 15.7247 -8.95038
251 1 7.86206 1.57169 17.2973 -8.94947
252 1 9.43471 1.48066e-15 15.7248 -8.95
253 1 11.0071 1.57167 17.2973 -8.9495
254 1 12.5796 1.81587e-15 15.7245 -8.95011
255 1 14.1521 1.57165 17.297 -8.95033
256 1 15.7246 1.62854e-15 15.7244 -8.94981
257 1 17.2969 1.57208 17.2968 -8.94955
258 1 18.8692 1.51152e-15 15.7242 -8.94965
259 1 20.4415 1.57231 17.2967 -8.9496
260 1 -0.000410409 3.14449 15.7245 -8.94948
261 1 1.57141 4.7167 17.2973 -8.94985
262 1 3.14331 3.14341 15.7254 -8.948
263 1 4.71365 4.71379 17.3007 -8.94491
264 1 6.28842 3.14164 15.7259 -8.95153
265 1 7.86138 4.71459 17.2991 -8.94839
266 1 9.43476 3.14217 15.7256 -8.94989
267 1 11.0072 4.71454 17.2989 -8.94777
268 1 12.5798 3.14236 15.7249 -8.95172
269 1 14.1541 4.71313 17.2993 -8.95004
270 1 15.7252 3.14333 15.7247 -8.94932
271 1 17.298 4.71593 17.2975 -8.94889
272 1 18.8693 3.1445 15.7243 -8.94968
273 1 20.4416 4.71695 17.2969 -8.94975
274 1 22.0134 6.2894 15.7246 -8.95022
275 1 1.57191 7.86218 17.2971 -8.94957
276 1 3.14129 6.2883 15.7262 -8.95137
277 1 4.71573 7.86269 17.298 -8.95117
278 1 6.277 6.27758 15.7378 -8.93194
279 1 7.85796 7.85824 17.3056 -8.9575
280 1 9.43346 6.28151 15.7301 -8.94757
281 1 11.0062 7.85806 17.3053 -8.95232
282 1 12.5853 6.27874 15.7321 -8.95281
283 1 14.1641 7.85021 17.3103 -8.93258
284 1 15.7291 6.28527 15.7271 -8.94616
285 1 17.3005 7.86031 17.2986 -8.95036
286 1 18.8703 6.28894 15.7246 -8.95
287 1 20.4422 7.86184 17.297 -8.94994
288 1 22.0138 9.43452 15.7247 -8.9498
289 1 3.14332 9.43525 15.7252 -8.94909
290 1 6.28739 9.43839 15.7247 -8.95063
291 1 9.42541 9.41778 15.7243 -8.91562
292 1 12.6191 9.40236 15.7666 -8.87807
293 1 15.7354 9.43136 15.7294 -8.95485
294 1 18.8717 9.43415 15.7249 -8.95107
295 1 -0.000111417 1.25258e-15 18.8691 -8.9495
296 1 1.57218 1.57224 20.4417 -8.94927
297 1 3.14455 9.22152e-16 18.8694 -8.94963
298 1 4.71715 1.57223 20.4417 -8.94966
299 1 6.28961 1.69001e-15 18.8694 -8.94954
300 1 7.86206 1.57218 20.4417 -8.94955
301 1 9.43454 1.55876e-15 18.8694 -8.94958
302 1 11.007 1.57216 20.4417 -8.94958
303 1 12.5795 1.86041e-15 18.8694 -8.94951
304 1 14.1519 1.57219 20.4417 -8.94953
305 1 15.7244 1.16701e-15 18.8693 -8.94988
306 1 17.2969 1.57215 20.4417 -8.94958
307 1 18.8692 7.32831e-16 18.8691 -8.94958
308 1 20.4415 1.57232 20.4415 -8.9495
309 1 22.0137 3.14464 18.8693 -8.9496
310 1 1.57227 4.71719 20.4417 -8.94983
311 1 3.14392 3.14399 18.87 -8.94837
312 1 4.71651 4.71657 20.4424 -8.94985
313 1 6.2894 3.14405 18.8698 -8.94954
314 1 7.86182 4.71651 20.4422 -8.94911
315 1 9.43449 3.14393 18.8698 -8.94944
316 1 11.0069 4.7164 20.4422 -8.94936
317 1 12.5795 3.14391 18.8697 -8.94917
318 1 14.1521 4.71639 20.4422 -8.94977
319 1 15.725 3.14363 18.8698 -8.94954
320 1 17.2977 4.71621 20.4422 -8.94834
321 1 18.8694 3.14448 18.8693 -8.94947
322 1 20.4417 4.71707 20.4416 -8.94959
323 1 22.0139 6.28958 18.8693 -8.94971
324 1 1.57226 7.86208 20.4417 -8.94946
325 1 3.14424 6.28965 18.8697 -8.95023
326 1 4.71696 7.86236 20.4418 -8.94965
327 1 6.28774 6.28798 18.8727 -8.95119
328 1 7.86173 7.86201 20.4429 -8.95234
329 1 9.43385 6.28771 18.8718 -8.94796
330 1 11.0063 7.8612 20.4434 -8.95067
331 1 12.5798 6.28762 18.872 -8.94958
332 1 14.1532 7.8606 20.4443 -8.95205
333 1 15.7278 6.28602 18.8728 -8.94509
334 1 17.2977 7.86161 20.4422 -8.94918
335 1 18.8702 6.28904 18.8697 -8.94964
336 1 20.4418 7.86201 20.4417 -8.94953
337 1 3.27899e-05 9.43447 18.8694 -8.94956
338 1 3.14425 9.43455 18.8697 -8.94906
339 1 6.28943 9.43553 18.8696 -8.94937
340 1 9.43462 9.43484 18.8699 -8.94886
341 1 12.5817 9.43325 18.8778 -8.96004
342 1 15.7274 9.43338 18.8723 -8.94757
343 1 18.8702 9.43431 18.8698 -8.94935
344 1 1.57222 11.007 1.5722 -8.94962
345 1 4.71673 11.007 1.57191 -8.94971
346 1 7.86181 11.007 1.57255 -8.94778
347 1 11.0064 11.007 1.57141 -8.94682
348 1 14.1538 11.007 1.56953 -8.94978
349 1 17.2978 11.007 1.5717 -8.9494
350 1 20.4418 11.007 1.57222 -8.94958
351 1 22.0139 12.5794 1.75543e-15 -8.94961
352 1 1.57226 14.1518 1.57225 -8.94946
353 1 3.14452 12.5794 1.68435e-15 -8.94954
354 1 4.71696 14.1515 1.57207 -8.94965
355 1 6.28933 12.5792 1.28084e-15 -8.94931
356 1 7.86173 14.1519 1.57097 -8.95234
357 1 9.43412 12.5793 1.26155e-15 -8.94877
358 1 11.0063 14.1527 1.57049 -8.95067
359 1 12.5794 12.5795 -7.85098e-16 -8.95311
360 1 14.1532 14.1533 1.56965 -8.95205
361 1 15.7254 12.5798 1.03263e-15 -8.94914
362 1 17.2977 14.1523 1.57172 -8.94918
363 1 18.8695 12.5795 1.74895e-15 -8.94954
364 1 20.4418 14.1519 1.57223 -8.94953
365 1 22.0139 15.7243 1.76699e-15 -8.94956
366 1 1.57227 17.2967 1.57224 -8.94983
367 1 3.14466 15.7242 1.82886e-15 -8.94976
368 1 4.71651 17.2973 1.57148 -8.94985
369 1 6.2892 15.7246 1.61558e-15 -8.95104
370 1 7.86182 17.2974 1.57168 -8.94911
371 1 9.43411 15.7251 8.99523e-16 -8.94955
372 1 11.0069 17.2975 1.57172 -8.94936
373 1 12.5793 15.725 1.38854e-15 -8.94961
374 1 14.1521 17.2975 1.57174 -8.94977
375 1 15.7253 15.7253 1.72965e-15 -8.95015
376 1 17.2977 17.2977 1.57172 -8.94834
377 1 18.8695 15.7244 1.65653e-15 -8.94958
378 1 20.4417 17.2968 1.57226 -8.94959
379 1 22.0139 18.8691 1.35491e-15 -8.94964
380 1 1.57218 20.4417 1.57224 -8.94927
381 1 3.14449 18.8694 1.3728e-15 -8.94949
382 1 4.71715 20.4417 1.57223 -8.94966
383 1 6.28955 18.8694 1.12013e-15 -8.94944
384 1 7.86206 20.4417 1.57221 -8.94955
385 1 9.43448 18.8695 9.73682e-16 -8.94955
386 1 11.007 20.4417 1.5722 -8.94958
387 1 12.5794 18.8695 1.49135e-15 -8.94948
388 1 14.1519 20.4417 1.57225 -8.94953
389 1 15.7244 18.8694 1.33611e-15 -8.94978
390 1 17.2969 20.4418 1.57223 -8.94958
391 1 18.8694 18.8694 1.64486e-15 -8.94903
392 1 20.4415 20.4416 1.57238 -8.9495
393 1 1.57182 11.007 4.71652 -8.94948
394 1 4.71586 11.007 4.71547 -8.94653
395 1 7.86503 11.007 4.72126 -8.94464
396 1 11.0114 11.007 4.71798 -8.99467
397 1 14.1622 11.007 4.70598 -8.94199
398 1 17.3005 11.007 4.71512 -8.94913
399 1 20.4423 11.007 4.71675 -8.9498
400 1 3.27899e-05 12.5794 3.14452 -8.94956
401 1 1.57191 14.1517 4.7168 -8.94957
402 1 3.14425 12.5793 3.14417 -8.94906
403 1 4.71573 14.1512 4.71587 -8.95117
404 1 6.28943 12.5784 3.14432 -8.94937
405 1 7.85796 14.1557 4.70825 -8.9575
406 1 9.43462 12.5791 3.14402 -8.94886
407 1 11.0062 14.1558 4.7086 -8.95232
408 1 12.5817 12.5807 3.13608 -8.96004
409 1 14.1641 14.1637 4.70365 -8.93258
410 1 15.7274 12.5805 3.14158 -8.94757
411 1 17.3005 14.1536 4.71527 -8.95036
412 1 18.8702 12.5796 3.14415 -8.94935
413 1 20.4422 14.1521 4.71686 -8.94994
414 1 22.0139 15.7243 3.14461 -8.94971
415 1 1.57141 17.2972 4.71655 -8.94985
416 1 3.14424 15.7243 3.14421 -8.95023
417 1 4.71365 17.3001 4.71323 -8.94491
418 1 6.28774 15.7259 3.14118 -8.95119
419 1 7.86138 17.2993 4.71484 -8.94839
420 1 9.43385 15.7262 3.14211 -8.94796
421 1 11.0072 17.2994 4.71501 -8.94777
422 1 12.5798 15.7263 3.14195 -8.94958
423 1 14.1541 17.3008 4.71465 -8.95004
424 1 15.7278 15.7279 3.14114 -8.94509
425 1 17.298 17.298 4.71645 -8.94889
426 1 18.8702 15.7249 3.1442 -8.94964
427 1 20.4416 17.297 4.71704 -8.94975
428 1 22.0137 18.8693 3.14463 -8.9496
429 1 1.57202 20.4418 4.71696 -8.94928
430 1 3.14392 18.8699 3.14388 -8.94837
431 1 4.7167 20.4423 4.71656 -8.95001
432 1 6.2894 18.8699 3.14406 -8.94954
433 1 7.86206 20.4422 4.71664 -8.94947
434 1 9.43449 18.87 3.14406 -8.94944
435 1 11.0071 20.4422 4.71661 -8.9495
436 1 12.5795 18.87 3.14416 -8.94917
437 1 14.1521 20.4423 4.71687 -8.95033
438 1 15.725 18.8703 3.14406 -8.94954
439 1 17.2969 20.4418 4.71708 -8.94955
440 1 18.8694 18.8694 3.14465 -8.94947
441 1 20.4415 20.4416 4.7172 -8.9496
442 1 1.57148 11.007 7.86127 -8.94782
443 1 4.71807 11.007 7.86152 -8.93903
444 1 7.88328 11.007 7.87923 -8.85015
445 1 11.1048 11.007 7.66515 -8.21525
446 1 14.1712 11.007 7.84753 -8.96553
447 1 17.3021 11.007 7.86126 -8.95182
448 1 20.4424 11.007 7.86193 -8.95009
449 1 22.0138 12.5794 6.28925 -8.9498
450 1 1.57016 14.1518 7.86162 -8.95154
451 1 3.14332 12.5786 6.28869 -8.94909
452 1 4.7072 14.1541 7.85911 -8.95942
453 1 6.28739 12.5755 6.28915 -8.95063
454 1 7.81967 14.1892 7.82434 -8.86178
455 1 9.42541 12.5961 6.28956 -8.91562
456 1 11.021 14.1654 7.83338 -8.89933
457 1 12.6191 12.6115 6.24725 -8.87807
458 1 14.1666 14.164 7.85263 -8.93413
459 1 15.7354 12.5825 6.28448 -8.95485
460 1 17.3006 14.1533 7.86183 -8.95187
461 1 18.8717 12.5798 6.28904 -8.95107
462 1 20.4419 14.1521 7.86203 -8.95041
463 1 22.0134 15.7245 6.28934 -8.95022
464 1 1.57058 17.2977 7.86134 -8.94937
465 1 3.14129 15.7256 6.28773 -8.95137
466 1 4.71149 17.3023 7.8578 -8.94223
467 1 6.277 15.7363 6.27607 -8.93194
468 1 7.85977 17.3054 7.85963 -8.9581
469 1 9.43346 15.7324 6.28384 -8.94757
470 1 11.0067 17.3007 7.86067 -8.9508
471 1 12.5853 15.7352 6.28183 -8.95281
472 1 14.1545 17.3013 7.86055 -8.94883
473 1 15.7291 15.7286 6.28676 -8.94616
474 1 17.2977 17.2976 7.8621 -8.94973
475 1 18.8703 15.725 6.28935 -8.95
476 1 20.4414 17.297 7.86198 -8.94968
477 1 -0.000410409 18.8694 6.28944 -8.94948
478 1 1.57195 20.4418 7.86193 -8.94955
479 1 3.14331 18.8705 6.28849 -8.948
480 1 4.71615 20.4429 7.86133 -8.94968
481 1 6.28842 18.8723 6.28798 -8.95153
482 1 7.8621 20.4432 7.86163 -8.95102
483 1 9.43476 18.8717 6.28831 -8.94989
484 1 11.0073 20.4426 7.86172 -8.94953
485 1 12.5798 18.8715 6.28899 -8.95172
486 1 14.1523 20.4424 7.86193 -8.9503
487 1 15.7252 18.8706 6.28917 -8.94932
488 1 17.2969 20.4417 7.86212 -8.94961
489 1 18.8693 18.8694 6.28961 -8.94968
490 1 20.4415 20.4416 7.86207 -8.94958
491 1 22.0132 12.5792 9.43437 -8.94973
492 1 3.14138 12.5781 9.43398 -8.95035
493 1 6.28073 12.5833 9.43482 -8.96859
494 1 9.35664 12.8425 9.44467 -8.05699
495 1 12.5967 12.6064 9.3855 -8.82527
496 1 15.7288 12.58 9.4331 -8.9529
497 1 18.8705 12.5795 9.43475 -8.94986
498 1 22.0127 15.7248 9.43431 -8.95033
499 1 3.1384 15.7272 9.43293 -8.95011
500 1 6.26921 15.7441 9.42289 -8.92038
501 1 9.43054 15.7267 9.43233 -9.00678
502 1 12.5846 15.7339 9.42775 -8.94797
503 1 15.727 15.7264 9.4349 -8.9486
504 1 18.8699 15.725 9.43463 -8.94954
505 1 22.0135 18.8695 9.43445 -8.9495
506 1 3.14325 18.8706 9.43411 -8.94921
507 1 6.28697 18.8747 9.43326 -8.9512
508 1 9.43502 18.8719 9.43378 -8.9467
509 1 12.58 18.8714 9.43431 -8.95157
510 1 15.7249 18.87 9.43471 -8.94948
511 1 18.8693 18.8694 9.43451 -8.94949
688 3 10.1069 11.007 9.39578 2.37789
512 1 1.57143 11.007 11.007 -8.94626
513 1 4.72083 11.007 11.007 -8.93538
514 1 7.8928 11.007 11.007 -8.73676
515 1 11.2836 11.007 11.007 -7.35737
516 1 14.144 11.007 11.007 -9.01623
517 1 17.297 11.007 11.007 -8.94604
518 1 20.4416 11.007 11.007 -8.94857
519 1 1.56852 14.1521 11.007 -8.95371
520 1 4.69847 14.1573 11.007 -8.96551
521 1 7.78019 14.221 11.007 -8.74551
522 1 11.0502 14.1686 11.007 -8.84248
523 1 14.1578 14.1516 11.007 -8.96526
524 1 17.2988 14.1526 11.007 -8.95006
525 1 20.4415 14.1521 11.007 -8.95027
526 1 1.57055 17.2978 11.007 -8.94913
527 1 4.71185 17.302 11.007 -8.94602
528 1 7.8578 17.3114 11.007 -8.96627
529 1 11.0067 17.3002 11.007 -8.95412
530 1 14.1528 17.2981 11.007 -8.94772
531 1 17.2976 17.2977 11.007 -8.94873
532 1 20.4414 17.2971 11.007 -8.94954
533 1 1.57192 20.4418 11.007 -8.94954
534 1 4.71607 20.443 11.007 -8.94924
535 1 7.86205 20.4441 11.007 -8.95308
536 1 11.0072 20.4425 11.007 -8.94954
537 1 14.1523 20.4421 11.007 -8.94917
538 1 17.297 20.4418 11.007 -8.94955
539 1 20.4415 20.4416 11.007 -8.94961
540 1 1.57148 11.007 14.1526 -8.94782
541 1 4.71807 11.007 14.1524 -8.93903
542 1 7.88328 11.007 14.1347 -8.85015
543 1 11.1048 11.007 14.3488 -8.21525
544 1 14.1712 11.007 14.1664 -8.96553
545 1 17.3021 11.007 14.1526 -8.95182
546 1 20.4424 11.007 14.152 -8.95009
547 1 22.0132 12.5792 12.5795 -8.94973
548 1 1.57016 14.1518 14.1523 -8.95154
549 1 3.14138 12.5781 12.5799 -8.95035
550 1 4.7072 14.1541 14.1548 -8.95942
551 1 6.28073 12.5833 12.5791 -8.96859
552 1 7.81967 14.1892 14.1896 -8.86178
553 1 9.35664 12.8425 12.5692 -8.05699
554 1 11.021 14.1654 14.1805 -8.89933
555 1 12.5967 12.6064 12.6284 -8.82527
556 1 14.1666 14.164 14.1613 -8.93413
557 1 15.7288 12.58 12.5808 -8.9529
558 1 17.3006 14.1533 14.1521 -8.95187
559 1 18.8705 12.5795 12.5792 -8.94986
560 1 20.4419 14.1521 14.1519 -8.95041
561 1 22.0127 15.7248 12.5796 -8.95033
562 1 1.57058 17.2977 14.1526 -8.94937
563 1 3.1384 15.7272 12.581 -8.95011
564 1 4.71149 17.3023 14.1561 -8.94223
565 1 6.26921 15.7441 12.591 -8.92038
566 1 7.85977 17.3054 14.1543 -8.9581
567 1 9.43054 15.7267 12.5816 -9.00678
568 1 11.0067 17.3007 14.1532 -8.9508
569 1 12.5846 15.7339 12.5862 -8.94797
570 1 14.1545 17.3013 14.1534 -8.94883
571 1 15.727 15.7264 12.579 -8.9486
572 1 17.2977 17.2976 14.1518 -8.94973
573 1 18.8699 15.725 12.5793 -8.94954
574 1 20.4414 17.297 14.1519 -8.94968
575 1 22.0135 18.8695 12.5795 -8.9495
576 1 1.57195 20.4418 14.152 -8.94955
577 1 3.14325 18.8706 12.5798 -8.94921
578 1 4.71615 20.4429 14.1526 -8.94968
579 1 6.28697 18.8747 12.5806 -8.9512
580 1 7.8621 20.4432 14.1523 -8.95102
581 1 9.43502 18.8719 12.5801 -8.9467
582 1 11.0073 20.4426 14.1522 -8.94953
583 1 12.58 18.8714 12.5796 -8.95157
584 1 14.1523 20.4424 14.152 -8.9503
585 1 15.7249 18.87 12.5792 -8.94948
586 1 17.2969 20.4417 14.1518 -8.94961
587 1 18.8693 18.8694 12.5794 -8.94949
588 1 20.4415 20.4416 14.1518 -8.94958
589 1 1.57182 11.007 17.2974 -8.94948
590 1 4.71586 11.007 17.2984 -8.94653
591 1 7.86503 11.007 17.2926 -8.94464
592 1 11.0114 11.007 17.2959 -8.99467
593 1 14.1622 11.007 17.3079 -8.94199
594 1 17.3005 11.007 17.2988 -8.94913
595 1 20.4423 11.007 17.2972 -8.9498
596 1 22.0138 12.5794 15.7247 -8.9498
597 1 1.57191 14.1517 17.2971 -8.94957
598 1 3.14332 12.5786 15.7252 -8.94909
599 1 4.71573 14.1512 17.298 -8.95117
600 1 6.28739 12.5755 15.7247 -8.95063
601 1 7.85796 14.1557 17.3056 -8.9575
602 1 9.42541 12.5961 15.7243 -8.91562
603 1 11.0062 14.1558 17.3053 -8.95232
604 1 12.6191 12.6115 15.7666 -8.87807
605 1 14.1641 14.1637 17.3103 -8.93258
606 1 15.7354 12.5825 15.7294 -8.95485
607 1 17.3005 14.1536 17.2986 -8.95036
608 1 18.8717 12.5798 15.7249 -8.95107
609 1 20.4422 14.1521 17.297 -8.94994
610 1 22.0134 15.7245 15.7246 -8.95022
611 1 1.57141 17.2972 17.2973 -8.94985
612 1 3.14129 15.7256 15.7262 -8.95137
613 1 4.71365 17.3001 17.3007 -8.94491
614 1 6.277 15.7363 15.7378 -8.93194
615 1 7.86138 17.2993 17.2991 -8.94839
616 1 9.43346 15.7324 15.7301 -8.94757
617 1 11.0072 17.2994 17.2989 -8.94777
618 1 12.5853 15.7352 15.7321 -8.95281
619 1 14.1541 17.3008 17.2993 -8.95004
620 1 15.7291 15.7286 15.7271 -8.94616
621 1 17.298 17.298 17.2975 -8.94889
622 1 18.8703 15.725 15.7246 -8.95
623 1 20.4416 17.297 17.2969 -8.94975
624 1 -0.000410409 18.8694 15.7245 -8.94948
625 1 1.57202 20.4418 17.2969 -8.94928
626 1 3.14331 18.8705 15.7254 -8.948
627 1 4.7167 20.4423 17.2973 -8.95001
628 1 6.28842 18.8723 15.7259 -8.95153
629 1 7.86206 20.4422 17.2973 -8.94947
630 1 9.43476 18.8717 15.7256 -8.94989
631 1 11.0071 20.4422 17.2973 -8.9495
632 1 12.5798 18.8715 15.7249 -8.95172
633 1 14.1521 20.4423 17.297 -8.95033
634 1 15.7252 18.8706 15.7247 -8.94932
635 1 17.2969 20.4418 17.2968 -8.94955
636 1 18.8693 18.8694 15.7243 -8.94968
637 1 20.4415 20.4416 17.2967 -8.9496
638 1 1.57222 11.007 20.4417 -8.94962
639 1 4.71673 11.007 20.442 -8.94971
640 1 7.86181 11.007 20.4413 -8.94778
641 1 11.0064 11.007 20.4425 -8.94682
642 1 14.1538 11.007 20.4444 -8.94978
643 1 17.2978 11.007 20.4422 -8.9494
644 1 20.4418 11.007 20.4417 -8.94958
645 1 3.27899e-05 12.5794 18.8694 -8.94956
646 1 1.57226 14.1518 20.4417 -8.94946
647 1 3.14425 12.5793 18.8697 -8.94906
648 1 4.71696 14.1515 20.4418 -8.94965
649 1 6.28943 12.5784 18.8696 -8.94937
650 1 7.86173 14.1519 20.4429 -8.95234
651 1 9.43462 12.5791 18.8699 -8.94886
652 1 11.0063 14.1527 20.4434 -8.95067
653 1 12.5817 12.5807 18.8778 -8.96004
654 1 14.1532 14.1533 20.4443 -8.95205
655 1 15.7274 12.5805 18.8723 -8.94757
656 1 17.2977 14.1523 20.4422 -8.94918
657 1 18.8702 12.5796 18.8698 -8.94935
658 1 20.4418 14.1519 20.4417 -8.94953
659 1 22.0139 15.7243 18.8693 -8.94971
660 1 1.57227 17.2967 20.4417 -8.94983
661 1 3.14424 15.7243 18.8697 -8.95023
662 1 4.71651 17.2973 20.4424 -8.94985
663 1 6.28774 15.7259 18.8727 -8.95119
664 1 7.86182 17.2974 20.4422 -8.94911
665 1 9.43385 15.7262 18.8718 -8.94796
666 1 11.0069 17.2975 20.4422 -8.94936
667 1 12.5798 15.7263 18.872 -8.94958
668 1 14.1521 17.2975 20.4422 -8.94977
669 1 15.7278 15.7279 18.8728 -8.94509
670 1 17.2977 17.2977 20.4422 -8.94834
671 1 18.8702 15.7249 18.8697 -8.94964
672 1 20.4417 17.2968 20.4416 -8.94959
673 1 22.0137 18.8693 18.8693 -8.9496
674 1 1.57218 20.4417 20.4417 -8.94927
675 1 3.14392 18.8699 18.87 -8.94837
676 1 4.71715 20.4417 20.4417 -8.94966
677 1 6.2894 18.8699 18.8698 -8.94954
678 1 7.86206 20.4417 20.4417 -8.94955
679 1 9.43449 18.87 18.8698 -8.94944
680 1 11.007 20.4417 20.4417 -8.94958
681 1 12.5795 18.87 18.8697 -8.94917
682 1 14.1519 20.4417 20.4417 -8.94953
683 1 15.725 18.8703 18.8698 -8.94954
684 1 17.2969 20.4418 20.4417 -8.94958
685 1 18.8694 18.8694 18.8693 -8.94947
686 1 20.4415 20.4416 20.4415 -8.9495
687 3 10.1069 11.007 12.6181 2.37789
