ITEM: TIMESTEP
3
ITEM: NUMBER OF ATOMS
384
ITEM: BOX BOUNDS pp pp pp
-8.4079426830391121e-07 1.7786400761540850e+01
-8.9123518486562361e-07 1.8865326888090962e+01
-8.4079426845860928e-07 1.7786400761540850e+01
ITEM: ATOMS id type xs ys zs
1 1 2.4945e-10 0.916667 0.125
2 1 0.125 0.916667 2.4945e-10
3 1 2.4945e-10 0.916667 0.375
4 1 0.125 0.916667 0.25
5 1 0.25 0.916667 0.125
6 1 0.375 0.916667 2.4945e-10
7 1 2.4945e-10 0.916667 0.625
8 1 0.125 0.916667 0.5
9 1 0.25 0.916667 0.375
10 1 0.375 0.916667 0.25
11 1 0.5 0.916667 0.125
12 1 0.625 0.916667 2.4945e-10
13 1 2.4945e-10 0.916667 0.875
14 1 0.125 0.916667 0.75
15 1 0.25 0.916667 0.625
16 1 0.375 0.916667 0.5
17 1 0.5 0.916667 0.375
18 1 0.625 0.916667 0.25
19 1 0.75 0.916667 0.125
20 1 0.875 0.916667 2.4945e-10
21 1 0.25 0.916667 0.875
22 1 0.375 0.916667 0.75
23 1 0.5 0.916667 0.625
24 1 0.625 0.916667 0.5
25 1 0.75 0.916667 0.375
26 1 0.875 0.916667 0.25
27 1 0.5 0.916667 0.875
28 1 0.625 0.916667 0.75
29 1 0.75 0.916667 0.625
30 1 0.875 0.916667 0.5
31 1 0.75 0.916667 0.875
32 1 0.875 0.916667 0.75
33 1 2.4945e-10 0.75 0.125
34 1 2.4945e-10 0.833333 2.4945e-10
35 1 0.125 0.75 2.4945e-10
36 1 2.4945e-10 0.75 0.375
37 1 2.4945e-10 0.833333 0.25
38 1 0.125 0.75 0.25
39 1 0.125 0.833333 0.125
40 1 0.25 0.75 0.125
41 1 0.25 0.833333 2.4945e-10
42 1 0.375 0.75 2.4945e-10
43 1 2.4945e-10 0.75 0.625
44 1 2.4945e-10 0.833333 0.5
45 1 0.125 0.75 0.5
46 1 0.125 0.833333 0.375
47 1 0.25 0.75 0.375
48 1 0.25 0.833333 0.25
49 1 0.375 0.75 0.25
50 1 0.375 0.833333 0.125
51 1 0.5 0.75 0.125
52 1 0.5 0.833333 2.4945e-10
53 1 0.625 0.75 2.4945e-10
54 1 2.4945e-10 0.75 0.875
55 1 2.4945e-10 0.833333 0.75
56 1 0.125 0.75 0.75
57 1 0.125 0.833333 0.625
58 1 0.25 0.75 0.625
59 1 0.25 0.833333 0.5
60 1 0.375 0.75 0.5
61 1 0.375 0.833333 0.375
62 1 0.5 0.75 0.375
63 1 0.5 0.833333 0.25
64 1 0.625 0.75 0.25
65 1 0.625 0.833333 0.125
66 1 0.75 0.75 0.125
67 1 0.75 0.833333 2.4945e-10
68 1 0.875 0.75 2.4945e-10
69 1 0.125 0.833333 0.875
70 1 0.25 0.75 0.875
71 1 0.25 0.833333 0.75
72 1 0.375 0.75 0.75
73 1 0.375 0.833333 0.625
74 1 0.5 0.75 0.625
75 1 0.5 0.833333 0.5
76 1 0.625 0.75 0.5
77 1 0.625 0.833333 0.375
78 1 0.75 0.75 0.375
79 1 0.75 0.833333 0.25
80 1 0.875 0.75 0.25
81 1 0.875 0.833333 0.125
82 1 0.375 0.833333 0.875
83 1 0.5 0.75 0.875
84 1 0.5 0.833333 0.75
85 1 0.625 0.75 0.75
86 1 0.625 0.833333 0.625
87 1 0.75 0.75 0.625
88 1 0.75 0.833333 0.5
89 1 0.875 0.75 0.5
90 1 0.875 0.833333 0.375
91 1 0.625 0.833333 0.875
92 1 0.75 0.75 0.875
93 1 0.75 0.833333 0.75
94 1 0.875 0.75 0.75
95 1 0.875 0.833333 0.625
96 1 0.875 0.833333 0.875
97 1 2.4945e-10 0.583333 0.125
98 1 2.4945e-10 0.666667 2.4945e-10
99 1 0.125 0.583333 2.4945e-10
100 1 2.4945e-10 0.583333 0.375
101 1 2.4945e-10 0.666667 0.25
102 1 0.125 0.583333 0.25
103 1 0.125 0.666667 0.125
104 1 0.25 0.583333 0.125
105 1 0.25 0.666667 2.4945e-10
106 1 0.375 0.583333 2.4945e-10
107 1 2.4945e-10 0.583333 0.625
108 1 2.4945e-10 0.666667 0.5
109 1 0.125 0.583333 0.5
110 1 0.125 0.666667 0.375
111 1 0.25 0.583333 0.375
112 1 0.25 0.666667 0.25
113 1 0.375 0.583333 0.25
114 1 0.375 0.666667 0.125
115 1 0.5 0.583333 0.125
116 1 0.5 0.666667 2.4945e-10
117 1 0.625 0.583333 2.4945e-10
118 1 2.4945e-10 0.583333 0.875
119 1 2.4945e-10 0.666667 0.75
120 1 0.125 0.583333 0.75
121 1 0.125 0.666667 0.625
122 1 0.25 0.583333 0.625
123 1 0.25 0.666667 0.5
124 1 0.375 0.583333 0.5
125 1 0.375 0.666667 0.375
126 1 0.5 0.583333 0.375
127 1 0.5 0.666667 0.25
128 1 0.625 0.583333 0.25
129 1 0.625 0.666667 0.125
130 1 0.75 0.583333 0.125
131 1 0.75 0.666667 2.4945e-10
132 1 0.875 0.583333 2.4945e-10
133 1 0.125 0.666667 0.875
134 1 0.25 0.583333 0.875
135 1 0.25 0.666667 0.75
136 1 0.375 0.583333 0.75
137 1 0.375 0.666667 0.625
138 1 0.5 0.583333 0.625
139 1 0.5 0.666667 0.5
140 1 0.625 0.583333 0.5
141 1 0.625 0.666667 0.375
142 1 0.75 0.583333 0.375
143 1 0.75 0.666667 0.25
144 1 0.875 0.583333 0.25
145 1 0.875 0.666667 0.125
146 1 0.375 0.666667 0.875
147 1 0.5 0.583333 0.875
148 1 0.5 0.666667 0.75
149 1 0.625 0.583333 0.75
150 1 0.625 0.666667 0.625
151 1 0.75 0.583333 0.625
152 1 0.75 0.666667 0.5
153 1 0.875 0.583333 0.5
154 1 0.875 0.666667 0.375
155 1 0.625 0.666667 0.875
156 1 0.75 0.583333 0.875
157 1 0.75 0.666667 0.75
158 1 0.875 0.583333 0.75
159 1 0.875 0.666667 0.625
160 1 0.875 0.666667 0.875
161 1 2.4945e-10 0.416667 0.125
162 1 2.4945e-10 0.5 2.4945e-10
163 1 0.125 0.416667 2.4945e-10
164 1 2.4945e-10 0.416667 0.375
165 1 2.4945e-10 0.5 0.25
166 1 0.125 0.416667 0.25
167 1 0.125 0.5 0.125
168 1 0.25 0.416667 0.125
169 1 0.25 0.5 2.4945e-10
170 1 0.375 0.416667 2.4945e-10
171 1 2.4945e-10 0.416667 0.625
172 1 2.4945e-10 0.5 0.5
173 1 0.125 0.416667 0.5
174 1 0.125 0.5 0.375
175 1 0.25 0.416667 0.375
176 1 0.25 0.5 0.25
177 1 0.375 0.416667 0.25
178 1 0.375 0.5 0.125
179 1 0.5 0.416667 0.125
180 1 0.5 0.5 2.4945e-10
181 1 0.625 0.416667 2.4945e-10
182 1 2.4945e-10 0.416667 0.875
183 1 2.4945e-10 0.5 0.75
184 1 0.125 0.416667 0.75
185 1 0.125 0.5 0.625
186 1 0.25 0.416667 0.625
187 1 0.25 0.5 0.5
188 1 0.375 0.416667 0.5
189 1 0.375 0.5 0.375
190 1 0.5 0.416667 0.375
191 1 0.5 0.5 0.25
192 1 0.625 0.416667 0.25
193 1 0.625 0.5 0.125
194 1 0.75 0.416667 0.125
195 1 0.75 0.5 2.4945e-10
196 1 0.875 0.416667 2.4945e-10
197 1 0.125 0.5 0.875
198 1 0.25 0.416667 0.875
199 1 0.25 0.5 0.75
200 1 0.375 0.416667 0.75
201 1 0.375 0.5 0.625
202 1 0.5 0.416667 0.625
203 1 0.5 0.5 0.5
204 1 0.625 0.416667 0.5
205 1 0.625 0.5 0.375
206 1 0.75 0.416667 0.375
207 1 0.75 0.5 0.25
208 1 0.875 0.416667 0.25
209 1 0.875 0.5 0.125
210 1 0.375 0.5 0.875
211 1 0.5 0.416667 0.875
212 1 0.5 0.5 0.75
213 1 0.625 0.416667 0.75
214 1 0.625 0.5 0.625
215 1 0.75 0.416667 0.625
216 1 0.75 0.5 0.5
217 1 0.875 0.416667 0.5
218 1 0.875 0.5 0.375
219 1 0.625 0.5 0.875
220 1 0.75 0.416667 0.875
221 1 0.75 0.5 0.75
222 1 0.875 0.416667 0.75
223 1 0.875 0.5 0.625
224 1 0.875 0.5 0.875
225 1 2.4945e-10 0.25 0.125
226 1 2.4945e-10 0.333333 2.4945e-10
227 1 0.125 0.25 2.4945e-10
228 1 2.4945e-10 0.25 0.375
229 1 2.4945e-10 0.333333 0.25
230 1 0.125 0.25 0.25
231 1 0.125 0.333333 0.125
232 1 0.25 0.25 0.125
233 1 0.25 0.333333 2.4945e-10
234 1 0.375 0.25 2.4945e-10
235 1 2.4945e-10 0.25 0.625
236 1 2.4945e-10 0.333333 0.5
237 1 0.125 0.25 0.5
238 1 0.125 0.333333 0.375
239 1 0.25 0.25 0.375
240 1 0.25 0.333333 0.25
241 1 0.375 0.25 0.25
242 1 0.375 0.333333 0.125
243 1 0.5 0.25 0.125
244 1 0.5 0.333333 2.4945e-10
245 1 0.625 0.25 2.4945e-10
246 1 2.4945e-10 0.25 0.875
247 1 2.4945e-10 0.333333 0.75
248 1 0.125 0.25 0.75
249 1 0.125 0.333333 0.625
250 1 0.25 0.25 0.625
251 1 0.25 0.333333 0.5
252 1 0.375 0.25 0.5
253 1 0.375 0.333333 0.375
254 1 0.5 0.25 0.375
255 1 0.5 0.333333 0.25
256 1 0.625 0.25 0.25
257 1 0.625 0.333333 0.125
258 1 0.75 0.25 0.125
259 1 0.75 0.333333 2.4945e-10
260 1 0.875 0.25 2.4945e-10
261 1 0.125 0.333333 0.875
262 1 0.25 0.25 0.875
263 1 0.25 0.333333 0.75
264 1 0.375 0.25 0.75
265 1 0.375 0.333333 0.625
266 1 0.5 0.25 0.625
267 1 0.5 0.333333 0.5
268 1 0.625 0.25 0.5
269 1 0.625 0.333333 0.375
270 1 0.75 0.25 0.375
271 1 0.75 0.333333 0.25
272 1 0.875 0.25 0.25
273 1 0.875 0.333333 0.125
274 1 0.375 0.333333 0.875
275 1 0.5 0.25 0.875
276 1 0.5 0.333333 0.75
277 1 0.625 0.25 0.75
278 1 0.625 0.333333 0.625
279 1 0.75 0.25 0.625
280 1 0.75 0.333333 0.5
281 1 0.875 0.25 0.5
282 1 0.875 0.333333 0.375
283 1 0.625 0.333333 0.875
284 1 0.75 0.25 0.875
285 1 0.75 0.333333 0.75
286 1 0.875 0.25 0.75
287 1 0.875 0.333333 0.625
288 1 0.875 0.333333 0.875
289 1 2.4945e-10 0.0833333 0.125
290 1 2.4945e-10 0.166667 2.4945e-10
291 1 0.125 0.0833333 2.4945e-10
292 1 2.4945e-10 0.0833333 0.375
293 1 2.4945e-10 0.166667 0.25
294 1 0.125 0.0833333 0.25
295 1 0.125 0.166667 0.125
296 1 0.25 0.0833333 0.125
297 1 0.25 0.166667 2.4945e-10
298 1 0.375 0.0833333 2.4945e-10
299 1 2.4945e-10 0.0833333 0.625
300 1 2.4945e-10 0.166667 0.5
301 1 0.125 0.0833333 0.5
302 1 0.125 0.166667 0.375
303 1 0.25 0.0833333 0.375
304 1 0.25 0.166667 0.25
305 1 0.375 0.0833333 0.25
306 1 0.375 0.166667 0.125
307 1 0.5 0.0833333 0.125
308 1 0.5 0.166667 2.4945e-10
309 1 0.625 0.0833333 2.4945e-10
310 1 2.4945e-10 0.0833333 0.875
311 1 2.4945e-10 0.166667 0.75
312 1 0.125 0.0833333 0.75
313 1 0.125 0.166667 0.625
314 1 0.25 0.0833333 0.625
315 1 0.25 0.166667 0.5
316 1 0.375 0.0833333 0.5
317 1 0.375 0.166667 0.375
318 1 0.5 0.0833333 0.375
319 1 0.5 0.166667 0.25
320 1 0.625 0.0833333 0.25
321 1 0.625 0.166667 0.125
322 1 0.75 0.0833333 0.125
323 1 0.75 0.166667 2.4945e-10
324 1 0.875 0.0833333 2.4945e-10
325 1 0.125 0.166667 0.875
326 1 0.25 0.0833333 0.875
327 1 0.25 0.166667 0.75
328 1 0.375 0.0833333 0.75
329 1 0.375 0.166667 0.625
330 1 0.5 0.0833333 0.625
331 1 0.5 0.166667 0.5
332 1 0.625 0.0833333 0.5
333 1 0.625 0.166667 0.375
334 1 0.75 0.0833333 0.375
335 1 0.75 0.166667 0.25
336 1 0.875 0.0833333 0.25
337 1 0.875 0.166667 0.125
338 1 0.375 0.166667 0.875
339 1 0.5 0.0833333 0.875
340 1 0.5 0.166667 0.75
341 1 0.625 0.0833333 0.75
342 1 0.625 0.166667 0.625
343 1 0.75 0.0833333 0.625
344 1 0.75 0.166667 0.5
345 1 0.875 0.0833333 0.5
346 1 0.875 0.166667 0.375
347 1 0.625 0.166667 0.875
348 1 0.75 0.0833333 0.875
349 1 0.75 0.166667 0.75
350 1 0.875 0.0833333 0.75
351 1 0.875 0.166667 0.625
352 1 0.875 0.166667 0.875
353 1 2.4945e-10 1.66321e-10 2.4945e-10
354 1 2.4945e-10 1.66321e-10 0.25
355 1 0.125 1.66321e-10 0.125
356 1 0.25 1.66321e-10 2.4945e-10
357 1 2.4945e-10 1.66321e-10 0.5
358 1 0.125 1.66321e-10 0.375
359 1 0.25 1.66321e-10 0.25
360 1 0.375 1.66321e-10 0.125
361 1 0.5 1.66321e-10 2.4945e-10
362 1 2.4945e-10 1.66321e-10 0.75
363 1 0.125 1.66321e-10 0.625
364 1 0.25 1.66321e-10 0.5
365 1 0.375 1.66321e-10 0.375
366 1 0.5 1.66321e-10 0.25
367 1 0.625 1.66321e-10 0.125
368 1 0.75 1.66321e-10 2.4945e-10
369 1 0.125 1.66321e-10 0.875
370 1 0.25 1.66321e-10 0.75
371 1 0.375 1.66321e-10 0.625
372 1 0.5 1.66321e-10 0.5
373 1 0.625 1.66321e-10 0.375
374 1 0.75 1.66321e-10 0.25
375 1 0.875 1.66321e-10 0.125
376 1 0.375 1.66321e-10 0.875
377 1 0.5 1.66321e-10 0.75
378 1 0.625 1.66321e-10 0.625
379 1 0.75 1.66321e-10 0.5
380 1 0.875 1.66321e-10 0.375
381 1 0.625 1.66321e-10 0.875
382 1 0.75 1.66321e-10 0.75
383 1 0.875 1.66321e-10 0.625
384 1 0.875 1.66321e-10 0.875
