ITEM: TIMESTEP
3
ITEM: NUMBER OF ATOMS
686
ITEM: BOX BOUNDS pp pp pp
2.1759557515756509e-03 2.2011725044248422e+01
2.1759557515757090e-03 2.2011725044248422e+01
2.1759557515757121e-03 2.2011725044248422e+01
ITEM: ATOMS id type xs ys zs
1 1 5.91126e-20 5.91126e-20 9.85211e-20
2 1 0.0714286 0.0714286 0.0714286
3 1 0.142857 5.91126e-20 9.85211e-20
4 1 0.214286 0.0714286 0.0714286
5 1 0.285714 5.91126e-20 9.85211e-20
6 1 0.357143 0.0714286 0.0714286
7 1 0.428571 5.91126e-20 9.85211e-20
8 1 0.5 0.0714286 0.0714286
9 1 0.571429 5.91126e-20 9.85211e-20
10 1 0.642857 0.0714286 0.0714286
11 1 0.714286 5.91126e-20 9.85211e-20
12 1 0.785714 0.0714286 0.0714286
13 1 0.857143 5.91126e-20 9.85211e-20
14 1 0.928571 0.0714286 0.0714286
15 1 5.91126e-20 0.142857 9.85211e-20
16 1 0.0714286 0.214286 0.0714286
17 1 0.142857 0.142857 9.85211e-20
18 1 0.214286 0.214286 0.0714286
19 1 0.285714 0.142857 9.85211e-20
20 1 0.357143 0.214286 0.0714286
21 1 0.428571 0.142857 9.85211e-20
22 1 0.5 0.214286 0.0714286
23 1 0.571429 0.142857 9.85211e-20
24 1 0.642857 0.214286 0.0714286
25 1 0.714286 0.142857 9.85211e-20
26 1 0.785714 0.214286 0.0714286
27 1 0.857143 0.142857 9.85211e-20
28 1 0.928571 0.214286 0.0714286
29 1 5.91126e-20 0.285714 9.85211e-20
30 1 0.0714286 0.357143 0.0714286
31 1 0.142857 0.285714 9.85211e-20
32 1 0.214286 0.357143 0.0714286
33 1 0.285714 0.285714 9.85211e-20
34 1 0.357143 0.357143 0.0714286
35 1 0.428571 0.285714 9.85211e-20
36 1 0.5 0.357143 0.0714286
37 1 0.571429 0.285714 9.85211e-20
38 1 0.642857 0.357143 0.0714286
39 1 0.714286 0.285714 9.85211e-20
40 1 0.785714 0.357143 0.0714286
41 1 0.857143 0.285714 9.85211e-20
42 1 0.928571 0.357143 0.0714286
43 1 5.91126e-20 0.428571 9.85211e-20
44 1 0.142857 0.428571 9.85211e-20
45 1 0.285714 0.428571 9.85211e-20
46 1 0.428571 0.428571 9.85211e-20
47 1 0.571429 0.428571 9.85211e-20
48 1 0.714286 0.428571 9.85211e-20
49 1 0.857143 0.428571 9.85211e-20
50 1 5.91126e-20 5.91126e-20 0.142857
51 1 0.0714286 0.0714286 0.214286
52 1 0.142857 5.91126e-20 0.142857
53 1 0.214286 0.0714286 0.214286
54 1 0.285714 5.91126e-20 0.142857
55 1 0.357143 0.0714286 0.214286
56 1 0.428571 5.91126e-20 0.142857
57 1 0.5 0.0714286 0.214286
58 1 0.571429 5.91126e-20 0.142857
59 1 0.642857 0.0714286 0.214286
60 1 0.714286 5.91126e-20 0.142857
61 1 0.785714 0.0714286 0.214286
62 1 0.857143 5.91126e-20 0.142857
63 1 0.928571 0.0714286 0.214286
64 1 5.91126e-20 0.142857 0.142857
65 1 0.0714286 0.214286 0.214286
66 1 0.142857 0.142857 0.142857
67 1 0.214286 0.214286 0.214286
68 1 0.285714 0.142857 0.142857
69 1 0.357143 0.214286 0.214286
70 1 0.428571 0.142857 0.142857
71 1 0.5 0.214286 0.214286
72 1 0.571429 0.142857 0.142857
73 1 0.642857 0.214286 0.214286
74 1 0.714286 0.142857 0.142857
75 1 0.785714 0.214286 0.214286
76 1 0.857143 0.142857 0.142857
77 1 0.928571 0.214286 0.214286
78 1 5.91126e-20 0.285714 0.142857
79 1 0.0714286 0.357143 0.214286
80 1 0.142857 0.285714 0.142857
81 1 0.214286 0.357143 0.214286
82 1 0.285714 0.285714 0.142857
83 1 0.357143 0.357143 0.214286
84 1 0.428571 0.285714 0.142857
85 1 0.5 0.357143 0.214286
86 1 0.571429 0.285714 0.142857
87 1 0.642857 0.357143 0.214286
88 1 0.714286 0.285714 0.142857
89 1 0.785714 0.357143 0.214286
90 1 0.857143 0.285714 0.142857
91 1 0.928571 0.357143 0.214286
92 1 5.91126e-20 0.428571 0.142857
93 1 0.142857 0.428571 0.142857
94 1 0.285714 0.428571 0.142857
95 1 0.428571 0.428571 0.142857
96 1 0.571429 0.428571 0.142857
97 1 0.714286 0.428571 0.142857
98 1 0.857143 0.428571 0.142857
99 1 5.91126e-20 5.91126e-20 0.285714
100 1 0.142857 5.91126e-20 0.285714
101 1 0.285714 5.91126e-20 0.285714
102 1 0.428571 5.91126e-20 0.285714
103 1 0.571429 5.91126e-20 0.285714
104 1 0.714286 5.91126e-20 0.285714
105 1 0.857143 5.91126e-20 0.285714
106 1 5.91126e-20 0.142857 0.285714
107 1 0.142857 0.142857 0.285714
108 1 0.285714 0.142857 0.285714
109 1 0.428571 0.142857 0.285714
110 1 0.571429 0.142857 0.285714
111 1 0.714286 0.142857 0.285714
112 1 0.857143 0.142857 0.285714
113 1 5.91126e-20 0.285714 0.285714
114 1 0.142857 0.285714 0.285714
115 1 0.285714 0.285714 0.285714
116 1 0.428571 0.285714 0.285714
117 1 0.571429 0.285714 0.285714
118 1 0.714286 0.285714 0.285714
119 1 0.857143 0.285714 0.285714
120 1 5.91126e-20 0.428571 0.285714
121 1 0.142857 0.428571 0.285714
122 1 0.285714 0.428571 0.285714
123 1 0.428571 0.428571 0.285714
124 1 0.571429 0.428571 0.285714
125 1 0.714286 0.428571 0.285714
126 1 0.857143 0.428571 0.285714
127 1 0.0714286 0.0714286 0.357143
128 1 0.214286 0.0714286 0.357143
129 1 0.357143 0.0714286 0.357143
130 1 0.5 0.0714286 0.357143
131 1 0.642857 0.0714286 0.357143
132 1 0.785714 0.0714286 0.357143
133 1 0.928571 0.0714286 0.357143
134 1 0.0714286 0.214286 0.357143
135 1 0.214286 0.214286 0.357143
136 1 0.357143 0.214286 0.357143
137 1 0.5 0.214286 0.357143
138 1 0.642857 0.214286 0.357143
139 1 0.785714 0.214286 0.357143
140 1 0.928571 0.214286 0.357143
141 1 0.0714286 0.357143 0.357143
142 1 0.214286 0.357143 0.357143
143 1 0.357143 0.357143 0.357143
144 1 0.5 0.357143 0.357143
145 1 0.642857 0.357143 0.357143
146 1 0.785714 0.357143 0.357143
147 1 0.928571 0.357143 0.357143
148 1 5.91126e-20 5.91126e-20 0.428571
149 1 0.0714286 0.0714286 0.5
150 1 0.142857 5.91126e-20 0.428571
151 1 0.214286 0.0714286 0.5
152 1 0.285714 5.91126e-20 0.428571
153 1 0.357143 0.0714286 0.5
154 1 0.428571 5.91126e-20 0.428571
155 1 0.5 0.0714286 0.5
156 1 0.571429 5.91126e-20 0.428571
157 1 0.642857 0.0714286 0.5
158 1 0.714286 5.91126e-20 0.428571
159 1 0.785714 0.0714286 0.5
160 1 0.857143 5.91126e-20 0.428571
161 1 0.928571 0.0714286 0.5
162 1 5.91126e-20 0.142857 0.428571
163 1 0.0714286 0.214286 0.5
164 1 0.142857 0.142857 0.428571
165 1 0.214286 0.214286 0.5
166 1 0.285714 0.142857 0.428571
167 1 0.357143 0.214286 0.5
168 1 0.428571 0.142857 0.428571
169 1 0.5 0.214286 0.5
170 1 0.571429 0.142857 0.428571
171 1 0.642857 0.214286 0.5
172 1 0.714286 0.142857 0.428571
173 1 0.785714 0.214286 0.5
174 1 0.857143 0.142857 0.428571
175 1 0.928571 0.214286 0.5
176 1 5.91126e-20 0.285714 0.428571
177 1 0.0714286 0.357143 0.5
178 1 0.142857 0.285714 0.428571
179 1 0.214286 0.357143 0.5
180 1 0.285714 0.285714 0.428571
181 1 0.357143 0.357143 0.5
182 1 0.428571 0.285714 0.428571
183 1 0.5 0.357143 0.5
184 1 0.571429 0.285714 0.428571
185 1 0.642857 0.357143 0.5
186 1 0.714286 0.285714 0.428571
187 1 0.785714 0.357143 0.5
188 1 0.857143 0.285714 0.428571
189 1 0.928571 0.357143 0.5
190 1 5.91126e-20 0.428571 0.428571
191 1 0.142857 0.428571 0.428571
192 1 0.285714 0.428571 0.428571
193 1 0.428571 0.428571 0.428571
194 1 0.571429 0.428571 0.428571
195 1 0.714286 0.428571 0.428571
196 1 0.857143 0.428571 0.428571
197 1 5.91126e-20 5.91126e-20 0.571429
198 1 0.0714286 0.0714286 0.642857
199 1 0.142857 5.91126e-20 0.571429
200 1 0.214286 0.0714286 0.642857
201 1 0.285714 5.91126e-20 0.571429
202 1 0.357143 0.0714286 0.642857
203 1 0.428571 5.91126e-20 0.571429
204 1 0.5 0.0714286 0.642857
205 1 0.571429 5.91126e-20 0.571429
206 1 0.642857 0.0714286 0.642857
207 1 0.714286 5.91126e-20 0.571429
208 1 0.785714 0.0714286 0.642857
209 1 0.857143 5.91126e-20 0.571429
210 1 0.928571 0.0714286 0.642857
211 1 5.91126e-20 0.142857 0.571429
212 1 0.0714286 0.214286 0.642857
213 1 0.142857 0.142857 0.571429
214 1 0.214286 0.214286 0.642857
215 1 0.285714 0.142857 0.571429
216 1 0.357143 0.214286 0.642857
217 1 0.428571 0.142857 0.571429
218 1 0.5 0.214286 0.642857
219 1 0.571429 0.142857 0.571429
220 1 0.642857 0.214286 0.642857
221 1 0.714286 0.142857 0.571429
222 1 0.785714 0.214286 0.642857
223 1 0.857143 0.142857 0.571429
224 1 0.928571 0.214286 0.642857
225 1 5.91126e-20 0.285714 0.571429
226 1 0.0714286 0.357143 0.642857
227 1 0.142857 0.285714 0.571429
228 1 0.214286 0.357143 0.642857
229 1 0.285714 0.285714 0.571429
230 1 0.357143 0.357143 0.642857
231 1 0.428571 0.285714 0.571429
232 1 0.5 0.357143 0.642857
233 1 0.571429 0.285714 0.571429
234 1 0.642857 0.357143 0.642857
235 1 0.714286 0.285714 0.571429
236 1 0.785714 0.357143 0.642857
237 1 0.857143 0.285714 0.571429
238 1 0.928571 0.357143 0.642857
239 1 5.91126e-20 0.428571 0.571429
240 1 0.142857 0.428571 0.571429
241 1 0.285714 0.428571 0.571429
242 1 0.428571 0.428571 0.571429
243 1 0.571429 0.428571 0.571429
244 1 0.714286 0.428571 0.571429
245 1 0.857143 0.428571 0.571429
246 1 5.91126e-20 5.91126e-20 0.714286
247 1 0.0714286 0.0714286 0.785714
248 1 0.142857 5.91126e-20 0.714286
249 1 0.214286 0.0714286 0.785714
250 1 0.285714 5.91126e-20 0.714286
251 1 0.357143 0.0714286 0.785714
252 1 0.428571 5.91126e-20 0.714286
253 1 0.5 0.0714286 0.785714
254 1 0.571429 5.91126e-20 0.714286
255 1 0.642857 0.0714286 0.785714
256 1 0.714286 5.91126e-20 0.714286
257 1 0.785714 0.0714286 0.785714
258 1 0.857143 5.91126e-20 0.714286
259 1 0.928571 0.0714286 0.785714
260 1 5.91126e-20 0.142857 0.714286
261 1 0.0714286 0.214286 0.785714
262 1 0.142857 0.142857 0.714286
263 1 0.214286 0.214286 0.785714
264 1 0.285714 0.142857 0.714286
265 1 0.357143 0.214286 0.785714
266 1 0.428571 0.142857 0.714286
267 1 0.5 0.214286 0.785714
268 1 0.571429 0.142857 0.714286
269 1 0.642857 0.214286 0.785714
270 1 0.714286 0.142857 0.714286
271 1 0.785714 0.214286 0.785714
272 1 0.857143 0.142857 0.714286
273 1 0.928571 0.214286 0.785714
274 1 5.91126e-20 0.285714 0.714286
275 1 0.0714286 0.357143 0.785714
276 1 0.142857 0.285714 0.714286
277 1 0.214286 0.357143 0.785714
278 1 0.285714 0.285714 0.714286
279 1 0.357143 0.357143 0.785714
280 1 0.428571 0.285714 0.714286
281 1 0.5 0.357143 0.785714
282 1 0.571429 0.285714 0.714286
283 1 0.642857 0.357143 0.785714
284 1 0.714286 0.285714 0.714286
285 1 0.785714 0.357143 0.785714
286 1 0.857143 0.285714 0.714286
287 1 0.928571 0.357143 0.785714
288 1 5.91126e-20 0.428571 0.714286
289 1 0.142857 0.428571 0.714286
290 1 0.285714 0.428571 0.714286
291 1 0.428571 0.428571 0.714286
292 1 0.571429 0.428571 0.714286
293 1 0.714286 0.428571 0.714286
294 1 0.857143 0.428571 0.714286
295 1 5.91126e-20 5.91126e-20 0.857143
296 1 0.0714286 0.0714286 0.928571
297 1 0.142857 5.91126e-20 0.857143
298 1 0.214286 0.0714286 0.928571
299 1 0.285714 5.91126e-20 0.857143
300 1 0.357143 0.0714286 0.928571
301 1 0.428571 5.91126e-20 0.857143
302 1 0.5 0.0714286 0.928571
303 1 0.571429 5.91126e-20 0.857143
304 1 0.642857 0.0714286 0.928571
305 1 0.714286 5.91126e-20 0.857143
306 1 0.785714 0.0714286 0.928571
307 1 0.857143 5.91126e-20 0.857143
308 1 0.928571 0.0714286 0.928571
309 1 5.91126e-20 0.142857 0.857143
310 1 0.0714286 0.214286 0.928571
311 1 0.142857 0.142857 0.857143
312 1 0.214286 0.214286 0.928571
313 1 0.285714 0.142857 0.857143
314 1 0.357143 0.214286 0.928571
315 1 0.428571 0.142857 0.857143
316 1 0.5 0.214286 0.928571
317 1 0.571429 0.142857 0.857143
318 1 0.642857 0.214286 0.928571
319 1 0.714286 0.142857 0.857143
320 1 0.785714 0.214286 0.928571
321 1 0.857143 0.142857 0.857143
322 1 0.928571 0.214286 0.928571
323 1 5.91126e-20 0.285714 0.857143
324 1 0.0714286 0.357143 0.928571
325 1 0.142857 0.285714 0.857143
326 1 0.214286 0.357143 0.928571
327 1 0.285714 0.285714 0.857143
328 1 0.357143 0.357143 0.928571
329 1 0.428571 0.285714 0.857143
330 1 0.5 0.357143 0.928571
331 1 0.571429 0.285714 0.857143
332 1 0.642857 0.357143 0.928571
333 1 0.714286 0.285714 0.857143
334 1 0.785714 0.357143 0.928571
335 1 0.857143 0.285714 0.857143
336 1 0.928571 0.357143 0.928571
337 1 5.91126e-20 0.428571 0.857143
338 1 0.142857 0.428571 0.857143
339 1 0.285714 0.428571 0.857143
340 1 0.428571 0.428571 0.857143
341 1 0.571429 0.428571 0.857143
342 1 0.714286 0.428571 0.857143
343 1 0.857143 0.428571 0.857143
344 1 0.0714286 0.5 0.0714286
345 1 0.214286 0.5 0.0714286
346 1 0.357143 0.5 0.0714286
347 1 0.5 0.5 0.0714286
348 1 0.642857 0.5 0.0714286
349 1 0.785714 0.5 0.0714286
350 1 0.928571 0.5 0.0714286
351 1 5.91126e-20 0.571429 9.85211e-20
352 1 0.0714286 0.642857 0.0714286
353 1 0.142857 0.571429 9.85211e-20
354 1 0.214286 0.642857 0.0714286
355 1 0.285714 0.571429 9.85211e-20
356 1 0.357143 0.642857 0.0714286
357 1 0.428571 0.571429 9.85211e-20
358 1 0.5 0.642857 0.0714286
359 1 0.571429 0.571429 9.85211e-20
360 1 0.642857 0.642857 0.0714286
361 1 0.714286 0.571429 9.85211e-20
362 1 0.785714 0.642857 0.0714286
363 1 0.857143 0.571429 9.85211e-20
364 1 0.928571 0.642857 0.0714286
365 1 5.91126e-20 0.714286 9.85211e-20
366 1 0.0714286 0.785714 0.0714286
367 1 0.142857 0.714286 9.85211e-20
368 1 0.214286 0.785714 0.0714286
369 1 0.285714 0.714286 9.85211e-20
370 1 0.357143 0.785714 0.0714286
371 1 0.428571 0.714286 9.85211e-20
372 1 0.5 0.785714 0.0714286
373 1 0.571429 0.714286 9.85211e-20
374 1 0.642857 0.785714 0.0714286
375 1 0.714286 0.714286 9.85211e-20
376 1 0.785714 0.785714 0.0714286
377 1 0.857143 0.714286 9.85211e-20
378 1 0.928571 0.785714 0.0714286
379 1 5.91126e-20 0.857143 9.85211e-20
380 1 0.0714286 0.928571 0.0714286
381 1 0.142857 0.857143 9.85211e-20
382 1 0.214286 0.928571 0.0714286
383 1 0.285714 0.857143 9.85211e-20
384 1 0.357143 0.928571 0.0714286
385 1 0.428571 0.857143 9.85211e-20
386 1 0.5 0.928571 0.0714286
387 1 0.571429 0.857143 9.85211e-20
388 1 0.642857 0.928571 0.0714286
389 1 0.714286 0.857143 9.85211e-20
390 1 0.785714 0.928571 0.0714286
391 1 0.857143 0.857143 9.85211e-20
392 1 0.928571 0.928571 0.0714286
393 1 0.0714286 0.5 0.214286
394 1 0.214286 0.5 0.214286
395 1 0.357143 0.5 0.214286
396 1 0.5 0.5 0.214286
397 1 0.642857 0.5 0.214286
398 1 0.785714 0.5 0.214286
399 1 0.928571 0.5 0.214286
400 1 5.91126e-20 0.571429 0.142857
401 1 0.0714286 0.642857 0.214286
402 1 0.142857 0.571429 0.142857
403 1 0.214286 0.642857 0.214286
404 1 0.285714 0.571429 0.142857
405 1 0.357143 0.642857 0.214286
406 1 0.428571 0.571429 0.142857
407 1 0.5 0.642857 0.214286
408 1 0.571429 0.571429 0.142857
409 1 0.642857 0.642857 0.214286
410 1 0.714286 0.571429 0.142857
411 1 0.785714 0.642857 0.214286
412 1 0.857143 0.571429 0.142857
413 1 0.928571 0.642857 0.214286
414 1 5.91126e-20 0.714286 0.142857
415 1 0.0714286 0.785714 0.214286
416 1 0.142857 0.714286 0.142857
417 1 0.214286 0.785714 0.214286
418 1 0.285714 0.714286 0.142857
419 1 0.357143 0.785714 0.214286
420 1 0.428571 0.714286 0.142857
421 1 0.5 0.785714 0.214286
422 1 0.571429 0.714286 0.142857
423 1 0.642857 0.785714 0.214286
424 1 0.714286 0.714286 0.142857
425 1 0.785714 0.785714 0.214286
426 1 0.857143 0.714286 0.142857
427 1 0.928571 0.785714 0.214286
428 1 5.91126e-20 0.857143 0.142857
429 1 0.0714286 0.928571 0.214286
430 1 0.142857 0.857143 0.142857
431 1 0.214286 0.928571 0.214286
432 1 0.285714 0.857143 0.142857
433 1 0.357143 0.928571 0.214286
434 1 0.428571 0.857143 0.142857
435 1 0.5 0.928571 0.214286
436 1 0.571429 0.857143 0.142857
437 1 0.642857 0.928571 0.214286
438 1 0.714286 0.857143 0.142857
439 1 0.785714 0.928571 0.214286
440 1 0.857143 0.857143 0.142857
441 1 0.928571 0.928571 0.214286
442 1 5.91126e-20 0.571429 0.285714
443 1 0.142857 0.571429 0.285714
444 1 0.285714 0.571429 0.285714
445 1 0.428571 0.571429 0.285714
446 1 0.571429 0.571429 0.285714
447 1 0.714286 0.571429 0.285714
448 1 0.857143 0.571429 0.285714
449 1 5.91126e-20 0.714286 0.285714
450 1 0.142857 0.714286 0.285714
451 1 0.285714 0.714286 0.285714
452 1 0.428571 0.714286 0.285714
453 1 0.571429 0.714286 0.285714
454 1 0.714286 0.714286 0.285714
455 1 0.857143 0.714286 0.285714
456 1 5.91126e-20 0.857143 0.285714
457 1 0.142857 0.857143 0.285714
458 1 0.285714 0.857143 0.285714
459 1 0.428571 0.857143 0.285714
460 1 0.571429 0.857143 0.285714
461 1 0.714286 0.857143 0.285714
462 1 0.857143 0.857143 0.285714
463 1 0.0714286 0.5 0.357143
464 1 0.214286 0.5 0.357143
465 1 0.357143 0.5 0.357143
466 1 0.5 0.5 0.357143
467 1 0.642857 0.5 0.357143
468 1 0.785714 0.5 0.357143
469 1 0.928571 0.5 0.357143
470 1 0.0714286 0.642857 0.357143
471 1 0.214286 0.642857 0.357143
472 1 0.357143 0.642857 0.357143
473 1 0.5 0.642857 0.357143
474 1 0.642857 0.642857 0.357143
475 1 0.785714 0.642857 0.357143
476 1 0.928571 0.642857 0.357143
477 1 0.0714286 0.785714 0.357143
478 1 0.214286 0.785714 0.357143
479 1 0.357143 0.785714 0.357143
480 1 0.5 0.785714 0.357143
481 1 0.642857 0.785714 0.357143
482 1 0.785714 0.785714 0.357143
483 1 0.928571 0.785714 0.357143
484 1 0.0714286 0.928571 0.357143
485 1 0.214286 0.928571 0.357143
486 1 0.357143 0.928571 0.357143
487 1 0.5 0.928571 0.357143
488 1 0.642857 0.928571 0.357143
489 1 0.785714 0.928571 0.357143
490 1 0.928571 0.928571 0.357143
491 1 0.0714286 0.5 0.5
492 1 0.214286 0.5 0.5
493 1 0.357143 0.5 0.5
494 1 0.5 0.5 0.5
495 1 0.642857 0.5 0.5
496 1 0.785714 0.5 0.5
497 1 0.928571 0.5 0.5
498 1 5.91126e-20 0.571429 0.428571
499 1 0.0714286 0.642857 0.5
500 1 0.142857 0.571429 0.428571
501 1 0.214286 0.642857 0.5
502 1 0.285714 0.571429 0.428571
503 1 0.357143 0.642857 0.5
504 1 0.428571 0.571429 0.428571
505 1 0.5 0.642857 0.5
506 1 0.571429 0.571429 0.428571
507 1 0.642857 0.642857 0.5
508 1 0.714286 0.571429 0.428571
509 1 0.785714 0.642857 0.5
510 1 0.857143 0.571429 0.428571
511 1 0.928571 0.642857 0.5
512 1 5.91126e-20 0.714286 0.428571
513 1 0.0714286 0.785714 0.5
514 1 0.142857 0.714286 0.428571
515 1 0.214286 0.785714 0.5
516 1 0.285714 0.714286 0.428571
517 1 0.357143 0.785714 0.5
518 1 0.428571 0.714286 0.428571
519 1 0.5 0.785714 0.5
520 1 0.571429 0.714286 0.428571
521 1 0.642857 0.785714 0.5
522 1 0.714286 0.714286 0.428571
523 1 0.785714 0.785714 0.5
524 1 0.857143 0.714286 0.428571
525 1 0.928571 0.785714 0.5
526 1 5.91126e-20 0.857143 0.428571
527 1 0.0714286 0.928571 0.5
528 1 0.142857 0.857143 0.428571
529 1 0.214286 0.928571 0.5
530 1 0.285714 0.857143 0.428571
531 1 0.357143 0.928571 0.5
532 1 0.428571 0.857143 0.428571
533 1 0.5 0.928571 0.5
534 1 0.571429 0.857143 0.428571
535 1 0.642857 0.928571 0.5
536 1 0.714286 0.857143 0.428571
537 1 0.785714 0.928571 0.5
538 1 0.857143 0.857143 0.428571
539 1 0.928571 0.928571 0.5
540 1 0.0714286 0.5 0.642857
541 1 0.214286 0.5 0.642857
542 1 0.357143 0.5 0.642857
543 1 0.5 0.5 0.642857
544 1 0.642857 0.5 0.642857
545 1 0.785714 0.5 0.642857
546 1 0.928571 0.5 0.642857
547 1 5.91126e-20 0.571429 0.571429
548 1 0.0714286 0.642857 0.642857
549 1 0.142857 0.571429 0.571429
550 1 0.214286 0.642857 0.642857
551 1 0.285714 0.571429 0.571429
552 1 0.357143 0.642857 0.642857
553 1 0.428571 0.571429 0.571429
554 1 0.5 0.642857 0.642857
555 1 0.571429 0.571429 0.571429
556 1 0.642857 0.642857 0.642857
557 1 0.714286 0.571429 0.571429
558 1 0.785714 0.642857 0.642857
559 1 0.857143 0.571429 0.571429
560 1 0.928571 0.642857 0.642857
561 1 5.91126e-20 0.714286 0.571429
562 1 0.0714286 0.785714 0.642857
563 1 0.142857 0.714286 0.571429
564 1 0.214286 0.785714 0.642857
565 1 0.285714 0.714286 0.571429
566 1 0.357143 0.785714 0.642857
567 1 0.428571 0.714286 0.571429
568 1 0.5 0.785714 0.642857
569 1 0.571429 0.714286 0.571429
570 1 0.642857 0.785714 0.642857
571 1 0.714286 0.714286 0.571429
572 1 0.785714 0.785714 0.642857
573 1 0.857143 0.714286 0.571429
574 1 0.928571 0.785714 0.642857
575 1 5.91126e-20 0.857143 0.571429
576 1 0.0714286 0.928571 0.642857
577 1 0.142857 0.857143 0.571429
578 1 0.214286 0.928571 0.642857
579 1 0.285714 0.857143 0.571429
580 1 0.357143 0.928571 0.642857
581 1 0.428571 0.857143 0.571429
582 1 0.5 0.928571 0.642857
583 1 0.571429 0.857143 0.571429
584 1 0.642857 0.928571 0.642857
585 1 0.714286 0.857143 0.571429
586 1 0.785714 0.928571 0.642857
587 1 0.857143 0.857143 0.571429
588 1 0.928571 0.928571 0.642857
589 1 0.0714286 0.5 0.785714
590 1 0.214286 0.5 0.785714
591 1 0.357143 0.5 0.785714
592 1 0.5 0.5 0.785714
593 1 0.642857 0.5 0.785714
594 1 0.785714 0.5 0.785714
595 1 0.928571 0.5 0.785714
596 1 5.91126e-20 0.571429 0.714286
597 1 0.0714286 0.642857 0.785714
598 1 0.142857 0.571429 0.714286
599 1 0.214286 0.642857 0.785714
600 1 0.285714 0.571429 0.714286
601 1 0.357143 0.642857 0.785714
602 1 0.428571 0.571429 0.714286
603 1 0.5 0.642857 0.785714
604 1 0.571429 0.571429 0.714286
605 1 0.642857 0.642857 0.785714
606 1 0.714286 0.571429 0.714286
607 1 0.785714 0.642857 0.785714
608 1 0.857143 0.571429 0.714286
609 1 0.928571 0.642857 0.785714
610 1 5.91126e-20 0.714286 0.714286
611 1 0.0714286 0.785714 0.785714
612 1 0.142857 0.714286 0.714286
613 1 0.214286 0.785714 0.785714
614 1 0.285714 0.714286 0.714286
615 1 0.357143 0.785714 0.785714
616 1 0.428571 0.714286 0.714286
617 1 0.5 0.785714 0.785714
618 1 0.571429 0.714286 0.714286
619 1 0.642857 0.785714 0.785714
620 1 0.714286 0.714286 0.714286
621 1 0.785714 0.785714 0.785714
622 1 0.857143 0.714286 0.714286
623 1 0.928571 0.785714 0.785714
624 1 5.91126e-20 0.857143 0.714286
625 1 0.0714286 0.928571 0.785714
626 1 0.142857 0.857143 0.714286
627 1 0.214286 0.928571 0.785714
628 1 0.285714 0.857143 0.714286
629 1 0.357143 0.928571 0.785714
630 1 0.428571 0.857143 0.714286
631 1 0.5 0.928571 0.785714
632 1 0.571429 0.857143 0.714286
633 1 0.642857 0.928571 0.785714
634 1 0.714286 0.857143 0.714286
635 1 0.785714 0.928571 0.785714
636 1 0.857143 0.857143 0.714286
637 1 0.928571 0.928571 0.785714
638 1 0.0714286 0.5 0.928571
639 1 0.214286 0.5 0.928571
640 1 0.357143 0.5 0.928571
641 1 0.5 0.5 0.928571
642 1 0.642857 0.5 0.928571
643 1 0.785714 0.5 0.928571
644 1 0.928571 0.5 0.928571
645 1 5.91126e-20 0.571429 0.857143
646 1 0.0714286 0.642857 0.928571
647 1 0.142857 0.571429 0.857143
648 1 0.214286 0.642857 0.928571
649 1 0.285714 0.571429 0.857143
650 1 0.357143 0.642857 0.928571
651 1 0.428571 0.571429 0.857143
652 1 0.5 0.642857 0.928571
653 1 0.571429 0.571429 0.857143
654 1 0.642857 0.642857 0.928571
655 1 0.714286 0.571429 0.857143
656 1 0.785714 0.642857 0.928571
657 1 0.857143 0.571429 0.857143
658 1 0.928571 0.642857 0.928571
659 1 5.91126e-20 0.714286 0.857143
660 1 0.0714286 0.785714 0.928571
661 1 0.142857 0.714286 0.857143
662 1 0.214286 0.785714 0.928571
663 1 0.285714 0.714286 0.857143
664 1 0.357143 0.785714 0.928571
665 1 0.428571 0.714286 0.857143
666 1 0.5 0.785714 0.928571
667 1 0.571429 0.714286 0.857143
668 1 0.642857 0.785714 0.928571
669 1 0.714286 0.714286 0.857143
670 1 0.785714 0.785714 0.928571
671 1 0.857143 0.714286 0.857143
672 1 0.928571 0.785714 0.928571
673 1 5.91126e-20 0.857143 0.857143
674 1 0.0714286 0.928571 0.928571
675 1 0.142857 0.857143 0.857143
676 1 0.214286 0.928571 0.928571
677 1 0.285714 0.857143 0.857143
678 1 0.357143 0.928571 0.928571
679 1 0.428571 0.857143 0.857143
680 1 0.5 0.928571 0.928571
681 1 0.571429 0.857143 0.857143
682 1 0.642857 0.928571 0.928571
683 1 0.714286 0.857143 0.857143
684 1 0.785714 0.928571 0.928571
685 1 0.857143 0.857143 0.857143
686 1 0.928571 0.928571 0.928571
