ITEM: TIMESTEP
8
ITEM: NUMBER OF ATOMS
686
ITEM: BOX BOUNDS pp pp pp
-8.8288187926721801e-03 2.2022729818792669e+01
-8.8288187926721801e-03 2.2022729818792669e+01
-8.8288187926721801e-03 2.2022729818792669e+01
ITEM: ATOMS id type xs ys zs
1 1 3.57101e-05 3.57101e-05 3.57101e-05
2 1 0.0714635 0.0714635 0.0714635
3 1 0.142891 3.55763e-05 3.55763e-05
4 1 0.21432 0.0714637 0.0714637
5 1 0.285749 3.56972e-05 3.56972e-05
6 1 0.357178 0.0714636 0.0714636
7 1 0.428607 3.56421e-05 3.56421e-05
15 1 3.55763e-05 0.142891 3.55763e-05
16 1 0.0714637 0.21432 0.0714637
17 1 0.142892 0.142892 3.54586e-05
18 1 0.21432 0.21432 0.0714639
19 1 0.285748 0.142892 3.55679e-05
20 1 0.357178 0.21432 0.0714638
21 1 0.428607 0.142891 3.55215e-05
29 1 3.56972e-05 0.285749 3.56972e-05
30 1 0.0714636 0.357178 0.0714636
31 1 0.142892 0.285748 3.55679e-05
32 1 0.21432 0.357178 0.0714638
33 1 0.285749 0.285749 3.57053e-05
34 1 0.357178 0.357178 0.0714637
35 1 0.428607 0.285749 3.56381e-05
43 1 3.56421e-05 0.428607 3.56421e-05
44 1 0.142891 0.428607 3.55215e-05
45 1 0.285749 0.428607 3.56381e-05
46 1 0.428607 0.428607 3.55915e-05
50 1 3.55763e-05 3.55763e-05 0.142891
51 1 0.0714637 0.0714637 0.21432
52 1 0.142892 3.54586e-05 0.142892
53 1 0.21432 0.0714639 0.21432
54 1 0.285748 3.55679e-05 0.142892
55 1 0.357178 0.0714638 0.21432
56 1 0.428607 3.55215e-05 0.142891
64 1 3.54586e-05 0.142892 0.142892
65 1 0.0714639 0.21432 0.21432
66 1 0.142892 0.142892 0.142892
67 1 0.21432 0.21432 0.21432
68 1 0.285748 0.142892 0.142892
69 1 0.357178 0.21432 0.21432
70 1 0.428607 0.142892 0.142892
78 1 3.55679e-05 0.285748 0.142892
79 1 0.0714638 0.357178 0.21432
80 1 0.142892 0.285748 0.142892
81 1 0.21432 0.357178 0.21432
82 1 0.285749 0.285749 0.142892
83 1 0.357178 0.357178 0.21432
84 1 0.428607 0.285749 0.142892
92 1 3.55215e-05 0.428607 0.142891
93 1 0.142892 0.428607 0.142892
94 1 0.285749 0.428607 0.142892
95 1 0.428607 0.428607 0.142891
99 1 3.56972e-05 3.56972e-05 0.285749
100 1 0.142892 3.55679e-05 0.285748
101 1 0.285749 3.57053e-05 0.285749
102 1 0.428607 3.56381e-05 0.285749
106 1 3.55679e-05 0.142892 0.285748
107 1 0.142892 0.142892 0.285748
108 1 0.285749 0.142892 0.285749
109 1 0.428607 0.142892 0.285749
113 1 3.57053e-05 0.285749 0.285749
114 1 0.142892 0.285749 0.285749
115 1 0.285749 0.285749 0.285749
116 1 0.428607 0.285749 0.285749
120 1 3.56381e-05 0.428607 0.285749
121 1 0.142892 0.428607 0.285749
122 1 0.285749 0.428607 0.285749
123 1 0.428607 0.428607 0.285749
344 1 0.0714635 0.500036 0.0714635
345 1 0.21432 0.500036 0.0714637
346 1 0.357178 0.500036 0.0714636
351 1 3.55768e-05 0.571465 3.55768e-05
352 1 0.0714635 0.642894 0.0714635
353 1 0.142891 0.571465 3.54613e-05
354 1 0.21432 0.642894 0.0714637
355 1 0.285748 0.571465 3.55661e-05
356 1 0.357178 0.642894 0.0714636
357 1 0.428607 0.571465 3.55235e-05
365 1 3.55657e-05 0.714323 3.55657e-05
366 1 0.0714635 0.785751 0.0714635
367 1 0.142891 0.714323 3.54649e-05
368 1 0.21432 0.785751 0.0714637
369 1 0.285748 0.714323 3.55567e-05
370 1 0.357178 0.785751 0.0714636
371 1 0.428607 0.714323 3.5514e-05
379 1 3.54566e-05 0.857179 3.54566e-05
380 1 0.0714637 0.928608 0.0714637
381 1 0.142892 0.857179 3.5344e-05
382 1 0.21432 0.928607 0.0714639
383 1 0.285749 0.857179 3.54579e-05
384 1 0.357178 0.928607 0.0714638
385 1 0.428607 0.857179 3.54103e-05
393 1 0.0714637 0.500036 0.21432
394 1 0.21432 0.500036 0.21432
395 1 0.357178 0.500036 0.21432
400 1 3.54613e-05 0.571465 0.142891
401 1 0.0714637 0.642894 0.21432
402 1 0.142892 0.571465 0.142892
403 1 0.21432 0.642894 0.21432
404 1 0.285748 0.571465 0.142892
405 1 0.357178 0.642894 0.21432
406 1 0.428607 0.571465 0.142891
414 1 3.54649e-05 0.714323 0.142891
415 1 0.0714637 0.785751 0.21432
416 1 0.142892 0.714323 0.142892
417 1 0.21432 0.785751 0.21432
418 1 0.285748 0.714323 0.142892
419 1 0.357178 0.785751 0.21432
420 1 0.428607 0.714323 0.142892
428 1 3.5344e-05 0.857179 0.142892
429 1 0.0714639 0.928607 0.21432
430 1 0.142892 0.857179 0.142892
431 1 0.21432 0.928607 0.21432
432 1 0.285748 0.857179 0.142892
433 1 0.357178 0.928607 0.21432
434 1 0.428607 0.857179 0.142892
442 1 3.55661e-05 0.571465 0.285748
443 1 0.142892 0.571465 0.285748
444 1 0.285748 0.571465 0.285748
445 1 0.428607 0.571465 0.285748
449 1 3.55567e-05 0.714323 0.285748
450 1 0.142892 0.714323 0.285748
451 1 0.285749 0.714323 0.285749
452 1 0.428607 0.714323 0.285748
456 1 3.54579e-05 0.857179 0.285749
457 1 0.142892 0.857179 0.285748
458 1 0.285749 0.857179 0.285749
459 1 0.428607 0.857179 0.285749
127 1 0.0714636 0.0714636 0.357178
128 1 0.21432 0.0714638 0.357178
129 1 0.357178 0.0714637 0.357178
134 1 0.0714638 0.21432 0.357178
135 1 0.21432 0.21432 0.357178
136 1 0.357178 0.21432 0.357178
141 1 0.0714637 0.357178 0.357178
142 1 0.21432 0.357178 0.357178
143 1 0.357178 0.357178 0.357178
148 1 3.56421e-05 3.56421e-05 0.428607
149 1 0.0714635 0.0714635 0.500036
150 1 0.142891 3.55215e-05 0.428607
151 1 0.21432 0.0714637 0.500036
152 1 0.285749 3.56381e-05 0.428607
153 1 0.357178 0.0714636 0.500036
154 1 0.428607 3.55915e-05 0.428607
162 1 3.55215e-05 0.142891 0.428607
163 1 0.0714637 0.21432 0.500036
164 1 0.142892 0.142892 0.428607
165 1 0.21432 0.21432 0.500036
166 1 0.285749 0.142892 0.428607
167 1 0.357178 0.21432 0.500036
168 1 0.428607 0.142891 0.428607
176 1 3.56381e-05 0.285749 0.428607
177 1 0.0714636 0.357178 0.500036
178 1 0.142892 0.285749 0.428607
179 1 0.21432 0.357178 0.500036
180 1 0.285749 0.285749 0.428607
181 1 0.357178 0.357178 0.500036
182 1 0.428607 0.285749 0.428607
190 1 3.55915e-05 0.428607 0.428607
191 1 0.142891 0.428607 0.428607
192 1 0.285749 0.428607 0.428607
193 1 0.428607 0.428607 0.428607
197 1 3.55768e-05 3.55768e-05 0.571465
198 1 0.0714635 0.0714635 0.642894
199 1 0.142891 3.54613e-05 0.571465
200 1 0.21432 0.0714637 0.642894
201 1 0.285748 3.55661e-05 0.571465
202 1 0.357178 0.0714636 0.642894
203 1 0.428607 3.55235e-05 0.571465
211 1 3.54613e-05 0.142891 0.571465
212 1 0.0714637 0.21432 0.642894
213 1 0.142892 0.142892 0.571465
214 1 0.21432 0.21432 0.642894
215 1 0.285748 0.142892 0.571465
216 1 0.357178 0.21432 0.642894
217 1 0.428607 0.142891 0.571465
225 1 3.55661e-05 0.285748 0.571465
226 1 0.0714636 0.357178 0.642894
227 1 0.142892 0.285748 0.571465
228 1 0.21432 0.357178 0.642894
229 1 0.285748 0.285748 0.571465
230 1 0.357178 0.357178 0.642895
231 1 0.428607 0.285748 0.571465
239 1 3.55235e-05 0.428607 0.571465
240 1 0.142891 0.428607 0.571465
241 1 0.285748 0.428607 0.571465
242 1 0.428607 0.428607 0.571465
463 1 0.0714636 0.500036 0.357178
464 1 0.21432 0.500036 0.357178
465 1 0.357178 0.500036 0.357178
470 1 0.0714636 0.642894 0.357178
471 1 0.21432 0.642894 0.357178
472 1 0.357178 0.642895 0.357178
477 1 0.0714636 0.785751 0.357178
478 1 0.21432 0.785751 0.357178
479 1 0.357178 0.785751 0.357178
484 1 0.0714638 0.928607 0.357178
485 1 0.21432 0.928607 0.357178
486 1 0.357178 0.928607 0.357178
491 1 0.0714636 0.500036 0.500036
492 1 0.21432 0.500036 0.500036
493 1 0.357177 0.500036 0.500036
498 1 3.55235e-05 0.571465 0.428607
499 1 0.0714635 0.642894 0.500036
500 1 0.142891 0.571465 0.428607
501 1 0.21432 0.642894 0.500036
502 1 0.285748 0.571465 0.428607
503 1 0.357178 0.642894 0.500036
504 1 0.428607 0.571465 0.428607
512 1 3.5514e-05 0.714323 0.428607
513 1 0.0714635 0.785751 0.500036
514 1 0.142892 0.714323 0.428607
515 1 0.21432 0.785751 0.500036
516 1 0.285748 0.714323 0.428607
517 1 0.357178 0.785751 0.500036
518 1 0.428607 0.714323 0.428607
526 1 3.54103e-05 0.857179 0.428607
527 1 0.0714637 0.928607 0.500036
528 1 0.142892 0.857179 0.428607
529 1 0.21432 0.928607 0.500036
530 1 0.285749 0.857179 0.428607
531 1 0.357178 0.928607 0.500036
532 1 0.428607 0.857179 0.428607
540 1 0.0714635 0.500036 0.642894
541 1 0.21432 0.500036 0.642894
542 1 0.357178 0.500036 0.642894
547 1 3.54649e-05 0.571465 0.571465
548 1 0.0714635 0.642894 0.642894
549 1 0.142892 0.571465 0.571465
550 1 0.21432 0.642894 0.642894
551 1 0.285748 0.571465 0.571465
552 1 0.357178 0.642894 0.642894
553 1 0.428607 0.571465 0.571465
561 1 3.54532e-05 0.714323 0.571465
562 1 0.0714635 0.785751 0.642894
563 1 0.142892 0.714323 0.571465
564 1 0.21432 0.785751 0.642894
565 1 0.285748 0.714323 0.571465
566 1 0.357178 0.785751 0.642894
567 1 0.428607 0.714323 0.571465
575 1 3.53529e-05 0.857179 0.571465
576 1 0.0714637 0.928607 0.642894
577 1 0.142892 0.857179 0.571465
578 1 0.21432 0.928607 0.642894
579 1 0.285748 0.857179 0.571465
580 1 0.357178 0.928607 0.642894
581 1 0.428607 0.857179 0.571465
246 1 3.55657e-05 3.55657e-05 0.714323
247 1 0.0714635 0.0714635 0.785751
248 1 0.142891 3.54649e-05 0.714323
249 1 0.21432 0.0714637 0.785751
250 1 0.285748 3.55567e-05 0.714323
251 1 0.357178 0.0714636 0.785751
252 1 0.428607 3.5514e-05 0.714323
260 1 3.54649e-05 0.142891 0.714323
261 1 0.0714637 0.21432 0.785751
262 1 0.142892 0.142892 0.714323
263 1 0.21432 0.21432 0.785751
264 1 0.285748 0.142892 0.714323
265 1 0.357178 0.21432 0.785751
266 1 0.428607 0.142892 0.714323
274 1 3.55567e-05 0.285748 0.714323
275 1 0.0714636 0.357178 0.785751
276 1 0.142892 0.285748 0.714323
277 1 0.21432 0.357178 0.785751
278 1 0.285749 0.285749 0.714323
279 1 0.357178 0.357178 0.785751
280 1 0.428607 0.285748 0.714323
288 1 3.5514e-05 0.428607 0.714323
289 1 0.142892 0.428607 0.714323
290 1 0.285748 0.428607 0.714323
291 1 0.428607 0.428607 0.714323
295 1 3.54566e-05 3.54566e-05 0.857179
296 1 0.0714637 0.0714637 0.928608
297 1 0.142892 3.5344e-05 0.857179
298 1 0.21432 0.0714639 0.928607
299 1 0.285749 3.54579e-05 0.857179
300 1 0.357178 0.0714638 0.928607
301 1 0.428607 3.54103e-05 0.857179
309 1 3.5344e-05 0.142892 0.857179
310 1 0.0714639 0.21432 0.928607
311 1 0.142892 0.142892 0.857179
312 1 0.21432 0.21432 0.928607
313 1 0.285748 0.142892 0.857179
314 1 0.357178 0.21432 0.928607
315 1 0.428607 0.142892 0.857179
323 1 3.54579e-05 0.285749 0.857179
324 1 0.0714638 0.357178 0.928607
325 1 0.142892 0.285748 0.857179
326 1 0.21432 0.357178 0.928607
327 1 0.285749 0.285749 0.857179
328 1 0.357178 0.357178 0.928607
329 1 0.428607 0.285749 0.857179
337 1 3.54103e-05 0.428607 0.857179
338 1 0.142892 0.428607 0.857179
339 1 0.285749 0.428607 0.857179
340 1 0.428607 0.428607 0.857179
589 1 0.0714635 0.500036 0.785751
590 1 0.21432 0.500036 0.785751
591 1 0.357178 0.500036 0.785751
596 1 3.54532e-05 0.571465 0.714323
597 1 0.0714635 0.642894 0.785751
598 1 0.142892 0.571465 0.714323
599 1 0.21432 0.642894 0.785751
600 1 0.285748 0.571465 0.714323
601 1 0.357178 0.642894 0.785751
602 1 0.428607 0.571465 0.714323
610 1 3.54231e-05 0.714323 0.714323
611 1 0.0714634 0.785751 0.785751
612 1 0.142892 0.714323 0.714323
613 1 0.21432 0.785751 0.785751
614 1 0.285748 0.714323 0.714323
615 1 0.357178 0.785751 0.785751
616 1 0.428607 0.714323 0.714323
624 1 3.53405e-05 0.857179 0.714323
625 1 0.0714636 0.928607 0.785751
626 1 0.142892 0.857179 0.714323
627 1 0.21432 0.928607 0.785751
628 1 0.285748 0.857179 0.714323
629 1 0.357178 0.928607 0.785751
630 1 0.428607 0.857179 0.714323
638 1 0.0714637 0.500036 0.928607
639 1 0.21432 0.500036 0.928607
640 1 0.357178 0.500036 0.928607
645 1 3.53529e-05 0.571465 0.857179
646 1 0.0714637 0.642894 0.928607
647 1 0.142892 0.571465 0.857179
648 1 0.21432 0.642894 0.928607
649 1 0.285748 0.571465 0.857179
650 1 0.357178 0.642894 0.928607
651 1 0.428607 0.571465 0.857179
659 1 3.53405e-05 0.714323 0.857179
660 1 0.0714636 0.785751 0.928607
661 1 0.142892 0.714323 0.857179
662 1 0.21432 0.785751 0.928607
663 1 0.285748 0.714323 0.857179
664 1 0.357178 0.785751 0.928607
665 1 0.428607 0.714323 0.857179
673 1 3.52464e-05 0.857179 0.857179
674 1 0.0714638 0.928607 0.928607
675 1 0.142892 0.857179 0.857179
676 1 0.21432 0.928607 0.928607
677 1 0.285749 0.857179 0.857179
678 1 0.357178 0.928607 0.928607
679 1 0.428607 0.857179 0.857179
8 1 0.500036 0.0714635 0.0714635
9 1 0.571465 3.55768e-05 3.55768e-05
10 1 0.642894 0.0714635 0.0714635
11 1 0.714323 3.55657e-05 3.55657e-05
12 1 0.785751 0.0714635 0.0714635
13 1 0.857179 3.54566e-05 3.54566e-05
14 1 0.928608 0.0714637 0.0714637
22 1 0.500036 0.21432 0.0714637
23 1 0.571465 0.142891 3.54613e-05
24 1 0.642894 0.21432 0.0714637
25 1 0.714323 0.142891 3.54649e-05
26 1 0.785751 0.21432 0.0714637
27 1 0.857179 0.142892 3.5344e-05
28 1 0.928607 0.21432 0.0714639
36 1 0.500036 0.357178 0.0714636
37 1 0.571465 0.285748 3.55661e-05
38 1 0.642894 0.357178 0.0714636
39 1 0.714323 0.285748 3.55567e-05
40 1 0.785751 0.357178 0.0714636
41 1 0.857179 0.285749 3.54579e-05
42 1 0.928607 0.357178 0.0714638
47 1 0.571465 0.428607 3.55235e-05
48 1 0.714323 0.428607 3.5514e-05
49 1 0.857179 0.428607 3.54103e-05
57 1 0.500036 0.0714637 0.21432
58 1 0.571465 3.54613e-05 0.142891
59 1 0.642894 0.0714637 0.21432
60 1 0.714323 3.54649e-05 0.142891
61 1 0.785751 0.0714637 0.21432
62 1 0.857179 3.5344e-05 0.142892
63 1 0.928607 0.0714639 0.21432
71 1 0.500036 0.21432 0.21432
72 1 0.571465 0.142892 0.142892
73 1 0.642894 0.21432 0.21432
74 1 0.714323 0.142892 0.142892
75 1 0.785751 0.21432 0.21432
76 1 0.857179 0.142892 0.142892
77 1 0.928607 0.21432 0.21432
85 1 0.500036 0.357178 0.21432
86 1 0.571465 0.285748 0.142892
87 1 0.642894 0.357178 0.21432
88 1 0.714323 0.285748 0.142892
89 1 0.785751 0.357178 0.21432
90 1 0.857179 0.285748 0.142892
91 1 0.928607 0.357178 0.21432
96 1 0.571465 0.428607 0.142891
97 1 0.714323 0.428607 0.142892
98 1 0.857179 0.428607 0.142892
103 1 0.571465 3.55661e-05 0.285748
104 1 0.714323 3.55567e-05 0.285748
105 1 0.857179 3.54579e-05 0.285749
110 1 0.571465 0.142892 0.285748
111 1 0.714323 0.142892 0.285748
112 1 0.857179 0.142892 0.285748
117 1 0.571465 0.285748 0.285748
118 1 0.714323 0.285749 0.285749
119 1 0.857179 0.285749 0.285749
124 1 0.571465 0.428607 0.285748
125 1 0.714323 0.428607 0.285748
126 1 0.857179 0.428607 0.285749
347 1 0.500036 0.500036 0.0714636
348 1 0.642894 0.500036 0.0714635
349 1 0.785751 0.500036 0.0714635
350 1 0.928607 0.500036 0.0714637
358 1 0.500036 0.642894 0.0714635
359 1 0.571465 0.571465 3.54649e-05
360 1 0.642894 0.642894 0.0714635
361 1 0.714323 0.571465 3.54532e-05
362 1 0.785751 0.642894 0.0714635
363 1 0.857179 0.571465 3.53529e-05
364 1 0.928607 0.642894 0.0714637
372 1 0.500036 0.785751 0.0714635
373 1 0.571465 0.714323 3.54532e-05
374 1 0.642894 0.785751 0.0714635
375 1 0.714323 0.714323 3.54231e-05
376 1 0.785751 0.785751 0.0714634
377 1 0.857179 0.714323 3.53405e-05
378 1 0.928607 0.785751 0.0714636
386 1 0.500036 0.928607 0.0714637
387 1 0.571465 0.857179 3.53529e-05
388 1 0.642894 0.928607 0.0714637
389 1 0.714323 0.857179 3.53405e-05
390 1 0.785751 0.928607 0.0714636
391 1 0.857179 0.857179 3.52464e-05
392 1 0.928607 0.928607 0.0714638
396 1 0.500036 0.500036 0.21432
397 1 0.642894 0.500036 0.21432
398 1 0.785751 0.500036 0.21432
399 1 0.928607 0.500036 0.21432
407 1 0.500036 0.642894 0.21432
408 1 0.571465 0.571465 0.142892
409 1 0.642894 0.642894 0.21432
410 1 0.714323 0.571465 0.142892
411 1 0.785751 0.642894 0.21432
412 1 0.857179 0.571465 0.142892
413 1 0.928607 0.642894 0.21432
421 1 0.500036 0.785751 0.21432
422 1 0.571465 0.714323 0.142892
423 1 0.642894 0.785751 0.21432
424 1 0.714323 0.714323 0.142892
425 1 0.785751 0.785751 0.21432
426 1 0.857179 0.714323 0.142892
427 1 0.928607 0.785751 0.21432
435 1 0.500036 0.928607 0.21432
436 1 0.571465 0.857179 0.142892
437 1 0.642894 0.928607 0.21432
438 1 0.714323 0.857179 0.142892
439 1 0.785751 0.928607 0.21432
440 1 0.857179 0.857179 0.142892
441 1 0.928607 0.928607 0.21432
446 1 0.571465 0.571465 0.285748
447 1 0.714323 0.571465 0.285748
448 1 0.857179 0.571465 0.285748
453 1 0.571465 0.714323 0.285748
454 1 0.714323 0.714323 0.285748
455 1 0.857179 0.714323 0.285748
460 1 0.571465 0.857179 0.285748
461 1 0.714323 0.857179 0.285748
462 1 0.857179 0.857179 0.285749
130 1 0.500036 0.0714636 0.357178
131 1 0.642894 0.0714636 0.357178
132 1 0.785751 0.0714636 0.357178
133 1 0.928607 0.0714638 0.357178
137 1 0.500036 0.21432 0.357178
138 1 0.642894 0.21432 0.357178
139 1 0.785751 0.21432 0.357178
140 1 0.928607 0.21432 0.357178
144 1 0.500036 0.357178 0.357178
145 1 0.642895 0.357178 0.357178
146 1 0.785751 0.357178 0.357178
147 1 0.928607 0.357178 0.357178
155 1 0.500036 0.0714636 0.500036
156 1 0.571465 3.55235e-05 0.428607
157 1 0.642894 0.0714635 0.500036
158 1 0.714323 3.5514e-05 0.428607
159 1 0.785751 0.0714635 0.500036
160 1 0.857179 3.54103e-05 0.428607
161 1 0.928607 0.0714637 0.500036
169 1 0.500036 0.21432 0.500036
170 1 0.571465 0.142891 0.428607
171 1 0.642894 0.21432 0.500036
172 1 0.714323 0.142892 0.428607
173 1 0.785751 0.21432 0.500036
174 1 0.857179 0.142892 0.428607
175 1 0.928607 0.21432 0.500036
183 1 0.500036 0.357177 0.500036
184 1 0.571465 0.285748 0.428607
185 1 0.642894 0.357178 0.500036
186 1 0.714323 0.285748 0.428607
187 1 0.785751 0.357178 0.500036
188 1 0.857179 0.285749 0.428607
189 1 0.928607 0.357178 0.500036
194 1 0.571465 0.428607 0.428607
195 1 0.714323 0.428607 0.428607
196 1 0.857179 0.428607 0.428607
204 1 0.500036 0.0714635 0.642894
205 1 0.571465 3.54649e-05 0.571465
206 1 0.642894 0.0714635 0.642894
207 1 0.714323 3.54532e-05 0.571465
208 1 0.785751 0.0714635 0.642894
209 1 0.857179 3.53529e-05 0.571465
210 1 0.928607 0.0714637 0.642894
218 1 0.500036 0.21432 0.642894
219 1 0.571465 0.142892 0.571465
220 1 0.642894 0.21432 0.642894
221 1 0.714323 0.142892 0.571465
222 1 0.785751 0.21432 0.642894
223 1 0.857179 0.142892 0.571465
224 1 0.928607 0.21432 0.642894
232 1 0.500036 0.357178 0.642894
233 1 0.571465 0.285748 0.571465
234 1 0.642894 0.357178 0.642894
235 1 0.714323 0.285748 0.571465
236 1 0.785751 0.357178 0.642894
237 1 0.857179 0.285748 0.571465
238 1 0.928607 0.357178 0.642894
243 1 0.571465 0.428607 0.571465
244 1 0.714323 0.428607 0.571465
245 1 0.857179 0.428607 0.571465
466 1 0.500036 0.500036 0.357177
467 1 0.642894 0.500036 0.357178
468 1 0.785751 0.500036 0.357178
469 1 0.928607 0.500036 0.357178
473 1 0.500036 0.642894 0.357178
474 1 0.642894 0.642894 0.357178
475 1 0.785751 0.642894 0.357178
476 1 0.928607 0.642894 0.357178
480 1 0.500036 0.785751 0.357178
481 1 0.642894 0.785751 0.357178
482 1 0.785751 0.785751 0.357178
483 1 0.928607 0.785751 0.357178
487 1 0.500036 0.928607 0.357178
488 1 0.642894 0.928607 0.357178
489 1 0.785751 0.928607 0.357178
490 1 0.928607 0.928607 0.357178
494 1 0.500036 0.500036 0.500036
495 1 0.642894 0.500036 0.500036
496 1 0.785751 0.500036 0.500036
497 1 0.928607 0.500036 0.500036
505 1 0.500036 0.642894 0.500036
506 1 0.571465 0.571465 0.428607
507 1 0.642894 0.642894 0.500036
508 1 0.714323 0.571465 0.428607
509 1 0.785751 0.642894 0.500036
510 1 0.857179 0.571465 0.428607
511 1 0.928607 0.642894 0.500036
519 1 0.500036 0.785751 0.500036
520 1 0.571465 0.714323 0.428607
521 1 0.642894 0.785751 0.500036
522 1 0.714323 0.714323 0.428607
523 1 0.785751 0.785751 0.500036
524 1 0.857179 0.714323 0.428607
525 1 0.928607 0.785751 0.500036
533 1 0.500036 0.928607 0.500036
534 1 0.571465 0.857179 0.428607
535 1 0.642894 0.928607 0.500036
536 1 0.714323 0.857179 0.428607
537 1 0.785751 0.928607 0.500036
538 1 0.857179 0.857179 0.428607
539 1 0.928607 0.928607 0.500036
543 1 0.500036 0.500036 0.642894
544 1 0.642894 0.500036 0.642894
545 1 0.785751 0.500036 0.642894
546 1 0.928607 0.500036 0.642894
554 1 0.500036 0.642894 0.642894
555 1 0.571465 0.571465 0.571465
556 1 0.642894 0.642894 0.642894
557 1 0.714323 0.571465 0.571465
558 1 0.785751 0.642894 0.642894
559 1 0.857179 0.571465 0.571465
560 1 0.928607 0.642894 0.642894
568 1 0.500036 0.785751 0.642894
569 1 0.571465 0.714323 0.571465
570 1 0.642894 0.785751 0.642894
571 1 0.714323 0.714323 0.571465
572 1 0.785751 0.785751 0.642894
573 1 0.857179 0.714323 0.571465
574 1 0.928607 0.785751 0.642894
582 1 0.500036 0.928607 0.642894
583 1 0.571465 0.857179 0.571465
584 1 0.642894 0.928607 0.642894
585 1 0.714323 0.857179 0.571465
586 1 0.785751 0.928607 0.642894
587 1 0.857179 0.857179 0.571465
588 1 0.928607 0.928607 0.642894
253 1 0.500036 0.0714635 0.785751
254 1 0.571465 3.54532e-05 0.714323
255 1 0.642894 0.0714635 0.785751
256 1 0.714323 3.54231e-05 0.714323
257 1 0.785751 0.0714634 0.785751
258 1 0.857179 3.53405e-05 0.714323
259 1 0.928607 0.0714636 0.785751
267 1 0.500036 0.21432 0.785751
268 1 0.571465 0.142892 0.714323
269 1 0.642894 0.21432 0.785751
270 1 0.714323 0.142892 0.714323
271 1 0.785751 0.21432 0.785751
272 1 0.857179 0.142892 0.714323
273 1 0.928607 0.21432 0.785751
281 1 0.500036 0.357178 0.785751
282 1 0.571465 0.285748 0.714323
283 1 0.642894 0.357178 0.785751
284 1 0.714323 0.285748 0.714323
285 1 0.785751 0.357178 0.785751
286 1 0.857179 0.285748 0.714323
287 1 0.928607 0.357178 0.785751
292 1 0.571465 0.428607 0.714323
293 1 0.714323 0.428607 0.714323
294 1 0.857179 0.428607 0.714323
302 1 0.500036 0.0714637 0.928607
303 1 0.571465 3.53529e-05 0.857179
304 1 0.642894 0.0714637 0.928607
305 1 0.714323 3.53405e-05 0.857179
306 1 0.785751 0.0714636 0.928607
307 1 0.857179 3.52464e-05 0.857179
308 1 0.928607 0.0714638 0.928607
316 1 0.500036 0.21432 0.928607
317 1 0.571465 0.142892 0.857179
318 1 0.642894 0.21432 0.928607
319 1 0.714323 0.142892 0.857179
320 1 0.785751 0.21432 0.928607
321 1 0.857179 0.142892 0.857179
322 1 0.928607 0.21432 0.928607
330 1 0.500036 0.357178 0.928607
331 1 0.571465 0.285748 0.857179
332 1 0.642894 0.357178 0.928607
333 1 0.714323 0.285748 0.857179
334 1 0.785751 0.357178 0.928607
335 1 0.857179 0.285749 0.857179
336 1 0.928607 0.357178 0.928607
341 1 0.571465 0.428607 0.857179
342 1 0.714323 0.428607 0.857179
343 1 0.857179 0.428607 0.857179
592 1 0.500036 0.500036 0.785751
593 1 0.642894 0.500036 0.785751
594 1 0.785751 0.500036 0.785751
595 1 0.928607 0.500036 0.785751
603 1 0.500036 0.642894 0.785751
604 1 0.571465 0.571465 0.714323
605 1 0.642894 0.642894 0.785751
606 1 0.714323 0.571465 0.714323
607 1 0.785751 0.642894 0.785751
608 1 0.857179 0.571465 0.714323
609 1 0.928607 0.642894 0.785751
617 1 0.500036 0.785751 0.785751
618 1 0.571465 0.714323 0.714323
619 1 0.642894 0.785751 0.785751
620 1 0.714323 0.714323 0.714323
621 1 0.785751 0.785751 0.785751
622 1 0.857179 0.714323 0.714323
623 1 0.928607 0.785751 0.785751
631 1 0.500036 0.928607 0.785751
632 1 0.571465 0.857179 0.714323
633 1 0.642894 0.928607 0.785751
634 1 0.714323 0.857179 0.714323
635 1 0.785751 0.928607 0.785751
636 1 0.857179 0.857179 0.714323
637 1 0.928607 0.928607 0.785751
641 1 0.500036 0.500036 0.928607
642 1 0.642894 0.500036 0.928607
643 1 0.785751 0.500036 0.928607
644 1 0.928607 0.500036 0.928607
652 1 0.500036 0.642894 0.928607
653 1 0.571465 0.571465 0.857179
654 1 0.642894 0.642894 0.928607
655 1 0.714323 0.571465 0.857179
656 1 0.785751 0.642894 0.928607
657 1 0.857179 0.571465 0.857179
658 1 0.928607 0.642894 0.928607
666 1 0.500036 0.785751 0.928607
667 1 0.571465 0.714323 0.857179
668 1 0.642894 0.785751 0.928607
669 1 0.714323 0.714323 0.857179
670 1 0.785751 0.785751 0.928607
671 1 0.857179 0.714323 0.857179
672 1 0.928607 0.785751 0.928607
680 1 0.500036 0.928607 0.928607
681 1 0.571465 0.857179 0.857179
682 1 0.642894 0.928607 0.928607
683 1 0.714323 0.857179 0.857179
684 1 0.785751 0.928607 0.928607
685 1 0.857179 0.857179 0.857179
686 1 0.928607 0.928607 0.928607
