ITEM: TIMESTEP
50
ITEM: NUMBER OF ATOMS
688
ITEM: BOX BOUNDS pp pp pp
0.0000000000000000e+00 2.2013900999999997e+01
0.0000000000000000e+00 2.2013900999999997e+01
0.0000000000000000e+00 2.2013900999999997e+01
ITEM: ATOMS id type x y z c_pot
175 1 18.8696 9.43439 9.43474 -8.94811
2 1 1.57219 1.57226 1.57219 -8.94929
3 1 3.14478 1.47364e-15 -8.34229e-05 -8.94966
4 1 4.71711 1.5722 1.57215 -8.94966
174 1 15.7232 9.43607 9.43524 -8.94755
6 1 7.86203 1.57216 1.57211 -8.94953
191 1 4.70393 7.85561 11.0078 -8.95305
8 1 11.007 1.57213 1.57208 -8.94956
173 1 12.5721 9.43198 9.40963 -8.8359
10 1 14.1519 1.57214 1.57214 -8.94954
11 1 15.7243 1.53314e-15 -9.14661e-05 -8.94962
12 1 17.2969 1.57211 1.57212 -8.94941
172 1 9.3892 9.1801 9.3892 -7.69524
14 1 20.4415 1.57232 1.57235 -8.94958
15 1 -3.66451e-05 3.14474 -3.66451e-05 -8.9496
16 1 1.57218 4.71711 1.57218 -8.94986
171 1 6.27382 9.40765 9.41592 -8.90221
18 1 4.71637 4.7164 1.57109 -8.94926
19 1 6.28957 3.14456 -0.000253011 -8.94948
20 1 7.86177 4.71638 1.57125 -8.94902
170 1 3.14063 9.43426 9.43401 -8.95198
22 1 11.007 4.71625 1.57119 -8.94924
169 1 22.0128 9.43448 9.43429 -8.94949
24 1 14.1523 4.71619 1.57117 -8.94972
25 1 15.7244 3.14454 -0.000281238 -8.94969
26 1 17.2977 4.7162 1.57139 -8.94801
168 1 18.87 6.28883 9.43453 -8.94935
28 1 20.4417 4.71707 1.57221 -8.94961
167 1 15.727 6.28711 9.43471 -8.94442
30 1 1.57221 7.86207 1.57221 -8.94942
31 1 3.14461 6.28959 2.65885e-05 -8.94987
32 1 4.71685 7.86228 1.57187 -8.94992
166 1 12.5789 6.2893 9.43373 -8.94964
34 1 7.86147 7.8616 1.56966 -8.95265
190 1 1.56887 7.86097 11.0065 -8.95099
36 1 11.0065 7.86097 1.56887 -8.95099
37 1 12.5795 6.28905 -0.00103597 -8.94972
38 1 14.1536 7.8604 1.5683 -8.95173
165 1 9.4323 6.29787 9.4323 -9.01328
40 1 17.2977 7.86165 1.57143 -8.94923
41 1 18.8693 6.28954 -0.000190055 -8.94959
42 1 20.4417 7.86201 1.57217 -8.94951
164 1 6.2823 6.27924 9.43452 -8.94905
44 1 3.14449 9.43447 -9.23413e-06 -8.94959
163 1 3.14088 6.28693 9.43379 -8.94721
162 1 22.0129 6.28897 9.4343 -8.94962
161 1 18.8693 3.14447 9.43453 -8.94959
48 1 15.7251 9.43428 -0.000977677 -8.94933
160 1 15.725 3.14379 9.43461 -8.94938
50 1 -8.34229e-05 1.47754e-15 3.14478 -8.94966
51 1 1.57215 1.5722 4.71711 -8.94966
52 1 3.14451 1.1628e-15 3.14451 -8.94957
53 1 4.71664 1.57156 4.71664 -8.94998
54 1 6.28957 6.76071e-16 3.14451 -8.94958
55 1 7.86199 1.57155 4.71669 -8.94961
56 1 9.43451 8.26848e-16 3.14444 -8.94958
57 1 11.0071 1.57145 4.71661 -8.94953
58 1 12.5795 8.34385e-16 3.14447 -8.9495
59 1 14.1523 1.57136 4.71683 -8.95073
60 1 15.7245 1.78344e-15 3.14454 -8.94993
61 1 17.2969 1.57218 4.71723 -8.94972
62 1 18.8691 2.05778e-15 3.14481 -8.9497
63 1 20.4415 1.57233 4.71723 -8.94959
64 1 22.0136 3.14458 3.1446 -8.94948
65 1 1.57109 4.7164 4.71637 -8.94926
66 1 3.14388 3.14395 3.14388 -8.94822
67 1 4.71348 4.71356 4.71348 -8.94393
68 1 6.28924 3.14383 3.14394 -8.94961
69 1 7.86103 4.71377 4.71458 -8.94904
70 1 9.43443 3.14369 3.14386 -8.94937
71 1 11.0075 4.71347 4.71434 -8.94712
72 1 12.5796 3.14359 3.14393 -8.9491
73 1 14.1555 4.7115 4.71374 -8.94868
74 1 15.7253 3.14326 3.14377 -8.94906
75 1 17.2979 4.71615 4.71673 -8.94987
76 1 18.8693 3.14451 3.14465 -8.9497
77 1 20.4415 4.71696 4.71708 -8.94986
78 1 2.65885e-05 6.28959 3.14461 -8.94987
79 1 1.57187 7.86228 4.71685 -8.94992
80 1 3.14398 6.28945 3.14398 -8.95066
81 1 4.71518 7.86232 4.71518 -8.95343
82 1 6.28684 6.28702 3.14016 -8.94929
83 1 7.85509 7.85454 4.70399 -8.95225
84 1 9.43379 6.28693 3.14088 -8.94721
85 1 11.0078 7.85561 4.70393 -8.95305
86 1 12.5806 6.28655 3.14049 -8.94943
87 1 14.1681 7.84673 4.70094 -8.92234
88 1 15.7287 6.2853 3.14036 -8.94295
89 1 17.3011 7.8602 4.71531 -8.95112
90 1 18.8703 6.289 3.14413 -8.94972
91 1 20.4422 7.86187 4.71691 -8.95018
92 1 -9.23413e-06 9.43447 3.14449 -8.94959
93 1 3.14405 9.43455 3.14405 -8.94882
94 1 6.28905 9.43554 3.14362 -8.94953
95 1 9.43401 9.43426 3.14063 -8.95198
96 1 12.5832 9.43229 3.13328 -8.95957
97 1 15.728 9.43333 3.14113 -8.94713
98 1 18.8703 9.43431 3.14406 -8.94929
99 1 22.0138 2.13714e-16 6.28964 -8.94959
100 1 1.57211 1.57216 7.86203 -8.94953
101 1 3.14451 5.34864e-16 6.28957 -8.94958
102 1 4.71669 1.57155 7.86199 -8.94961
103 1 6.28942 1.2433e-15 6.28942 -8.95066
104 1 7.86213 1.57092 7.86213 -8.95165
105 1 9.43467 1.02502e-15 6.28935 -8.95032
106 1 11.007 1.57155 7.86232 -8.95007
107 1 12.5795 1.45543e-15 6.28963 -8.95084
108 1 14.1521 1.5718 7.86228 -8.94965
109 1 15.7245 1.80485e-15 6.28971 -8.94963
110 1 17.2969 1.57215 7.8621 -8.94951
111 1 18.8692 1.37146e-15 6.28966 -8.94957
112 1 20.4415 1.5723 7.86208 -8.94961
113 1 -0.000253011 3.14456 6.28957 -8.94948
114 1 1.57125 4.71638 7.86177 -8.94902
115 1 3.14394 3.14383 6.28924 -8.94961
116 1 4.71458 4.71377 7.86103 -8.94904
117 1 6.28837 3.1415 6.28837 -8.95159
118 1 7.8604 4.70886 7.8604 -8.96055
119 1 9.43482 3.14176 6.28846 -8.9503
120 1 11.007 4.71357 7.86139 -8.95426
121 1 12.58 3.14155 6.28915 -8.95342
122 1 14.1532 4.71484 7.86278 -8.94975
123 1 15.7248 3.14384 6.28976 -8.94976
124 1 17.2976 4.71633 7.86215 -8.9488
125 1 18.8693 3.14454 6.28965 -8.94945
126 1 20.4415 4.71684 7.862 -8.94944
127 1 22.0131 6.28927 6.2893 -8.95043
128 1 1.56966 7.8616 7.86147 -8.95265
129 1 3.14016 6.28702 6.28684 -8.94929
130 1 4.70399 7.85454 7.85509 -8.95225
131 1 6.27662 6.27665 6.27662 -8.92613
132 1 7.82097 7.821 7.82097 -8.83206
133 1 9.43452 6.27924 6.2823 -8.94905
134 1 11.0343 7.84513 7.82176 -8.87297
135 1 12.5894 6.2737 6.27932 -8.95021
136 1 14.163 7.85555 7.86044 -8.94799
137 1 15.7285 6.28648 6.28849 -8.95011
138 1 17.2994 7.86136 7.86298 -8.9518
139 1 18.87 6.28917 6.28966 -8.95019
140 1 20.4416 7.86185 7.86211 -8.9503
141 1 22.0138 9.43459 6.28935 -8.94983
142 1 3.14362 9.43554 6.28905 -8.94953
143 1 6.28747 9.43876 6.28747 -8.96152
144 1 9.41592 9.40765 6.27382 -8.90221
145 1 12.6331 9.38897 6.23883 -8.81872
146 1 15.737 9.43166 6.28551 -8.95908
147 1 18.8717 9.4343 6.28936 -8.95198
148 1 22.0138 -5.11375e-17 9.43452 -8.94962
149 1 3.14444 1.0428e-15 9.43451 -8.94958
150 1 6.28935 1.26066e-15 9.43467 -8.95032
151 1 9.43468 1.13081e-15 9.43468 -8.94831
152 1 12.5796 9.05953e-16 9.43467 -8.94952
153 1 15.7245 8.39617e-16 9.43456 -8.94968
154 1 18.8692 1.11549e-16 9.43453 -8.94962
155 1 -0.000284522 3.14449 9.43449 -8.94956
156 1 3.14386 3.14369 9.43443 -8.94937
157 1 6.28846 3.14176 9.43482 -8.9503
158 1 9.43467 3.1446 9.43467 -8.9452
159 1 12.5797 3.14396 9.43478 -8.94883
177 1 4.71661 1.57145 11.0071 -8.94953
180 1 14.1521 1.57189 11.0069 -8.94949
184 1 4.71434 4.71347 11.0075 -8.94712
187 1 14.1528 4.71551 11.0062 -8.9484
188 1 17.2976 4.7163 11.007 -8.94887
189 1 20.4415 4.71681 11.007 -8.9495
194 1 14.1577 7.85939 11.003 -8.95141
21 1 9.43449 3.14449 -0.000284522 -8.94956
176 1 1.57208 1.57213 11.007 -8.94956
343 1 18.8693 9.43447 18.8693 -8.94955
178 1 7.86232 1.57155 11.007 -8.95007
179 1 11.0069 1.57208 11.0069 -8.94909
342 1 15.7251 9.43427 18.8701 -8.94921
181 1 17.2969 1.57215 11.007 -8.94955
182 1 20.4415 1.5723 11.007 -8.94962
183 1 1.57119 4.71625 11.007 -8.94924
341 1 12.5794 9.43446 18.8709 -8.95261
185 1 7.86139 4.71357 11.007 -8.95426
186 1 11.0063 4.71717 11.0063 -8.94962
340 1 9.43474 9.43439 18.8696 -8.94811
339 1 6.28936 9.4343 18.8717 -8.95198
338 1 3.14406 9.43431 18.8703 -8.94929
337 1 22.0137 9.43448 18.8694 -8.94957
336 1 20.4415 7.86206 20.4415 -8.94961
192 1 7.82176 7.84513 11.0343 -8.87297
193 1 11.0278 7.86362 11.0278 -8.90061
49 1 18.8694 9.43448 22.0137 -8.94957
195 1 17.2987 7.86116 11.0062 -8.9499
196 1 20.4413 7.86168 11.0068 -8.95008
197 1 22.0138 8.20242e-16 12.5794 -8.94961
198 1 1.57214 1.57214 14.1519 -8.94954
199 1 3.14447 1.30836e-15 12.5795 -8.9495
200 1 4.71683 1.57136 14.1523 -8.95073
201 1 6.28963 1.49443e-15 12.5795 -8.95084
202 1 7.86228 1.5718 14.1521 -8.94965
203 1 9.43467 9.92338e-16 12.5796 -8.94952
204 1 11.0069 1.57189 14.1521 -8.94949
205 1 12.5794 -4.52184e-16 12.5794 -8.95063
206 1 14.1521 1.57155 14.1521 -8.9508
207 1 15.7244 6.32569e-17 12.5794 -8.94953
208 1 17.2968 1.57222 14.1518 -8.94963
209 1 18.8692 8.97536e-16 12.5794 -8.94958
210 1 20.4415 1.57232 14.1518 -8.94957
211 1 22.0136 3.1445 12.5794 -8.94949
212 1 1.57117 4.71619 14.1523 -8.94972
213 1 3.14393 3.14359 12.5796 -8.9491
214 1 4.71374 4.7115 14.1555 -8.94868
215 1 6.28915 3.14155 12.58 -8.95342
216 1 7.86278 4.71484 14.1532 -8.94975
217 1 9.43478 3.14396 12.5797 -8.94883
218 1 11.0062 4.71551 14.1528 -8.9484
219 1 12.5795 3.14245 12.5795 -8.95368
220 1 14.1544 4.71214 14.1544 -8.9508
221 1 15.7247 3.14406 12.5793 -8.94942
222 1 17.2975 4.71644 14.152 -8.95017
223 1 18.8693 3.14453 12.5794 -8.94941
224 1 20.4414 4.71693 14.1519 -8.94965
225 1 -0.00103597 6.28905 12.5795 -8.94972
226 1 1.5683 7.8604 14.1536 -8.95173
227 1 3.14049 6.28655 12.5806 -8.94943
228 1 4.70094 7.84673 14.1681 -8.92234
229 1 6.27932 6.2737 12.5894 -8.95021
230 1 7.86044 7.85555 14.163 -8.94799
231 1 9.43373 6.2893 12.5789 -8.94964
232 1 11.003 7.85939 14.1577 -8.95141
233 1 12.5853 6.276 12.5853 -8.95992
234 1 14.1695 7.84439 14.1695 -8.91363
235 1 15.7267 6.28768 12.5793 -8.95076
236 1 17.3008 7.8603 14.1535 -8.95254
237 1 18.8697 6.28916 12.5793 -8.94957
238 1 20.4415 7.8617 14.1522 -8.95094
239 1 22.0118 9.43437 12.5796 -8.95195
240 1 3.13328 9.43229 12.5832 -8.95957
241 1 6.23883 9.38897 12.6331 -8.81872
242 1 9.40963 9.43198 12.5721 -8.8359
243 1 12.6365 9.37632 12.6365 -8.75174
244 1 15.7352 9.43262 12.5821 -8.96446
245 1 18.8709 9.43446 12.5794 -8.95261
246 1 -9.14661e-05 1.0353e-15 15.7243 -8.94962
247 1 1.57212 1.57211 17.2969 -8.94941
248 1 3.14454 1.76416e-15 15.7245 -8.94993
249 1 4.71723 1.57218 17.2969 -8.94972
250 1 6.28971 1.98973e-15 15.7245 -8.94963
251 1 7.8621 1.57215 17.2969 -8.94951
252 1 9.43456 8.23437e-16 15.7245 -8.94968
253 1 11.007 1.57215 17.2969 -8.94955
254 1 12.5794 3.69553e-16 15.7244 -8.94953
255 1 14.1518 1.57222 17.2968 -8.94963
256 1 15.7244 1.08432e-15 15.7244 -8.95002
257 1 17.2969 1.57211 17.2969 -8.94951
258 1 18.8691 1.44991e-15 15.7242 -8.94967
259 1 20.4415 1.57232 17.2967 -8.94969
260 1 -0.000281238 3.14454 15.7244 -8.94969
261 1 1.57139 4.7162 17.2977 -8.94801
262 1 3.14377 3.14326 15.7253 -8.94906
263 1 4.71673 4.71615 17.2979 -8.94987
264 1 6.28976 3.14384 15.7248 -8.94976
265 1 7.86215 4.71633 17.2976 -8.9488
266 1 9.43461 3.14379 15.725 -8.94938
267 1 11.007 4.7163 17.2976 -8.94887
268 1 12.5793 3.14406 15.7247 -8.94942
269 1 14.152 4.71644 17.2975 -8.95017
270 1 15.7251 3.14335 15.7251 -8.94953
271 1 17.2978 4.71605 17.2978 -8.94766
272 1 18.8692 3.14457 15.7243 -8.94981
273 1 20.4415 4.71688 17.297 -8.94955
274 1 22.0129 6.28895 15.725 -8.95002
275 1 1.57143 7.86165 17.2977 -8.94923
276 1 3.14036 6.2853 15.7287 -8.94295
277 1 4.71531 7.8602 17.3011 -8.95112
278 1 6.28849 6.28648 15.7285 -8.95011
279 1 7.86298 7.86136 17.2994 -8.9518
280 1 9.43471 6.28711 15.727 -8.94442
281 1 11.0062 7.86116 17.2987 -8.9499
282 1 12.5793 6.28768 15.7267 -8.95076
283 1 14.1535 7.8603 17.3008 -8.95254
284 1 15.729 6.28475 15.729 -8.94127
285 1 17.2976 7.86164 17.2976 -8.94926
286 1 18.8701 6.28889 15.725 -8.95007
287 1 20.4415 7.86194 17.297 -8.94941
288 1 -0.000977677 9.43428 15.7251 -8.94933
289 1 3.14113 9.43333 15.728 -8.94713
290 1 6.28551 9.43166 15.737 -8.95908
291 1 9.43524 9.43607 15.7232 -8.94755
292 1 12.5821 9.43262 15.7352 -8.96446
293 1 15.7277 9.4334 15.7277 -8.94688
294 1 18.8701 9.43427 15.7251 -8.94921
295 1 22.0138 1.40078e-15 18.8691 -8.94946
296 1 1.57235 1.57232 20.4415 -8.94958
297 1 3.14481 1.05858e-15 18.8691 -8.9497
298 1 4.71723 1.57233 20.4415 -8.94959
299 1 6.28966 1.68691e-15 18.8692 -8.94957
300 1 7.86208 1.5723 20.4415 -8.94961
301 1 9.43453 5.27567e-16 18.8692 -8.94962
302 1 11.007 1.5723 20.4415 -8.94962
303 1 12.5794 8.88002e-16 18.8692 -8.94958
304 1 14.1518 1.57232 20.4415 -8.94957
305 1 15.7242 1.21835e-15 18.8691 -8.94967
306 1 17.2967 1.57232 20.4415 -8.94969
307 1 18.8691 1.83377e-15 18.8691 -8.94953
308 1 20.4415 1.57234 20.4415 -8.94936
309 1 22.0137 3.1446 18.8693 -8.94924
310 1 1.57221 4.71707 20.4417 -8.94961
311 1 3.14465 3.14451 18.8693 -8.9497
312 1 4.71708 4.71696 20.4415 -8.94986
313 1 6.28965 3.14454 18.8693 -8.94945
314 1 7.862 4.71684 20.4415 -8.94944
315 1 9.43453 3.14447 18.8693 -8.94959
316 1 11.007 4.71681 20.4415 -8.9495
317 1 12.5794 3.14453 18.8693 -8.94941
318 1 14.1519 4.71693 20.4414 -8.94965
319 1 15.7243 3.14457 18.8692 -8.94981
320 1 17.297 4.71688 20.4415 -8.94955
321 1 18.8693 3.14454 18.8693 -8.94913
322 1 20.4415 4.71719 20.4415 -8.94967
323 1 -0.000190055 6.28954 18.8693 -8.94959
324 1 1.57217 7.86201 20.4417 -8.94951
325 1 3.14413 6.289 18.8703 -8.94972
326 1 4.71691 7.86187 20.4422 -8.95018
327 1 6.28966 6.28917 18.87 -8.95019
328 1 7.86211 7.86185 20.4416 -8.9503
329 1 9.43453 6.28883 18.87 -8.94935
330 1 11.0068 7.86168 20.4413 -8.95008
331 1 12.5793 6.28916 18.8697 -8.94957
332 1 14.1522 7.8617 20.4415 -8.95094
333 1 15.725 6.28889 18.8701 -8.95007
334 1 17.297 7.86194 20.4415 -8.94941
335 1 18.8693 6.28952 18.8693 -8.94961
1 1 22.0139 1.81119e-15 22.0139 -8.94948
5 1 6.28964 2.09897e-16 22.0138 -8.94959
9 1 12.5794 1.04464e-15 22.0138 -8.94961
13 1 18.8691 1.90292e-15 22.0138 -8.94946
17 1 3.1446 3.14458 22.0136 -8.94948
47 1 12.5796 9.43437 22.0118 -8.95195
23 1 12.5794 3.1445 22.0136 -8.94949
27 1 18.8693 3.1446 22.0137 -8.94924
29 1 22.0139 6.28964 22.0139 -8.94956
33 1 6.2893 6.28927 22.0131 -8.95043
39 1 15.725 6.28895 22.0129 -8.95002
43 1 22.0139 9.4345 22.0139 -8.94961
45 1 6.28935 9.43459 22.0138 -8.94983
46 1 9.43429 9.43448 22.0128 -8.94949
7 1 9.43452 -3.51183e-16 22.0138 -8.94962
35 1 9.4343 6.28897 22.0129 -8.94962
344 1 1.57215 11.007 1.57215 -8.94961
345 1 4.71655 11.007 1.57171 -8.94968
346 1 7.86156 11.007 1.57178 -8.94731
347 1 11.0069 11.007 1.56921 -8.94878
348 1 14.154 11.007 1.56831 -8.94919
349 1 17.2978 11.007 1.57138 -8.94939
350 1 20.4417 11.007 1.57215 -8.94957
688 3 10.4142 11.007 9.38572 2.38503
352 1 1.57221 14.1518 1.57221 -8.94942
353 1 3.14449 12.5794 -9.23413e-06 -8.94959
354 1 4.71685 14.1516 1.57187 -8.94992
687 3 9.38572 11.007 10.4142 2.38503
356 1 7.86147 14.1523 1.56966 -8.95265
511 1 18.8693 18.8694 9.43453 -8.94959
358 1 11.0065 14.1529 1.56887 -8.95099
510 1 15.725 18.8701 9.43461 -8.94938
360 1 14.1536 14.1535 1.5683 -8.95173
361 1 15.7251 12.5796 -0.000977677 -8.94933
362 1 17.2977 14.1523 1.57143 -8.94923
509 1 12.5797 18.8699 9.43478 -8.94883
364 1 20.4417 14.1519 1.57217 -8.94951
508 1 9.43467 18.8693 9.43467 -8.9452
366 1 1.57218 17.2968 1.57218 -8.94986
367 1 3.14461 15.7243 2.65885e-05 -8.94987
368 1 4.71637 17.2975 1.57109 -8.94926
507 1 6.28846 18.8721 9.43482 -8.9503
370 1 7.86177 17.2975 1.57125 -8.94902
537 1 14.1521 20.442 11.0069 -8.94949
372 1 11.007 17.2976 1.57119 -8.94924
373 1 12.5795 15.7249 -0.00103597 -8.94972
374 1 14.1523 17.2977 1.57117 -8.94972
506 1 3.14386 18.8702 9.43443 -8.94937
376 1 17.2977 17.2977 1.57139 -8.94801
377 1 18.8693 15.7244 -0.000190055 -8.94959
378 1 20.4417 17.2968 1.57221 -8.94961
379 1 -3.66451e-05 18.8692 -3.66451e-05 -8.9496
380 1 1.57219 20.4416 1.57219 -8.94929
505 1 -0.000284522 18.8694 9.43449 -8.94956
382 1 4.71711 20.4417 1.57215 -8.94966
383 1 6.28957 18.8693 -0.000253011 -8.94948
384 1 7.86203 20.4417 1.57211 -8.94953
504 1 18.87 15.7251 9.43453 -8.94935
386 1 11.007 20.4418 1.57208 -8.94956
503 1 15.727 15.7268 9.43471 -8.94442
388 1 14.1519 20.4418 1.57214 -8.94954
389 1 15.7244 18.8694 -0.000281238 -8.94969
390 1 17.2969 20.4418 1.57212 -8.94941
502 1 12.5789 15.7246 9.43373 -8.94964
392 1 20.4415 20.4416 1.57235 -8.94958
393 1 1.57171 11.007 4.71655 -8.94968
394 1 4.71521 11.007 4.71521 -8.94532
395 1 7.86365 11.007 4.71979 -8.9363
396 1 11.014 11.007 4.70896 -9.01604
397 1 14.164 11.007 4.70477 -8.93983
398 1 17.301 11.007 4.71503 -8.94877
399 1 20.4423 11.007 4.71676 -8.94992
400 1 -9.23413e-06 12.5794 3.14449 -8.94959
401 1 1.57187 14.1516 4.71685 -8.94992
402 1 3.14405 12.5794 3.14405 -8.94882
403 1 4.71518 14.1516 4.71518 -8.95343
404 1 6.28905 12.5784 3.14362 -8.94953
405 1 7.85509 14.1594 4.70399 -8.95225
406 1 9.43401 12.5796 3.14063 -8.95198
407 1 11.0078 14.1583 4.70393 -8.95305
408 1 12.5832 12.5816 3.13328 -8.95957
409 1 14.1681 14.1672 4.70094 -8.92234
410 1 15.728 12.5806 3.14113 -8.94713
411 1 17.3011 14.1537 4.71531 -8.95112
412 1 18.8703 12.5796 3.14406 -8.94929
413 1 20.4422 14.152 4.71691 -8.95018
414 1 2.65885e-05 15.7243 3.14461 -8.94987
415 1 1.57109 17.2975 4.71637 -8.94926
416 1 3.14398 15.7245 3.14398 -8.95066
417 1 4.71348 17.3003 4.71348 -8.94393
418 1 6.28684 15.7269 3.14016 -8.94929
419 1 7.86103 17.3001 4.71458 -8.94904
420 1 9.43379 15.727 3.14088 -8.94721
421 1 11.0075 17.3004 4.71434 -8.94712
422 1 12.5806 15.7273 3.14049 -8.94943
423 1 14.1555 17.3024 4.71374 -8.94868
424 1 15.7287 15.7286 3.14036 -8.94295
425 1 17.2979 17.2978 4.71673 -8.94987
426 1 18.8703 15.7249 3.14413 -8.94972
427 1 20.4415 17.2969 4.71708 -8.94986
428 1 22.0136 18.8693 3.1446 -8.94948
429 1 1.57215 20.4417 4.71711 -8.94966
430 1 3.14388 18.87 3.14388 -8.94822
431 1 4.71664 20.4423 4.71664 -8.94998
432 1 6.28924 18.8701 3.14394 -8.94961
433 1 7.86199 20.4423 4.71669 -8.94961
434 1 9.43443 18.8702 3.14386 -8.94937
435 1 11.0071 20.4424 4.71661 -8.94953
436 1 12.5796 18.8703 3.14393 -8.9491
437 1 14.1523 20.4425 4.71683 -8.95073
438 1 15.7253 18.8706 3.14377 -8.94906
439 1 17.2969 20.4417 4.71723 -8.94972
440 1 18.8693 18.8694 3.14465 -8.9497
441 1 20.4415 20.4416 4.71723 -8.94959
442 1 1.57178 11.007 7.86156 -8.94731
443 1 4.71979 11.007 7.86365 -8.9363
444 1 7.88929 11.007 7.88929 -8.86953
445 1 11.1033 11.007 7.54953 -7.94994
446 1 14.1635 11.007 7.84943 -8.96758
447 1 17.3003 11.007 7.86243 -8.95088
448 1 20.4421 11.007 7.86211 -8.94969
449 1 22.0138 12.5793 6.28935 -8.94983
450 1 1.56966 14.1523 7.86147 -8.95265
451 1 3.14362 12.5784 6.28905 -8.94953
452 1 4.70399 14.1594 7.85509 -8.95225
453 1 6.28747 12.5751 6.28747 -8.96152
454 1 7.82097 14.1929 7.82097 -8.83206
455 1 9.41592 12.6063 6.27382 -8.90221
456 1 11.0343 14.1688 7.82176 -8.87297
457 1 12.6331 12.6249 6.23883 -8.81872
458 1 14.163 14.1584 7.86044 -8.94799
459 1 15.737 12.5822 6.28551 -8.95908
460 1 17.2994 14.1525 7.86298 -8.9518
461 1 18.8717 12.5796 6.28936 -8.95198
462 1 20.4416 14.1521 7.86211 -8.9503
463 1 22.0131 15.7246 6.2893 -8.95043
464 1 1.57125 17.2975 7.86177 -8.94902
465 1 3.14016 15.7269 6.28684 -8.94929
466 1 4.71458 17.3001 7.86103 -8.94904
467 1 6.27662 15.7373 6.27662 -8.92613
468 1 7.8604 17.305 7.8604 -8.96055
469 1 9.43452 15.7347 6.2823 -8.94905
470 1 11.007 17.3003 7.86139 -8.95426
471 1 12.5894 15.7402 6.27932 -8.95021
472 1 14.1532 17.2991 7.86278 -8.94975
473 1 15.7285 15.7274 6.28849 -8.95011
474 1 17.2976 17.2976 7.86215 -8.9488
475 1 18.87 15.7247 6.28966 -8.95019
476 1 20.4415 17.2971 7.862 -8.94944
477 1 -0.000253011 18.8693 6.28957 -8.94948
478 1 1.57211 20.4417 7.86203 -8.94953
479 1 3.14394 18.8701 6.28924 -8.94961
480 1 4.71669 20.4423 7.86199 -8.94961
481 1 6.28837 18.8724 6.28837 -8.95159
482 1 7.86213 20.443 7.86213 -8.95165
483 1 9.43482 18.8721 6.28846 -8.9503
484 1 11.007 20.4423 7.86232 -8.95007
485 1 12.58 18.8723 6.28915 -8.95342
486 1 14.1521 20.4421 7.86228 -8.94965
487 1 15.7248 18.8701 6.28976 -8.94976
488 1 17.2969 20.4418 7.8621 -8.94951
489 1 18.8693 18.8694 6.28965 -8.94945
490 1 20.4415 20.4416 7.86208 -8.94961
491 1 22.0128 12.5794 9.43429 -8.94949
492 1 3.14063 12.5796 9.43401 -8.95198
493 1 6.27382 12.6063 9.41592 -8.90221
494 1 9.3892 12.8338 9.3892 -7.69524
495 1 12.5721 12.5819 9.40963 -8.8359
496 1 15.7232 12.5778 9.43524 -8.94755
497 1 18.8696 12.5795 9.43474 -8.94811
498 1 22.0129 15.7249 9.4343 -8.94962
499 1 3.14088 15.727 9.43379 -8.94721
500 1 6.2823 15.7347 9.43452 -8.94905
501 1 9.4323 15.716 9.4323 -9.01328
512 1 1.56921 11.007 11.0069 -8.94878
517 1 17.297 11.007 11.0065 -8.94442
519 1 1.56887 14.1529 11.0065 -8.95099
520 1 4.70393 14.1583 11.0078 -8.95305
527 1 4.71434 17.3004 11.0075 -8.94712
530 1 14.1528 17.2984 11.0062 -8.9484
531 1 17.2976 17.2976 11.007 -8.94887
532 1 20.4415 17.2971 11.007 -8.9495
534 1 4.71661 20.4424 11.0071 -8.94953
518 1 20.4411 11.007 11.0067 -8.94885
523 1 14.1577 14.1545 11.003 -8.95141
385 1 9.43449 18.8694 -0.000284522 -8.94956
686 1 20.4415 20.4416 20.4415 -8.94936
513 1 4.70896 11.007 11.014 -9.01604
514 1 7.54953 11.007 11.1033 -7.94994
515 1 11.2472 11.007 11.2472 -7.39493
516 1 14.1423 11.007 11.016 -9.00553
685 1 18.8693 18.8694 18.8693 -8.94913
391 1 18.8693 18.8693 22.0137 -8.94924
684 1 17.2967 20.4416 20.4415 -8.94969
683 1 15.7243 18.8693 18.8692 -8.94981
521 1 7.82176 14.1688 11.0343 -8.87297
522 1 11.0278 14.1503 11.0278 -8.90061
387 1 12.5794 18.8694 22.0136 -8.94949
524 1 17.2987 14.1527 11.0062 -8.9499
525 1 20.4413 14.1522 11.0068 -8.95008
526 1 1.57119 17.2976 11.007 -8.94924
682 1 14.1518 20.4416 20.4415 -8.94957
528 1 7.86139 17.3003 11.007 -8.95426
529 1 11.0063 17.2967 11.0063 -8.94962
681 1 12.5794 18.8694 18.8693 -8.94941
680 1 11.007 20.4416 20.4415 -8.94962
679 1 9.43453 18.8694 18.8693 -8.94959
533 1 1.57208 20.4418 11.007 -8.94956
678 1 7.86208 20.4416 20.4415 -8.94961
535 1 7.86232 20.4423 11.007 -8.95007
536 1 11.0069 20.4418 11.0069 -8.94909
677 1 6.28965 18.8694 18.8693 -8.94945
538 1 17.2969 20.4418 11.007 -8.94955
539 1 20.4415 20.4416 11.007 -8.94962
540 1 1.56831 11.007 14.154 -8.94919
541 1 4.70477 11.007 14.164 -8.93983
542 1 7.84943 11.007 14.1635 -8.96758
543 1 11.016 11.007 14.1423 -9.00553
544 1 14.1629 11.007 14.1629 -8.94004
545 1 17.3007 11.007 14.154 -8.9488
546 1 20.4415 11.007 14.1524 -8.95029
547 1 22.0118 12.5795 12.5796 -8.95195
548 1 1.5683 14.1535 14.1536 -8.95173
549 1 3.13328 12.5816 12.5832 -8.95957
550 1 4.70094 14.1672 14.1681 -8.92234
551 1 6.23883 12.6249 12.6331 -8.81872
552 1 7.86044 14.1584 14.163 -8.94799
553 1 9.40963 12.5819 12.5721 -8.8359
554 1 11.003 14.1545 14.1577 -8.95141
555 1 12.6365 12.6376 12.6365 -8.75174
556 1 14.1695 14.1695 14.1695 -8.91363
557 1 15.7352 12.5813 12.5821 -8.96446
558 1 17.3008 14.1536 14.1535 -8.95254
559 1 18.8709 12.5794 12.5794 -8.95261
560 1 20.4415 14.1522 14.1522 -8.95094
561 1 -0.00103597 15.7249 12.5795 -8.94972
562 1 1.57117 17.2977 14.1523 -8.94972
563 1 3.14049 15.7273 12.5806 -8.94943
564 1 4.71374 17.3024 14.1555 -8.94868
565 1 6.27932 15.7402 12.5894 -8.95021
566 1 7.86278 17.2991 14.1532 -8.94975
567 1 9.43373 15.7246 12.5789 -8.94964
568 1 11.0062 17.2984 14.1528 -8.9484
569 1 12.5853 15.7379 12.5853 -8.95992
570 1 14.1544 17.3018 14.1544 -8.9508
571 1 15.7267 15.7262 12.5793 -8.95076
572 1 17.2975 17.2975 14.152 -8.95017
573 1 18.8697 15.7247 12.5793 -8.94957
574 1 20.4414 17.297 14.1519 -8.94965
575 1 22.0136 18.8694 12.5794 -8.94949
576 1 1.57214 20.4418 14.1519 -8.94954
577 1 3.14393 18.8703 12.5796 -8.9491
578 1 4.71683 20.4425 14.1523 -8.95073
579 1 6.28915 18.8723 12.58 -8.95342
580 1 7.86228 20.4421 14.1521 -8.94965
581 1 9.43478 18.8699 12.5797 -8.94883
582 1 11.0069 20.442 14.1521 -8.94949
583 1 12.5795 18.8714 12.5795 -8.95368
584 1 14.1521 20.4423 14.1521 -8.9508
585 1 15.7247 18.8698 12.5793 -8.94942
586 1 17.2968 20.4417 14.1518 -8.94963
587 1 18.8693 18.8694 12.5794 -8.94941
588 1 20.4415 20.4416 14.1518 -8.94957
589 1 1.57138 11.007 17.2978 -8.94939
590 1 4.71503 11.007 17.301 -8.94877
591 1 7.86243 11.007 17.3003 -8.95088
592 1 11.0065 11.007 17.297 -8.94442
593 1 14.154 11.007 17.3007 -8.9488
594 1 17.2977 11.007 17.2977 -8.94948
595 1 20.4415 11.007 17.2971 -8.94952
596 1 -0.000977677 12.5796 15.7251 -8.94933
597 1 1.57143 14.1523 17.2977 -8.94923
598 1 3.14113 12.5806 15.728 -8.94713
599 1 4.71531 14.1537 17.3011 -8.95112
600 1 6.28551 12.5822 15.737 -8.95908
601 1 7.86298 14.1525 17.2994 -8.9518
602 1 9.43524 12.5778 15.7232 -8.94755
603 1 11.0062 14.1527 17.2987 -8.9499
604 1 12.5821 12.5813 15.7352 -8.96446
605 1 14.1535 14.1536 17.3008 -8.95254
606 1 15.7277 12.5805 15.7277 -8.94688
607 1 17.2976 14.1523 17.2976 -8.94926
608 1 18.8701 12.5796 15.7251 -8.94921
609 1 20.4415 14.152 17.297 -8.94941
610 1 22.0129 15.7249 15.725 -8.95002
611 1 1.57139 17.2977 17.2977 -8.94801
612 1 3.14036 15.7286 15.7287 -8.94295
613 1 4.71673 17.2978 17.2979 -8.94987
614 1 6.28849 15.7274 15.7285 -8.95011
615 1 7.86215 17.2976 17.2976 -8.9488
616 1 9.43471 15.7268 15.727 -8.94442
617 1 11.007 17.2976 17.2976 -8.94887
618 1 12.5793 15.7262 15.7267 -8.95076
619 1 14.152 17.2975 17.2975 -8.95017
620 1 15.729 15.7291 15.729 -8.94127
621 1 17.2978 17.2979 17.2978 -8.94766
622 1 18.8701 15.725 15.725 -8.95007
623 1 20.4415 17.297 17.297 -8.94955
624 1 -0.000281238 18.8694 15.7244 -8.94969
625 1 1.57212 20.4418 17.2969 -8.94941
626 1 3.14377 18.8706 15.7253 -8.94906
627 1 4.71723 20.4417 17.2969 -8.94972
628 1 6.28976 18.8701 15.7248 -8.94976
629 1 7.8621 20.4418 17.2969 -8.94951
630 1 9.43461 18.8701 15.725 -8.94938
631 1 11.007 20.4418 17.2969 -8.94955
632 1 12.5793 18.8698 15.7247 -8.94942
633 1 14.1518 20.4417 17.2968 -8.94963
634 1 15.7251 18.8706 15.7251 -8.94953
635 1 17.2969 20.4418 17.2969 -8.94951
636 1 18.8692 18.8693 15.7243 -8.94981
637 1 20.4415 20.4416 17.2967 -8.94969
638 1 1.57215 11.007 20.4417 -8.94957
639 1 4.71676 11.007 20.4423 -8.94992
640 1 7.86211 11.007 20.4421 -8.94969
641 1 11.0067 11.007 20.4411 -8.94885
642 1 14.1524 11.007 20.4415 -8.95029
643 1 17.2971 11.007 20.4415 -8.94952
644 1 20.4415 11.007 20.4415 -8.94962
645 1 22.0137 12.5794 18.8694 -8.94957
646 1 1.57217 14.1519 20.4417 -8.94951
647 1 3.14406 12.5796 18.8703 -8.94929
648 1 4.71691 14.152 20.4422 -8.95018
649 1 6.28936 12.5796 18.8717 -8.95198
650 1 7.86211 14.1521 20.4416 -8.9503
651 1 9.43474 12.5795 18.8696 -8.94811
652 1 11.0068 14.1522 20.4413 -8.95008
653 1 12.5794 12.5794 18.8709 -8.95261
654 1 14.1522 14.1522 20.4415 -8.95094
655 1 15.7251 12.5796 18.8701 -8.94921
656 1 17.297 14.152 20.4415 -8.94941
657 1 18.8693 12.5794 18.8693 -8.94955
658 1 20.4415 14.1518 20.4415 -8.94961
659 1 -0.000190055 15.7244 18.8693 -8.94959
660 1 1.57221 17.2968 20.4417 -8.94961
661 1 3.14413 15.7249 18.8703 -8.94972
662 1 4.71708 17.2969 20.4415 -8.94986
663 1 6.28966 15.7247 18.87 -8.95019
664 1 7.862 17.2971 20.4415 -8.94944
665 1 9.43453 15.7251 18.87 -8.94935
666 1 11.007 17.2971 20.4415 -8.9495
667 1 12.5793 15.7247 18.8697 -8.94957
668 1 14.1519 17.297 20.4414 -8.94965
669 1 15.725 15.725 18.8701 -8.95007
670 1 17.297 17.297 20.4415 -8.94955
671 1 18.8693 15.7244 18.8693 -8.94961
672 1 20.4415 17.2967 20.4415 -8.94967
673 1 22.0137 18.8693 18.8693 -8.94924
674 1 1.57235 20.4416 20.4415 -8.94958
675 1 3.14465 18.8694 18.8693 -8.9497
676 1 4.71723 20.4416 20.4415 -8.94959
351 1 22.0139 12.5794 22.0139 -8.94961
355 1 6.28935 12.5793 22.0138 -8.94983
357 1 9.43429 12.5794 22.0128 -8.94949
359 1 12.5796 12.5795 22.0118 -8.95195
363 1 18.8694 12.5794 22.0137 -8.94957
365 1 22.0139 15.7243 22.0139 -8.94956
369 1 6.2893 15.7246 22.0131 -8.95043
375 1 15.725 15.7249 22.0129 -8.95002
381 1 3.1446 18.8693 22.0136 -8.94948
371 1 9.4343 15.7249 22.0129 -8.94962
