ITEM: TIMESTEP
62
ITEM: NUMBER OF ATOMS
688
ITEM: BOX BOUNDS pp pp pp
0.0000000000000000e+00 2.2013900999999997e+01
0.0000000000000000e+00 2.2013900999999997e+01
0.0000000000000000e+00 2.2013900999999997e+01
ITEM: ATOMS id type x y z c_pot
175 1 18.8694 9.43442 9.43476 -8.94785
2 1 1.57204 1.57215 1.57204 -8.94922
3 1 3.14469 1.07697e-15 -0.000174001 -8.94962
4 1 4.71695 1.57204 1.57194 -8.94961
174 1 15.7224 9.43641 9.43494 -8.94767
6 1 7.86196 1.57199 1.57188 -8.94948
191 1 4.70231 7.8547 11.0084 -8.95285
8 1 11.007 1.57195 1.57184 -8.94951
173 1 12.5715 9.43239 9.40737 -8.8302
10 1 14.152 1.57194 1.57191 -8.94949
11 1 15.7243 1.8207e-15 -0.000206191 -8.94958
12 1 17.2971 1.57191 1.57191 -8.94936
172 1 9.38936 9.1825 9.38936 -7.70906
14 1 20.4415 1.57221 1.57226 -8.94952
15 1 -7.39777e-05 3.14461 -7.39777e-05 -8.94957
16 1 1.57202 4.71696 1.57202 -8.94993
171 1 6.27227 9.40614 9.41512 -8.90056
18 1 4.71603 4.71606 1.57067 -8.94919
19 1 6.28946 3.14434 -0.000420849 -8.94942
20 1 7.86156 4.71598 1.57079 -8.94896
170 1 3.14002 9.43394 9.43405 -8.95213
22 1 11.007 4.7158 1.57069 -8.94916
169 1 22.0126 9.43444 9.43424 -8.94939
24 1 14.1527 4.71563 1.5706 -8.94966
25 1 15.7246 3.14427 -0.000487944 -8.94966
26 1 17.2983 4.7157 1.57095 -8.94781
168 1 18.8701 6.28857 9.43452 -8.94934
28 1 20.4419 4.71689 1.57206 -8.9496
167 1 15.7274 6.28681 9.43454 -8.94404
30 1 1.5721 7.86203 1.5721 -8.94938
31 1 3.14445 6.28949 4.99535e-05 -8.94995
32 1 4.71669 7.86227 1.57173 -8.95001
166 1 12.5788 6.28986 9.43322 -8.94963
34 1 7.86128 7.86139 1.56919 -8.95281
190 1 1.56806 7.86063 11.0066 -8.95111
36 1 11.0066 7.86063 1.56806 -8.95111
37 1 12.5795 6.28873 -0.00148389 -8.94975
38 1 14.1542 7.85985 1.5673 -8.95179
165 1 9.43222 6.29946 9.43222 -9.01315
40 1 17.2983 7.86131 1.57091 -8.94907
41 1 18.8696 6.28936 -0.000338753 -8.94951
42 1 20.4419 7.8619 1.57199 -8.94946
164 1 6.28125 6.27823 9.43435 -8.94906
44 1 3.1443 9.43444 7.52962e-05 -8.94959
163 1 3.14002 6.28624 9.43365 -8.94712
162 1 22.0126 6.28868 9.4342 -8.94964
161 1 18.8694 3.14424 9.43454 -8.94954
48 1 15.7255 9.43412 -0.00142659 -8.94931
160 1 15.7252 3.14351 9.43463 -8.94933
50 1 -0.000174001 1.15783e-15 3.14469 -8.94962
51 1 1.57194 1.57204 4.71695 -8.94961
52 1 3.14431 7.68396e-16 3.14431 -8.94956
53 1 4.7164 1.57131 4.7164 -8.95002
54 1 6.28944 1.11775e-16 3.14429 -8.94958
55 1 7.8619 1.57125 4.71644 -8.94968
56 1 9.4345 7.60872e-16 3.14419 -8.94955
57 1 11.0072 1.57115 4.71637 -8.94955
58 1 12.5796 1.01236e-15 3.14424 -8.94948
59 1 14.1525 1.57103 4.71669 -8.95093
60 1 15.7247 1.58188e-15 3.14436 -8.95004
61 1 17.297 1.57199 4.71717 -8.94973
62 1 18.8692 1.22544e-15 3.14475 -8.9497
63 1 20.4415 1.57223 4.71717 -8.94955
64 1 22.0135 3.14439 3.14443 -8.94944
65 1 1.57067 4.71606 4.71603 -8.94919
66 1 3.14353 3.14363 3.14353 -8.94813
67 1 4.71287 4.71295 4.71287 -8.94387
68 1 6.28895 3.14338 3.14352 -8.94955
69 1 7.86062 4.71292 4.7139 -8.949
70 1 9.43437 3.14324 3.14346 -8.94932
71 1 11.0077 4.71266 4.7136 -8.94697
72 1 12.5798 3.14305 3.14352 -8.94902
73 1 14.1562 4.71046 4.71298 -8.94876
74 1 15.7258 3.14266 3.14335 -8.94905
75 1 17.2985 4.7156 4.71643 -8.94987
76 1 18.8696 3.14424 3.14448 -8.94969
77 1 20.4416 4.71675 4.71694 -8.94994
78 1 4.99535e-05 6.28949 3.14445 -8.94995
79 1 1.57173 7.86227 4.71669 -8.95001
80 1 3.14363 6.28928 3.14363 -8.95088
81 1 4.71479 7.86213 4.71479 -8.9539
82 1 6.28624 6.28641 3.13936 -8.94909
83 1 7.85439 7.85342 4.703 -8.95162
84 1 9.43365 6.28624 3.14002 -8.94712
85 1 11.0084 7.8547 4.70231 -8.95285
86 1 12.5812 6.28569 3.13936 -8.9493
87 1 14.1697 7.8455 4.69926 -8.92238
88 1 15.7298 6.2843 3.13934 -8.94266
89 1 17.3021 7.85967 4.71473 -8.95112
90 1 18.8708 6.28865 3.1438 -8.94973
91 1 20.4426 7.86175 4.71674 -8.95026
92 1 7.52962e-05 9.43444 3.1443 -8.94959
93 1 3.14389 9.43456 3.14389 -8.94877
94 1 6.289 9.43556 3.14357 -8.94946
95 1 9.43405 9.43394 3.14002 -8.95213
96 1 12.5841 9.43185 3.13175 -8.95961
97 1 15.7292 9.43288 3.14 -8.9469
98 1 18.8709 9.43417 3.14369 -8.94925
99 1 22.0137 -3.66839e-16 6.28958 -8.94955
100 1 1.57188 1.57199 7.86196 -8.94948
101 1 3.14429 3.8935e-16 6.28944 -8.94958
102 1 4.71644 1.57125 7.8619 -8.94968
103 1 6.28932 1.14071e-15 6.28932 -8.95073
104 1 7.86211 1.57076 7.86211 -8.95172
105 1 9.43471 9.89938e-16 6.28926 -8.95043
106 1 11.007 1.57152 7.86238 -8.94999
107 1 12.5796 1.16508e-15 6.28965 -8.95095
108 1 14.1522 1.57165 7.86235 -8.94968
109 1 15.7246 1.3119e-15 6.28973 -8.94966
110 1 17.2971 1.57199 7.86211 -8.94946
111 1 18.8692 9.23754e-16 6.28964 -8.94952
112 1 20.4415 1.57218 7.86205 -8.94956
113 1 -0.000420849 3.14434 6.28946 -8.94942
114 1 1.57079 4.71598 7.86156 -8.94896
115 1 3.14352 3.14338 6.28895 -8.94955
116 1 4.7139 4.71292 7.86062 -8.949
117 1 6.28808 3.14097 6.28808 -8.95163
118 1 7.86019 4.70852 7.86019 -8.96084
119 1 9.43482 3.14126 6.28818 -8.95052
120 1 11.007 4.71373 7.86109 -8.95442
121 1 12.5802 3.14109 6.28899 -8.95365
122 1 14.1534 4.71446 7.86262 -8.94986
123 1 15.7251 3.14341 6.28971 -8.9498
124 1 17.2979 4.71598 7.86215 -8.94864
125 1 18.8694 3.14432 6.28961 -8.94938
126 1 20.4415 4.71658 7.86194 -8.94939
127 1 22.0129 6.28908 6.28914 -8.95055
128 1 1.56919 7.86139 7.86128 -8.95281
129 1 3.13936 6.28641 6.28624 -8.94909
130 1 4.703 7.85342 7.85439 -8.95162
131 1 6.27597 6.27586 6.27597 -8.9261
132 1 7.82089 7.8204 7.82089 -8.83331
133 1 9.43435 6.27823 6.28125 -8.94906
134 1 11.0342 7.84538 7.82 -8.87368
135 1 12.5902 6.27286 6.27807 -8.95024
136 1 14.1637 7.85504 7.85921 -8.94796
137 1 15.7294 6.28569 6.28795 -8.95007
138 1 17.2998 7.86126 7.86299 -8.95202
139 1 18.8704 6.28894 6.28961 -8.95034
140 1 20.4416 7.86176 7.8621 -8.95035
141 1 22.0139 9.43459 6.28925 -8.94983
142 1 3.14357 9.43556 6.289 -8.94946
143 1 6.28764 9.43869 6.28764 -8.96262
144 1 9.41512 9.40614 6.27227 -8.90056
145 1 12.6341 9.38878 6.23667 -8.82187
146 1 15.7383 9.43123 6.28443 -8.95895
147 1 18.8723 9.43422 6.28921 -8.95212
148 1 22.0137 -5.19102e-16 9.4345 -8.94957
149 1 3.14419 1.19183e-15 9.4345 -8.94955
150 1 6.28926 1.42837e-15 9.43471 -8.95043
151 1 9.43471 1.26377e-15 9.43471 -8.94792
152 1 12.5796 6.63734e-16 9.43473 -8.94941
153 1 15.7247 8.5093e-16 9.4346 -8.94968
154 1 18.8692 -1.54334e-16 9.43454 -8.94958
155 1 -0.000467301 3.14424 9.43445 -8.9495
156 1 3.14346 3.14324 9.43437 -8.94932
157 1 6.28818 3.14126 9.43482 -8.95052
158 1 9.43462 3.14501 9.43462 -8.94478
159 1 12.5796 3.14405 9.43478 -8.94874
177 1 4.71637 1.57115 11.0072 -8.94955
180 1 14.1522 1.57179 11.0069 -8.94947
184 1 4.7136 4.71266 11.0077 -8.94697
187 1 14.153 4.71533 11.0061 -8.94834
188 1 17.2978 4.716 11.007 -8.94877
189 1 20.4414 4.71653 11.007 -8.94945
194 1 14.1581 7.85916 11.0025 -8.95098
21 1 9.43445 3.14424 -0.000467301 -8.9495
176 1 1.57184 1.57195 11.007 -8.94951
343 1 18.8695 9.43439 18.8695 -8.94948
178 1 7.86238 1.57152 11.007 -8.94999
179 1 11.0068 1.57218 11.0068 -8.94889
342 1 15.7254 9.43412 18.8704 -8.94918
181 1 17.2971 1.57201 11.007 -8.94951
182 1 20.4415 1.57217 11.007 -8.94957
183 1 1.57069 4.7158 11.007 -8.94916
341 1 12.5794 9.43442 18.871 -8.95292
185 1 7.86109 4.71373 11.007 -8.95442
186 1 11.0062 4.71784 11.0062 -8.94945
340 1 9.43476 9.43442 18.8694 -8.94785
339 1 6.28921 9.43422 18.8723 -8.95212
338 1 3.14369 9.43417 18.8709 -8.94925
337 1 22.0135 9.43441 18.8697 -8.94949
336 1 20.4416 7.86198 20.4416 -8.94955
192 1 7.82 7.84538 11.0342 -8.87368
193 1 11.0285 7.86512 11.0285 -8.90055
49 1 18.8697 9.43441 22.0135 -8.94949
195 1 17.2989 7.86107 11.0061 -8.95006
196 1 20.4411 7.86154 11.0067 -8.95012
197 1 22.0137 6.5473e-16 12.5794 -8.94956
198 1 1.57191 1.57194 14.152 -8.94949
199 1 3.14424 1.13775e-15 12.5796 -8.94948
200 1 4.71669 1.57103 14.1525 -8.95093
201 1 6.28965 1.18909e-15 12.5796 -8.95095
202 1 7.86235 1.57165 14.1522 -8.94968
203 1 9.43473 1.07738e-15 12.5796 -8.94941
204 1 11.0069 1.57179 14.1522 -8.94947
205 1 12.5794 -7.93375e-16 12.5794 -8.95078
206 1 14.1522 1.5713 14.1522 -8.95104
207 1 15.7245 4.66405e-16 12.5794 -8.94951
208 1 17.2969 1.57208 14.1518 -8.94963
209 1 18.8692 5.25674e-16 12.5794 -8.94953
210 1 20.4414 1.57221 14.1519 -8.94952
211 1 22.0134 3.14424 12.5795 -8.94942
212 1 1.5706 4.71563 14.1527 -8.94966
213 1 3.14352 3.14305 12.5798 -8.94902
214 1 4.71298 4.71046 14.1562 -8.94876
215 1 6.28899 3.14109 12.5802 -8.95365
216 1 7.86262 4.71446 14.1534 -8.94986
217 1 9.43478 3.14405 12.5796 -8.94874
218 1 11.0061 4.71533 14.153 -8.94834
219 1 12.5795 3.14217 12.5795 -8.95413
220 1 14.1549 4.71121 14.1549 -8.951
221 1 15.7248 3.14378 12.5793 -8.94942
222 1 17.2978 4.71603 14.1521 -8.95025
223 1 18.8693 3.14432 12.5795 -8.94934
224 1 20.4413 4.71667 14.152 -8.94966
225 1 -0.00148389 6.28873 12.5795 -8.94975
226 1 1.5673 7.85985 14.1542 -8.95179
227 1 3.13936 6.28569 12.5812 -8.9493
228 1 4.69926 7.8455 14.1697 -8.92238
229 1 6.27807 6.27286 12.5902 -8.95024
230 1 7.85921 7.85504 14.1637 -8.94796
231 1 9.43322 6.28986 12.5788 -8.94963
232 1 11.0025 7.85916 14.1581 -8.95098
233 1 12.5859 6.27496 12.5859 -8.96072
234 1 14.1714 7.84254 14.1714 -8.91098
235 1 15.7272 6.28721 12.5794 -8.95082
236 1 17.3016 7.85985 14.1539 -8.95286
237 1 18.8698 6.28894 12.5793 -8.94963
238 1 20.4414 7.8615 14.1523 -8.95113
239 1 22.0112 9.43426 12.5797 -8.95213
240 1 3.13175 9.43185 12.5841 -8.95961
241 1 6.23667 9.38878 12.6341 -8.82187
242 1 9.40737 9.43239 12.5715 -8.8302
243 1 12.6397 9.37274 12.6397 -8.74022
244 1 15.7362 9.43236 12.5826 -8.9652
245 1 18.871 9.43442 12.5794 -8.95292
246 1 -0.000206191 1.56206e-15 15.7243 -8.94958
247 1 1.57191 1.57191 17.2971 -8.94936
248 1 3.14436 1.7016e-15 15.7247 -8.95004
249 1 4.71717 1.57199 17.297 -8.94973
250 1 6.28973 1.52536e-15 15.7246 -8.94966
251 1 7.86211 1.57199 17.2971 -8.94946
252 1 9.4346 9.66446e-16 15.7247 -8.94968
253 1 11.007 1.57201 17.2971 -8.94951
254 1 12.5794 -2.62339e-17 15.7245 -8.94951
255 1 14.1518 1.57208 17.2969 -8.94963
256 1 15.7246 1.45081e-15 15.7246 -8.95016
257 1 17.2971 1.57191 17.2971 -8.94949
258 1 18.8692 1.80904e-15 15.7243 -8.94967
259 1 20.4415 1.57221 17.2968 -8.94967
260 1 -0.000487944 3.14427 15.7246 -8.94966
261 1 1.57095 4.7157 17.2983 -8.94781
262 1 3.14335 3.14266 15.7258 -8.94905
263 1 4.71643 4.7156 17.2985 -8.94987
264 1 6.28971 3.14341 15.7251 -8.9498
265 1 7.86215 4.71598 17.2979 -8.94864
266 1 9.43463 3.14351 15.7252 -8.94933
267 1 11.007 4.716 17.2978 -8.94877
268 1 12.5793 3.14378 15.7248 -8.94942
269 1 14.1521 4.71603 17.2978 -8.95025
270 1 15.7254 3.14281 15.7254 -8.94957
271 1 17.2982 4.71553 17.2982 -8.94736
272 1 18.8694 3.14433 15.7244 -8.94983
273 1 20.4415 4.71659 17.2973 -8.94952
274 1 22.0125 6.28857 15.7253 -8.95008
275 1 1.57091 7.86131 17.2983 -8.94907
276 1 3.13934 6.2843 15.7298 -8.94266
277 1 4.71473 7.85967 17.3021 -8.95112
278 1 6.28795 6.28569 15.7294 -8.95007
279 1 7.86299 7.86126 17.2998 -8.95202
280 1 9.43454 6.28681 15.7274 -8.94404
281 1 11.0061 7.86107 17.2989 -8.95006
282 1 12.5794 6.28721 15.7272 -8.95082
283 1 14.1539 7.85985 17.3016 -8.95286
284 1 15.73 6.28368 15.73 -8.94048
285 1 17.2981 7.86133 17.2981 -8.94914
286 1 18.8705 6.28852 15.7253 -8.95018
287 1 20.4415 7.86177 17.2973 -8.94934
288 1 -0.00142659 9.43412 15.7255 -8.94931
289 1 3.14 9.43288 15.7292 -8.9469
290 1 6.28443 9.43123 15.7383 -8.95895
291 1 9.43494 9.43641 15.7224 -8.94767
292 1 12.5826 9.43236 15.7362 -8.9652
293 1 15.7286 9.43305 15.7286 -8.94655
294 1 18.8704 9.43412 15.7254 -8.94918
295 1 22.0137 1.72813e-15 18.8692 -8.94936
296 1 1.57226 1.57221 20.4415 -8.94952
297 1 3.14475 1.18443e-15 18.8692 -8.9497
298 1 4.71717 1.57223 20.4415 -8.94955
299 1 6.28964 9.52048e-16 18.8692 -8.94952
300 1 7.86205 1.57218 20.4415 -8.94956
301 1 9.43454 -3.32847e-16 18.8692 -8.94958
302 1 11.007 1.57217 20.4415 -8.94957
303 1 12.5794 5.38217e-16 18.8692 -8.94953
304 1 14.1519 1.57221 20.4414 -8.94952
305 1 15.7243 1.87196e-15 18.8692 -8.94967
306 1 17.2968 1.57221 20.4415 -8.94967
307 1 18.8692 1.82181e-15 18.8692 -8.94946
308 1 20.4415 1.57225 20.4415 -8.94918
309 1 22.0136 3.14438 18.8695 -8.94912
310 1 1.57206 4.71689 20.4419 -8.9496
311 1 3.14448 3.14424 18.8696 -8.94969
312 1 4.71694 4.71675 20.4416 -8.94994
313 1 6.28961 3.14432 18.8694 -8.94938
314 1 7.86194 4.71658 20.4415 -8.94939
315 1 9.43454 3.14424 18.8694 -8.94954
316 1 11.007 4.71653 20.4414 -8.94945
317 1 12.5795 3.14432 18.8693 -8.94934
318 1 14.152 4.71667 20.4413 -8.94966
319 1 15.7244 3.14433 18.8694 -8.94983
320 1 17.2973 4.71659 20.4415 -8.94952
321 1 18.8694 3.1443 18.8694 -8.94897
322 1 20.4416 4.71706 20.4416 -8.94962
323 1 -0.000338753 6.28936 18.8696 -8.94951
324 1 1.57199 7.8619 20.4419 -8.94946
325 1 3.1438 6.28865 18.8708 -8.94973
326 1 4.71674 7.86175 20.4426 -8.95026
327 1 6.28961 6.28894 18.8704 -8.95034
328 1 7.8621 7.86176 20.4416 -8.95035
329 1 9.43452 6.28857 18.8701 -8.94934
330 1 11.0067 7.86154 20.4411 -8.95012
331 1 12.5793 6.28894 18.8698 -8.94963
332 1 14.1523 7.8615 20.4414 -8.95113
333 1 15.7253 6.28852 18.8705 -8.95018
334 1 17.2973 7.86177 20.4415 -8.94934
335 1 18.8695 6.28932 18.8695 -8.94954
1 1 22.0138 1.62345e-15 22.0138 -8.94938
5 1 6.28958 -2.3223e-16 22.0137 -8.94955
9 1 12.5794 1.36326e-15 22.0137 -8.94956
13 1 18.8692 1.52122e-15 22.0137 -8.94936
17 1 3.14443 3.14439 22.0135 -8.94944
47 1 12.5797 9.43426 22.0112 -8.95213
23 1 12.5795 3.14424 22.0134 -8.94942
27 1 18.8695 3.14438 22.0136 -8.94912
29 1 22.0139 6.28955 22.0139 -8.94951
33 1 6.28914 6.28908 22.0129 -8.95055
39 1 15.7253 6.28857 22.0125 -8.95008
43 1 22.0138 9.43447 22.0138 -8.94956
45 1 6.28925 9.43459 22.0139 -8.94983
46 1 9.43424 9.43444 22.0126 -8.94939
7 1 9.4345 -3.01357e-16 22.0137 -8.94957
35 1 9.4342 6.28868 22.0126 -8.94964
344 1 1.57204 11.007 1.57204 -8.94958
345 1 4.71639 11.007 1.57168 -8.94972
346 1 7.86155 11.007 1.57174 -8.94707
347 1 11.007 11.007 1.56856 -8.94891
348 1 14.1548 11.007 1.56724 -8.94924
349 1 17.2984 11.007 1.57085 -8.94929
350 1 20.442 11.007 1.57195 -8.94953
688 3 10.4302 11.007 9.39084 2.36619
352 1 1.5721 14.1519 1.5721 -8.94938
353 1 3.1443 12.5795 7.52962e-05 -8.94959
354 1 4.71669 14.1516 1.57173 -8.95001
687 3 9.39084 11.007 10.4302 2.36619
356 1 7.86128 14.1525 1.56919 -8.95281
511 1 18.8694 18.8697 9.43454 -8.94954
358 1 11.0066 14.1533 1.56806 -8.95111
510 1 15.7252 18.8704 9.43463 -8.94933
360 1 14.1542 14.154 1.5673 -8.95179
361 1 15.7255 12.5798 -0.00142659 -8.94931
362 1 17.2983 14.1526 1.57091 -8.94907
509 1 12.5796 18.8698 9.43478 -8.94874
364 1 20.4419 14.152 1.57199 -8.94946
508 1 9.43462 18.8689 9.43462 -8.94478
366 1 1.57202 17.2969 1.57202 -8.94993
367 1 3.14445 15.7244 4.99535e-05 -8.94995
368 1 4.71603 17.2978 1.57067 -8.94919
507 1 6.28818 18.8726 9.43482 -8.95052
370 1 7.86156 17.2979 1.57079 -8.94896
537 1 14.1522 20.4421 11.0069 -8.94947
372 1 11.007 17.2981 1.57069 -8.94916
373 1 12.5795 15.7252 -0.00148389 -8.94975
374 1 14.1527 17.2983 1.5706 -8.94966
506 1 3.14346 18.8707 9.43437 -8.94932
376 1 17.2983 17.2982 1.57095 -8.94781
377 1 18.8696 15.7245 -0.000338753 -8.94951
378 1 20.4419 17.297 1.57206 -8.9496
379 1 -7.39777e-05 18.8693 -7.39777e-05 -8.94957
380 1 1.57204 20.4417 1.57204 -8.94922
505 1 -0.000467301 18.8697 9.43445 -8.9495
382 1 4.71695 20.4419 1.57194 -8.94961
383 1 6.28946 18.8696 -0.000420849 -8.94942
384 1 7.86196 20.4419 1.57188 -8.94948
504 1 18.8701 15.7253 9.43452 -8.94934
386 1 11.007 20.442 1.57184 -8.94951
503 1 15.7274 15.7271 9.43454 -8.94404
388 1 14.152 20.442 1.57191 -8.94949
389 1 15.7246 18.8696 -0.000487944 -8.94966
390 1 17.2971 20.442 1.57191 -8.94936
502 1 12.5788 15.724 9.43322 -8.94963
392 1 20.4415 20.4417 1.57226 -8.94952
393 1 1.57168 11.007 4.71639 -8.94972
394 1 4.71516 11.007 4.71516 -8.94523
395 1 7.86388 11.007 4.72003 -8.93485
396 1 11.0146 11.007 4.70747 -9.01618
397 1 14.1657 11.007 4.70278 -8.93958
398 1 17.3021 11.007 4.71434 -8.94875
399 1 20.4427 11.007 4.71654 -8.94998
400 1 7.52962e-05 12.5795 3.1443 -8.94959
401 1 1.57173 14.1516 4.71669 -8.95001
402 1 3.14389 12.5793 3.14389 -8.94877
403 1 4.71479 14.1518 4.71479 -8.9539
404 1 6.289 12.5783 3.14357 -8.94946
405 1 7.85439 14.1605 4.703 -8.95162
406 1 9.43405 12.58 3.14002 -8.95213
407 1 11.0084 14.1592 4.70231 -8.95285
408 1 12.5841 12.5821 3.13175 -8.95961
409 1 14.1697 14.1684 4.69926 -8.92238
410 1 15.7292 12.581 3.14 -8.9469
411 1 17.3021 14.1542 4.71473 -8.95112
412 1 18.8709 12.5797 3.14369 -8.94925
413 1 20.4426 14.1521 4.71674 -8.95026
414 1 4.99535e-05 15.7244 3.14445 -8.94995
415 1 1.57067 17.2978 4.71603 -8.94919
416 1 3.14363 15.7246 3.14363 -8.95088
417 1 4.71287 17.3009 4.71287 -8.94387
418 1 6.28624 15.7275 3.13936 -8.94909
419 1 7.86062 17.301 4.7139 -8.949
420 1 9.43365 15.7277 3.14002 -8.94712
421 1 11.0077 17.3012 4.7136 -8.94697
422 1 12.5812 15.7282 3.13936 -8.9493
423 1 14.1562 17.3034 4.71298 -8.94876
424 1 15.7298 15.7296 3.13934 -8.94266
425 1 17.2985 17.2983 4.71643 -8.94987
426 1 18.8708 15.7252 3.1438 -8.94973
427 1 20.4416 17.2972 4.71694 -8.94994
428 1 22.0135 18.8695 3.14443 -8.94944
429 1 1.57194 20.4419 4.71695 -8.94961
430 1 3.14353 18.8703 3.14353 -8.94813
431 1 4.7164 20.4426 4.7164 -8.95002
432 1 6.28895 18.8705 3.14352 -8.94955
433 1 7.8619 20.4426 4.71644 -8.94968
434 1 9.43437 18.8707 3.14346 -8.94932
435 1 11.0072 20.4427 4.71637 -8.94955
436 1 12.5798 18.8709 3.14352 -8.94902
437 1 14.1525 20.4429 4.71669 -8.95093
438 1 15.7258 18.8712 3.14335 -8.94905
439 1 17.297 20.4419 4.71717 -8.94973
440 1 18.8696 18.8697 3.14448 -8.94969
441 1 20.4415 20.4417 4.71717 -8.94955
442 1 1.57174 11.007 7.86155 -8.94707
443 1 4.72003 11.007 7.86388 -8.93485
444 1 7.89148 11.007 7.89148 -8.87791
445 1 11.0992 11.007 7.54884 -7.95308
446 1 14.1635 11.007 7.84725 -8.96616
447 1 17.3005 11.007 7.86219 -8.95087
448 1 20.4422 11.007 7.86209 -8.94957
449 1 22.0139 12.5793 6.28925 -8.94983
450 1 1.56919 14.1525 7.86128 -8.95281
451 1 3.14357 12.5783 6.289 -8.94946
452 1 4.703 14.1605 7.85439 -8.95162
453 1 6.28764 12.5752 6.28764 -8.96262
454 1 7.82089 14.1935 7.82089 -8.83331
455 1 9.41512 12.6078 6.27227 -8.90056
456 1 11.0342 14.1685 7.82 -8.87368
457 1 12.6341 12.6251 6.23667 -8.82187
458 1 14.1637 14.1589 7.85921 -8.94796
459 1 15.7383 12.5827 6.28443 -8.95895
460 1 17.2998 14.1526 7.86299 -8.95202
461 1 18.8723 12.5797 6.28921 -8.95212
462 1 20.4416 14.1521 7.8621 -8.95035
463 1 22.0129 15.7248 6.28914 -8.95055
464 1 1.57079 17.2979 7.86156 -8.94896
465 1 3.13936 15.7275 6.28624 -8.94909
466 1 4.7139 17.301 7.86062 -8.949
467 1 6.27597 15.738 6.27597 -8.9261
468 1 7.86019 17.3054 7.86019 -8.96084
469 1 9.43435 15.7357 6.28125 -8.94906
470 1 11.007 17.3002 7.86109 -8.95442
471 1 12.5902 15.741 6.27807 -8.95024
472 1 14.1534 17.2994 7.86262 -8.94986
473 1 15.7294 15.7282 6.28795 -8.95007
474 1 17.2979 17.2979 7.86215 -8.94864
475 1 18.8704 15.725 6.28961 -8.95034
476 1 20.4415 17.2973 7.86194 -8.94939
477 1 -0.000420849 18.8696 6.28946 -8.94942
478 1 1.57188 20.4419 7.86196 -8.94948
479 1 3.14352 18.8705 6.28895 -8.94955
480 1 4.71644 20.4426 7.8619 -8.94968
481 1 6.28808 18.8729 6.28808 -8.95163
482 1 7.86211 20.4431 7.86211 -8.95172
483 1 9.43482 18.8726 6.28818 -8.95052
484 1 11.007 20.4424 7.86238 -8.94999
485 1 12.5802 18.8728 6.28899 -8.95365
486 1 14.1522 20.4423 7.86235 -8.94968
487 1 15.7251 18.8705 6.28971 -8.9498
488 1 17.2971 20.4419 7.86211 -8.94946
489 1 18.8694 18.8696 6.28961 -8.94938
490 1 20.4415 20.4417 7.86205 -8.94956
491 1 22.0126 12.5795 9.43424 -8.94939
492 1 3.14002 12.58 9.43405 -8.95213
493 1 6.27227 12.6078 9.41512 -8.90056
494 1 9.38936 12.8314 9.38936 -7.70906
495 1 12.5715 12.5815 9.40737 -8.8302
496 1 15.7224 12.5775 9.43494 -8.94767
497 1 18.8694 12.5795 9.43476 -8.94785
498 1 22.0126 15.7252 9.4342 -8.94964
499 1 3.14002 15.7277 9.43365 -8.94712
500 1 6.28125 15.7357 9.43435 -8.94906
501 1 9.43222 15.7144 9.43222 -9.01315
512 1 1.56856 11.007 11.007 -8.94891
517 1 17.2966 11.007 11.0065 -8.94398
519 1 1.56806 14.1533 11.0066 -8.95111
520 1 4.70231 14.1592 11.0084 -8.95285
527 1 4.7136 17.3012 11.0077 -8.94697
530 1 14.153 17.2986 11.0061 -8.94834
531 1 17.2978 17.2979 11.007 -8.94877
532 1 20.4414 17.2974 11.007 -8.94945
534 1 4.71637 20.4427 11.0072 -8.94955
518 1 20.4409 11.007 11.0066 -8.94861
523 1 14.1581 14.1547 11.0025 -8.95098
385 1 9.43445 18.8697 -0.000467301 -8.9495
686 1 20.4415 20.4417 20.4415 -8.94918
513 1 4.70747 11.007 11.0146 -9.01618
514 1 7.54884 11.007 11.0992 -7.95308
515 1 11.2563 11.007 11.2563 -7.38368
516 1 14.1409 11.007 11.0166 -9.00753
685 1 18.8694 18.8696 18.8694 -8.94897
391 1 18.8695 18.8695 22.0136 -8.94912
684 1 17.2968 20.4417 20.4415 -8.94967
683 1 15.7244 18.8696 18.8694 -8.94983
521 1 7.82 14.1685 11.0342 -8.87368
522 1 11.0285 14.1488 11.0285 -8.90055
387 1 12.5795 18.8697 22.0134 -8.94942
524 1 17.2989 14.1528 11.0061 -8.95006
525 1 20.4411 14.1524 11.0067 -8.95012
526 1 1.57069 17.2981 11.007 -8.94916
682 1 14.1519 20.4417 20.4414 -8.94952
528 1 7.86109 17.3002 11.007 -8.95442
529 1 11.0062 17.2961 11.0062 -8.94945
681 1 12.5795 18.8696 18.8693 -8.94934
680 1 11.007 20.4417 20.4415 -8.94957
679 1 9.43454 18.8697 18.8694 -8.94954
533 1 1.57184 20.442 11.007 -8.94951
678 1 7.86205 20.4417 20.4415 -8.94956
535 1 7.86238 20.4424 11.007 -8.94999
536 1 11.0068 20.4417 11.0068 -8.94889
677 1 6.28961 18.8696 18.8694 -8.94938
538 1 17.2971 20.4419 11.007 -8.94951
539 1 20.4415 20.4417 11.007 -8.94957
540 1 1.56724 11.007 14.1548 -8.94924
541 1 4.70278 11.007 14.1657 -8.93958
542 1 7.84725 11.007 14.1635 -8.96616
543 1 11.0166 11.007 14.1409 -9.00753
544 1 14.1642 11.007 14.1642 -8.93925
545 1 17.3014 11.007 14.1546 -8.94878
546 1 20.4414 11.007 14.1527 -8.95042
547 1 22.0112 12.5796 12.5797 -8.95213
548 1 1.5673 14.154 14.1542 -8.95179
549 1 3.13175 12.5821 12.5841 -8.95961
550 1 4.69926 14.1684 14.1697 -8.92238
551 1 6.23667 12.6251 12.6341 -8.82187
552 1 7.85921 14.1589 14.1637 -8.94796
553 1 9.40737 12.5815 12.5715 -8.8302
554 1 11.0025 14.1547 14.1581 -8.95098
555 1 12.6397 12.6412 12.6397 -8.74022
556 1 14.1714 14.1714 14.1714 -8.91098
557 1 15.7362 12.5815 12.5826 -8.9652
558 1 17.3016 14.1541 14.1539 -8.95286
559 1 18.871 12.5795 12.5794 -8.95292
560 1 20.4414 14.1524 14.1523 -8.95113
561 1 -0.00148389 15.7252 12.5795 -8.94975
562 1 1.5706 17.2983 14.1527 -8.94966
563 1 3.13936 15.7282 12.5812 -8.9493
564 1 4.71298 17.3034 14.1562 -8.94876
565 1 6.27807 15.741 12.5902 -8.95024
566 1 7.86262 17.2994 14.1534 -8.94986
567 1 9.43322 15.724 12.5788 -8.94963
568 1 11.0061 17.2986 14.153 -8.94834
569 1 12.5859 15.7389 12.5859 -8.96072
570 1 14.1549 17.3027 14.1549 -8.951
571 1 15.7272 15.7267 12.5794 -8.95082
572 1 17.2978 17.2979 14.1521 -8.95025
573 1 18.8698 15.725 12.5793 -8.94963
574 1 20.4413 17.2972 14.152 -8.94966
575 1 22.0134 18.8697 12.5795 -8.94942
576 1 1.57191 20.442 14.152 -8.94949
577 1 3.14352 18.8709 12.5798 -8.94902
578 1 4.71669 20.4429 14.1525 -8.95093
579 1 6.28899 18.8728 12.5802 -8.95365
580 1 7.86235 20.4423 14.1522 -8.94968
581 1 9.43478 18.8698 12.5796 -8.94874
582 1 11.0069 20.4421 14.1522 -8.94947
583 1 12.5795 18.8717 12.5795 -8.95413
584 1 14.1522 20.4426 14.1522 -8.95104
585 1 15.7248 18.8701 12.5793 -8.94942
586 1 17.2969 20.4418 14.1518 -8.94963
587 1 18.8693 18.8696 12.5795 -8.94934
588 1 20.4414 20.4417 14.1519 -8.94952
589 1 1.57085 11.007 17.2984 -8.94929
590 1 4.71434 11.007 17.3021 -8.94875
591 1 7.86219 11.007 17.3005 -8.95087
592 1 11.0065 11.007 17.2966 -8.94398
593 1 14.1546 11.007 17.3014 -8.94878
594 1 17.2982 11.007 17.2982 -8.94942
595 1 20.4415 11.007 17.2974 -8.94947
596 1 -0.00142659 12.5798 15.7255 -8.94931
597 1 1.57091 14.1526 17.2983 -8.94907
598 1 3.14 12.581 15.7292 -8.9469
599 1 4.71473 14.1542 17.3021 -8.95112
600 1 6.28443 12.5827 15.7383 -8.95895
601 1 7.86299 14.1526 17.2998 -8.95202
602 1 9.43494 12.5775 15.7224 -8.94767
603 1 11.0061 14.1528 17.2989 -8.95006
604 1 12.5826 12.5815 15.7362 -8.9652
605 1 14.1539 14.1541 17.3016 -8.95286
606 1 15.7286 12.5809 15.7286 -8.94655
607 1 17.2981 14.1526 17.2981 -8.94914
608 1 18.8704 12.5798 15.7254 -8.94918
609 1 20.4415 14.1521 17.2973 -8.94934
610 1 22.0125 15.7253 15.7253 -8.95008
611 1 1.57095 17.2982 17.2983 -8.94781
612 1 3.13934 15.7296 15.7298 -8.94266
613 1 4.71643 17.2983 17.2985 -8.94987
614 1 6.28795 15.7282 15.7294 -8.95007
615 1 7.86215 17.2979 17.2979 -8.94864
616 1 9.43454 15.7271 15.7274 -8.94404
617 1 11.007 17.2979 17.2978 -8.94877
618 1 12.5794 15.7267 15.7272 -8.95082
619 1 14.1521 17.2979 17.2978 -8.95025
620 1 15.73 15.7302 15.73 -8.94048
621 1 17.2982 17.2984 17.2982 -8.94736
622 1 18.8705 15.7254 15.7253 -8.95018
623 1 20.4415 17.2973 17.2973 -8.94952
624 1 -0.000487944 18.8696 15.7246 -8.94966
625 1 1.57191 20.442 17.2971 -8.94936
626 1 3.14335 18.8712 15.7258 -8.94905
627 1 4.71717 20.4419 17.297 -8.94973
628 1 6.28971 18.8705 15.7251 -8.9498
629 1 7.86211 20.4419 17.2971 -8.94946
630 1 9.43463 18.8704 15.7252 -8.94933
631 1 11.007 20.4419 17.2971 -8.94951
632 1 12.5793 18.8701 15.7248 -8.94942
633 1 14.1518 20.4418 17.2969 -8.94963
634 1 15.7254 18.8711 15.7254 -8.94957
635 1 17.2971 20.442 17.2971 -8.94949
636 1 18.8694 18.8696 15.7244 -8.94983
637 1 20.4415 20.4417 17.2968 -8.94967
638 1 1.57195 11.007 20.442 -8.94953
639 1 4.71654 11.007 20.4427 -8.94998
640 1 7.86209 11.007 20.4422 -8.94957
641 1 11.0066 11.007 20.4409 -8.94861
642 1 14.1527 11.007 20.4414 -8.95042
643 1 17.2974 11.007 20.4415 -8.94947
644 1 20.4416 11.007 20.4416 -8.94957
645 1 22.0135 12.5795 18.8697 -8.94949
646 1 1.57199 14.152 20.4419 -8.94946
647 1 3.14369 12.5797 18.8709 -8.94925
648 1 4.71674 14.1521 20.4426 -8.95026
649 1 6.28921 12.5797 18.8723 -8.95212
650 1 7.8621 14.1521 20.4416 -8.95035
651 1 9.43476 12.5795 18.8694 -8.94785
652 1 11.0067 14.1524 20.4411 -8.95012
653 1 12.5794 12.5795 18.871 -8.95292
654 1 14.1523 14.1524 20.4414 -8.95113
655 1 15.7254 12.5798 18.8704 -8.94918
656 1 17.2973 14.1521 20.4415 -8.94934
657 1 18.8695 12.5795 18.8695 -8.94948
658 1 20.4416 14.1519 20.4416 -8.94955
659 1 -0.000338753 15.7245 18.8696 -8.94951
660 1 1.57206 17.297 20.4419 -8.9496
661 1 3.1438 15.7252 18.8708 -8.94973
662 1 4.71694 17.2972 20.4416 -8.94994
663 1 6.28961 15.725 18.8704 -8.95034
664 1 7.86194 17.2973 20.4415 -8.94939
665 1 9.43452 15.7253 18.8701 -8.94934
666 1 11.007 17.2974 20.4414 -8.94945
667 1 12.5793 15.725 18.8698 -8.94963
668 1 14.152 17.2972 20.4413 -8.94966
669 1 15.7253 15.7254 18.8705 -8.95018
670 1 17.2973 17.2973 20.4415 -8.94952
671 1 18.8695 15.7246 18.8695 -8.94954
672 1 20.4416 17.2968 20.4416 -8.94962
673 1 22.0136 18.8695 18.8695 -8.94912
674 1 1.57226 20.4417 20.4415 -8.94952
675 1 3.14448 18.8697 18.8696 -8.94969
676 1 4.71717 20.4417 20.4415 -8.94955
351 1 22.0138 12.5794 22.0138 -8.94956
355 1 6.28925 12.5793 22.0139 -8.94983
357 1 9.43424 12.5795 22.0126 -8.94939
359 1 12.5797 12.5796 22.0112 -8.95213
363 1 18.8697 12.5795 22.0135 -8.94949
365 1 22.0139 15.7243 22.0139 -8.94951
369 1 6.28914 15.7248 22.0129 -8.95055
375 1 15.7253 15.7253 22.0125 -8.95008
381 1 3.14443 18.8695 22.0135 -8.94944
371 1 9.4342 15.7252 22.0126 -8.94964
