ITEM: TIMESTEP
88
ITEM: NUMBER OF ATOMS
688
ITEM: BOX BOUNDS pp pp pp
0.0000000000000000e+00 2.2013900999999997e+01
0.0000000000000000e+00 2.2013900999999997e+01
0.0000000000000000e+00 2.2013900999999997e+01
ITEM: ATOMS id type x y z c_pot
175 1 18.869 9.43444 9.43465 -8.94762
2 1 1.57178 1.57195 1.57178 -8.94914
3 1 3.14448 1.02523e-15 -0.000347123 -8.94954
4 1 4.71662 1.57178 1.57156 -8.94954
174 1 15.7216 9.43669 9.43421 -8.94774
6 1 7.8618 1.57171 1.57149 -8.9494
191 1 4.70031 7.85376 11.0091 -8.95263
8 1 11.007 1.57164 1.57143 -8.94944
173 1 12.571 9.43319 9.40547 -8.82253
10 1 14.1523 1.57158 1.5715 -8.94942
11 1 15.7245 1.74193e-15 -0.000459037 -8.9495
12 1 17.2975 1.57156 1.57156 -8.94931
172 1 9.39001 9.18853 9.39001 -7.725
14 1 20.4416 1.57198 1.57208 -8.94941
15 1 -0.000134335 3.1443 -0.000134335 -8.94949
16 1 1.57177 4.71663 1.57177 -8.95001
171 1 6.27012 9.40472 9.41426 -8.89864
18 1 4.71552 4.71553 1.57013 -8.9491
19 1 6.28922 3.14395 -0.000692222 -8.94935
20 1 7.86125 4.71536 1.57015 -8.94889
170 1 3.13901 9.43345 9.43421 -8.9523
22 1 11.0071 4.71509 1.5699 -8.94909
169 1 22.0121 9.43433 9.43426 -8.94933
24 1 14.1533 4.71474 1.56971 -8.94956
25 1 15.7249 3.14374 -0.00086482 -8.94959
26 1 17.299 4.7149 1.5703 -8.9477
168 1 18.8702 6.28823 9.43441 -8.94934
28 1 20.4422 4.7165 1.5718 -8.94958
167 1 15.7277 6.28653 9.43399 -8.94366
30 1 1.57202 7.86192 1.57202 -8.94936
31 1 3.14418 6.28925 0.000128413 -8.95004
32 1 4.71646 7.86213 1.57162 -8.9501
166 1 12.5786 6.29082 9.43247 -8.94968
34 1 7.86109 7.86097 1.56861 -8.95287
190 1 1.56693 7.86007 11.0069 -8.9512
36 1 11.0069 7.86007 1.56693 -8.9512
37 1 12.5798 6.28818 -0.00221082 -8.94979
38 1 14.1552 7.85909 1.56595 -8.95179
165 1 9.43214 6.30156 9.43214 -9.01218
40 1 17.2993 7.8607 1.57009 -8.94893
41 1 18.8701 6.28892 -0.00058513 -8.94937
42 1 20.4424 7.86166 1.57171 -8.9494
164 1 6.27995 6.27734 9.43416 -8.94921
44 1 3.14406 9.43437 0.000331135 -8.9496
163 1 3.13888 6.2853 9.43357 -8.94704
162 1 22.0121 6.28822 9.43411 -8.94966
161 1 18.8695 3.14387 9.43452 -8.94946
48 1 15.7263 9.43382 -0.00213458 -8.9493
160 1 15.7254 3.14323 9.43455 -8.94928
50 1 -0.000347123 6.99564e-16 3.14448 -8.94954
51 1 1.57156 1.57178 4.71662 -8.94954
52 1 3.14395 1.35714e-15 3.14395 -8.94953
53 1 4.71601 1.57096 4.71601 -8.95004
54 1 6.28917 1.14109e-15 3.14389 -8.94958
55 1 7.86174 1.57087 4.71606 -8.94978
56 1 9.43448 6.21802e-16 3.1438 -8.94953
57 1 11.0073 1.5708 4.71602 -8.94961
58 1 12.5798 1.15843e-15 3.14388 -8.94949
59 1 14.1528 1.57062 4.71646 -8.9511
60 1 15.7251 1.80114e-15 3.14407 -8.95016
61 1 17.2974 1.57167 4.71701 -8.94976
62 1 18.8694 1.72014e-15 3.14457 -8.94968
63 1 20.4415 1.57202 4.71702 -8.94949
64 1 22.0133 3.14404 3.14414 -8.94939
65 1 1.57013 4.71553 4.71552 -8.9491
66 1 3.14304 3.14318 3.14304 -8.94812
67 1 4.71219 4.71222 4.71219 -8.94393
68 1 6.28848 3.14273 3.1429 -8.9495
69 1 7.86012 4.71187 4.71303 -8.949
70 1 9.43429 3.14259 3.14284 -8.94928
71 1 11.008 4.71175 4.71254 -8.94688
72 1 12.5802 3.14229 3.14286 -8.94899
73 1 14.1571 4.70937 4.712 -8.94881
74 1 15.7264 3.14182 3.14275 -8.94908
75 1 17.2993 4.71478 4.71589 -8.94987
76 1 18.8699 3.14374 3.14416 -8.94967
77 1 20.4417 4.71634 4.71669 -8.95002
78 1 0.000128413 6.28925 3.14418 -8.95004
79 1 1.57162 7.86213 4.71646 -8.9501
80 1 3.1432 6.28894 3.1432 -8.95114
81 1 4.71442 7.86177 4.71442 -8.9544
82 1 6.28554 6.28555 3.13849 -8.94883
83 1 7.85373 7.85207 4.7019 -8.95071
84 1 9.43357 6.2853 3.13888 -8.94704
85 1 11.0091 7.85376 4.70031 -8.95263
86 1 12.582 6.28456 3.13784 -8.94917
87 1 14.1712 7.84457 4.69737 -8.92299
88 1 15.7311 6.28312 3.13807 -8.94264
89 1 17.3035 7.85897 4.71381 -8.95103
90 1 18.8717 6.28807 3.14328 -8.94971
91 1 20.4431 7.86153 4.71646 -8.95033
92 1 0.000331135 9.43437 3.14406 -8.9496
93 1 3.14379 9.43452 3.14379 -8.94875
94 1 6.28898 9.43539 3.14352 -8.9493
95 1 9.43421 9.43345 3.13901 -8.9523
96 1 12.5854 9.43135 3.12982 -8.95948
97 1 15.7308 9.43232 3.13838 -8.94676
98 1 18.8719 9.43391 3.14308 -8.94922
99 1 22.0135 1.1656e-15 6.28942 -8.94946
100 1 1.57149 1.57171 7.8618 -8.9494
101 1 3.14389 1.6753e-15 6.28917 -8.94958
102 1 4.71606 1.57087 7.86174 -8.94978
103 1 6.28914 6.85231e-16 6.28914 -8.95078
104 1 7.86205 1.57069 7.86205 -8.95175
105 1 9.43473 1.34215e-15 6.28913 -8.95055
106 1 11.0069 1.57162 7.8624 -8.9499
107 1 12.5796 1.83783e-15 6.28965 -8.95102
108 1 14.1523 1.57153 7.8624 -8.94973
109 1 15.7248 1.47908e-15 6.28974 -8.94972
110 1 17.2973 1.57177 7.86211 -8.94939
111 1 18.8694 7.85993e-16 6.28958 -8.94943
112 1 20.4414 1.57197 7.86198 -8.94948
113 1 -0.000692222 3.14395 6.28922 -8.94935
114 1 1.57015 4.71536 7.86125 -8.94889
115 1 3.1429 3.14273 6.28848 -8.9495
116 1 4.71303 4.71187 7.86012 -8.949
117 1 6.2877 3.14038 6.2877 -8.95165
118 1 7.85994 4.70841 7.85994 -8.96106
119 1 9.43479 3.1408 6.28775 -8.95074
120 1 11.0069 4.71421 7.86054 -8.95454
121 1 12.5803 3.14072 6.28865 -8.95376
122 1 14.1536 4.71423 7.86214 -8.95001
123 1 15.7255 3.14286 6.28951 -8.94988
124 1 17.2983 4.71551 7.86199 -8.94847
125 1 18.8696 3.14393 6.2895 -8.94929
126 1 20.4414 4.71615 7.86181 -8.94935
127 1 22.0126 6.28874 6.28888 -8.95065
128 1 1.56861 7.86097 7.86109 -8.95287
129 1 3.13849 6.28555 6.28554 -8.94883
130 1 4.7019 7.85207 7.85373 -8.95071
131 1 6.27548 6.27514 6.27548 -8.92654
132 1 7.82143 7.82046 7.82143 -8.83674
133 1 9.43416 6.27734 6.27995 -8.94921
134 1 11.0334 7.84618 7.81853 -8.87569
135 1 12.5908 6.27242 6.27653 -8.95032
136 1 14.164 7.85478 7.85736 -8.94808
137 1 15.7305 6.28482 6.28697 -8.95009
138 1 17.3 7.86112 7.86265 -8.95219
139 1 18.8708 6.28856 6.2894 -8.95051
140 1 20.4416 7.86161 7.86203 -8.95039
141 1 22.0141 9.43454 6.28914 -8.94981
142 1 3.14352 9.43539 6.28898 -8.9493
143 1 6.2879 9.43855 6.2879 -8.96406
144 1 9.41426 9.40472 6.27012 -8.89864
145 1 12.6342 9.38935 6.23456 -8.8248
146 1 15.7394 9.43084 6.28276 -8.95865
147 1 18.873 9.43408 6.28884 -8.95219
148 1 22.0134 -9.3862e-16 9.43446 -8.9495
149 1 3.1438 1.34779e-15 9.43448 -8.94953
150 1 6.28913 1.51351e-15 9.43473 -8.95055
151 1 9.4347 1.47455e-15 9.4347 -8.94753
152 1 12.5795 1.54264e-15 9.43479 -8.94925
153 1 15.7248 7.26669e-16 9.43464 -8.94967
154 1 18.8693 -3.03841e-16 9.43455 -8.94952
155 1 -0.000792457 3.14381 9.43438 -8.94942
156 1 3.14284 3.14259 9.43429 -8.94928
157 1 6.28775 3.1408 9.43479 -8.95074
158 1 9.43451 3.14574 9.43451 -8.94435
159 1 12.5795 3.14442 9.43465 -8.94864
177 1 4.71602 1.5708 11.0073 -8.94961
180 1 14.1522 1.57173 11.0069 -8.94948
184 1 4.71254 4.71175 11.008 -8.94688
187 1 14.1531 4.71518 11.0058 -8.94831
188 1 17.298 4.71561 11.007 -8.94868
189 1 20.4412 4.71607 11.007 -8.94941
194 1 14.1587 7.85872 11.0019 -8.95004
21 1 9.43438 3.14381 -0.000792457 -8.94942
176 1 1.57143 1.57164 11.007 -8.94944
343 1 18.8699 9.43421 18.8699 -8.94937
178 1 7.8624 1.57162 11.0069 -8.9499
179 1 11.0067 1.57247 11.0067 -8.94863
342 1 15.726 9.43385 18.8708 -8.94915
181 1 17.2972 1.57182 11.0071 -8.94946
182 1 20.4413 1.57196 11.007 -8.94949
183 1 1.5699 4.71509 11.0071 -8.94909
341 1 12.5796 9.43433 18.871 -8.95334
185 1 7.86054 4.71421 11.0069 -8.95454
186 1 11.0059 4.71897 11.0059 -8.94908
340 1 9.43465 9.43444 18.869 -8.94762
339 1 6.28884 9.43408 18.873 -8.95219
338 1 3.14308 9.43391 18.8719 -8.94922
337 1 22.0133 9.43424 18.8702 -8.94938
336 1 20.4418 7.86174 20.4418 -8.94944
192 1 7.81853 7.84618 11.0334 -8.87569
193 1 11.029 7.86729 11.029 -8.90108
49 1 18.8702 9.43424 22.0133 -8.94938
195 1 17.2989 7.8609 11.0059 -8.95022
196 1 20.4407 7.86131 11.0067 -8.95019
197 1 22.0134 1.59261e-15 12.5795 -8.94947
198 1 1.5715 1.57158 14.1523 -8.94942
199 1 3.14388 1.04183e-15 12.5798 -8.94949
200 1 4.71646 1.57062 14.1528 -8.9511
201 1 6.28965 1.72161e-15 12.5796 -8.95102
202 1 7.8624 1.57153 14.1523 -8.94973
203 1 9.43479 1.69884e-15 12.5795 -8.94925
204 1 11.0069 1.57173 14.1522 -8.94948
205 1 12.5793 2.24264e-16 12.5793 -8.95097
206 1 14.1522 1.57097 14.1522 -8.95136
207 1 15.7246 -2.76452e-16 12.5794 -8.94952
208 1 17.297 1.57183 14.1519 -8.94964
209 1 18.8692 9.45809e-16 12.5795 -8.94945
210 1 20.4413 1.57198 14.152 -8.94944
211 1 22.013 3.14377 12.5796 -8.94932
212 1 1.56971 4.71474 14.1533 -8.94956
213 1 3.14286 3.14229 12.5802 -8.94899
214 1 4.712 4.70937 14.1571 -8.94881
215 1 6.28865 3.14072 12.5803 -8.95376
216 1 7.86214 4.71423 14.1536 -8.95001
217 1 9.43465 3.14442 12.5795 -8.94864
218 1 11.0058 4.71518 14.1531 -8.94831
219 1 12.5794 3.14196 12.5794 -8.95467
220 1 14.1555 4.71002 14.1555 -8.95132
221 1 15.725 3.14339 12.5793 -8.94944
222 1 17.2982 4.71537 14.1524 -8.95033
223 1 18.8694 3.14396 12.5795 -8.94925
224 1 20.4411 4.71615 14.1522 -8.94968
225 1 -0.00221082 6.28818 12.5798 -8.94979
226 1 1.56595 7.85909 14.1552 -8.95179
227 1 3.13784 6.28456 12.582 -8.94917
228 1 4.69737 7.84457 14.1712 -8.92299
229 1 6.27653 6.27242 12.5908 -8.95032
230 1 7.85736 7.85478 14.164 -8.94808
231 1 9.43247 6.29082 12.5786 -8.94968
232 1 11.0019 7.85872 14.1587 -8.95004
233 1 12.5864 6.27371 12.5864 -8.96193
234 1 14.1741 7.83993 14.1741 -8.90689
235 1 15.7279 6.28649 12.5795 -8.95079
236 1 17.3026 7.85914 14.1546 -8.95323
237 1 18.8699 6.28855 12.5793 -8.94972
238 1 20.4411 7.86112 14.1527 -8.95135
239 1 22.0103 9.43406 12.5801 -8.9523
240 1 3.12982 9.43135 12.5854 -8.95948
241 1 6.23456 9.38935 12.6342 -8.8248
242 1 9.40547 9.43319 12.571 -8.82253
243 1 12.6446 9.36734 12.6446 -8.72389
244 1 15.7375 9.43183 12.5834 -8.96591
245 1 18.871 9.43433 12.5796 -8.95334
246 1 -0.000459037 1.38999e-15 15.7245 -8.9495
247 1 1.57156 1.57156 17.2975 -8.94931
248 1 3.14407 1.46357e-15 15.7251 -8.95016
249 1 4.71701 1.57167 17.2974 -8.94976
250 1 6.28974 1.66375e-15 15.7248 -8.94972
251 1 7.86211 1.57177 17.2973 -8.94939
252 1 9.43464 9.86709e-16 15.7248 -8.94967
253 1 11.0071 1.57182 17.2972 -8.94946
254 1 12.5794 1.74194e-17 15.7246 -8.94952
255 1 14.1519 1.57183 17.297 -8.94964
256 1 15.7247 1.49182e-15 15.7247 -8.95035
257 1 17.2973 1.57157 17.2973 -8.94947
258 1 18.8692 1.72961e-15 15.7244 -8.94967
259 1 20.4414 1.57194 17.297 -8.94961
260 1 -0.00086482 3.14374 15.7249 -8.94959
261 1 1.5703 4.7149 17.299 -8.9477
262 1 3.14275 3.14182 15.7264 -8.94908
263 1 4.71589 4.71478 17.2993 -8.94987
264 1 6.28951 3.14286 15.7255 -8.94988
265 1 7.86199 4.71551 17.2983 -8.94847
266 1 9.43455 3.14323 15.7254 -8.94928
267 1 11.007 4.71561 17.298 -8.94868
268 1 12.5793 3.14339 15.725 -8.94944
269 1 14.1524 4.71537 17.2982 -8.95033
270 1 15.7258 3.14202 15.7258 -8.94966
271 1 17.2988 4.71465 17.2988 -8.94698
272 1 18.8695 3.14384 15.7247 -8.94984
273 1 20.4415 4.716 17.2977 -8.94947
274 1 22.0119 6.28788 15.726 -8.95012
275 1 1.57009 7.8607 17.2993 -8.94893
276 1 3.13807 6.28312 15.7311 -8.94264
277 1 4.71381 7.85897 17.3035 -8.95103
278 1 6.28697 6.28482 15.7305 -8.95009
279 1 7.86265 7.86112 17.3 -8.95219
280 1 9.43399 6.28653 15.7277 -8.94366
281 1 11.0059 7.8609 17.2989 -8.95022
282 1 12.5795 6.28649 15.7279 -8.95079
283 1 14.1546 7.85914 17.3026 -8.95323
284 1 15.7314 6.28217 15.7314 -8.93933
285 1 17.2988 7.86076 17.2988 -8.94901
286 1 18.8709 6.28784 15.7258 -8.95029
287 1 20.4414 7.86137 17.2979 -8.94925
288 1 -0.00213458 9.43382 15.7263 -8.9493
289 1 3.13838 9.43232 15.7308 -8.94676
290 1 6.28276 9.43084 15.7394 -8.95865
291 1 9.43421 9.43669 15.7216 -8.94774
292 1 12.5834 9.43183 15.7375 -8.96591
293 1 15.7298 9.43256 15.7298 -8.9462
294 1 18.8708 9.43385 15.726 -8.94915
295 1 22.0136 1.29117e-15 18.8694 -8.94919
296 1 1.57208 1.57198 20.4416 -8.94941
297 1 3.14457 1.61668e-15 18.8694 -8.94968
298 1 4.71702 1.57202 20.4415 -8.94949
299 1 6.28958 1.13789e-15 18.8694 -8.94943
300 1 7.86198 1.57197 20.4414 -8.94948
301 1 9.43455 1.67618e-16 18.8693 -8.94952
302 1 11.007 1.57196 20.4413 -8.94949
303 1 12.5795 8.65632e-16 18.8692 -8.94945
304 1 14.152 1.57198 20.4413 -8.94944
305 1 15.7244 1.4276e-15 18.8692 -8.94967
306 1 17.297 1.57194 20.4414 -8.94961
307 1 18.8694 1.14118e-15 18.8694 -8.94933
308 1 20.4416 1.57203 20.4416 -8.94892
309 1 22.0134 3.14394 18.8699 -8.94896
310 1 1.5718 4.7165 20.4422 -8.94958
311 1 3.14416 3.14374 18.8699 -8.94967
312 1 4.71669 4.71634 20.4417 -8.95002
313 1 6.2895 3.14393 18.8696 -8.94929
314 1 7.86181 4.71615 20.4414 -8.94935
315 1 9.43452 3.14387 18.8695 -8.94946
316 1 11.007 4.71607 20.4412 -8.94941
317 1 12.5795 3.14396 18.8694 -8.94925
318 1 14.1522 4.71615 20.4411 -8.94968
319 1 15.7247 3.14384 18.8695 -8.94984
320 1 17.2977 4.716 20.4415 -8.94947
321 1 18.8697 3.14381 18.8697 -8.94875
322 1 20.4417 4.71668 20.4417 -8.9495
323 1 -0.00058513 6.28892 18.8701 -8.94937
324 1 1.57171 7.86166 20.4424 -8.9494
325 1 3.14328 6.28807 18.8717 -8.94971
326 1 4.71646 7.86153 20.4431 -8.95033
327 1 6.2894 6.28856 18.8708 -8.95051
328 1 7.86203 7.86161 20.4416 -8.95039
329 1 9.43441 6.28823 18.8702 -8.94934
330 1 11.0067 7.86131 20.4407 -8.95019
331 1 12.5793 6.28855 18.8699 -8.94972
332 1 14.1527 7.86112 20.4411 -8.95135
333 1 15.7258 6.28784 18.8709 -8.95029
334 1 17.2979 7.86137 20.4414 -8.94925
335 1 18.8698 6.28885 18.8698 -8.94942
1 1 22.0137 1.32565e-15 22.0137 -8.9492
5 1 6.28942 8.01439e-16 22.0135 -8.94946
9 1 12.5795 1.77025e-15 22.0134 -8.94947
13 1 18.8694 1.68865e-15 22.0136 -8.94919
17 1 3.14414 3.14404 22.0133 -8.94939
47 1 12.5801 9.43406 22.0103 -8.9523
23 1 12.5796 3.14377 22.013 -8.94932
27 1 18.8699 3.14394 22.0134 -8.94896
29 1 22.0139 6.28931 22.0139 -8.94945
33 1 6.28888 6.28874 22.0126 -8.95065
39 1 15.726 6.28788 22.0119 -8.95012
43 1 22.0139 9.43438 22.0139 -8.9495
45 1 6.28914 9.43454 22.0141 -8.94981
46 1 9.43426 9.43433 22.0121 -8.94933
7 1 9.43446 -7.1422e-16 22.0134 -8.9495
35 1 9.43411 6.28822 22.0121 -8.94966
344 1 1.572 11.007 1.572 -8.94954
345 1 4.71629 11.007 1.57181 -8.94977
346 1 7.86161 11.007 1.57163 -8.94684
347 1 11.0075 11.007 1.56757 -8.949
348 1 14.1559 11.007 1.56573 -8.9493
349 1 17.2994 11.007 1.57 -8.94919
350 1 20.4424 11.007 1.57166 -8.94947
688 3 10.4523 11.007 9.40191 2.34429
352 1 1.57202 14.152 1.57202 -8.94936
353 1 3.14406 12.5795 0.000331135 -8.9496
354 1 4.71646 14.1518 1.57162 -8.9501
687 3 9.40191 11.007 10.4523 2.34429
356 1 7.86109 14.1529 1.56861 -8.95287
511 1 18.8695 18.87 9.43452 -8.94946
358 1 11.0069 14.1538 1.56693 -8.9512
510 1 15.7254 18.8707 9.43455 -8.94928
360 1 14.1552 14.1548 1.56595 -8.95179
361 1 15.7263 12.5801 -0.00213458 -8.9493
362 1 17.2993 14.1532 1.57009 -8.94893
509 1 12.5795 18.8695 9.43465 -8.94864
364 1 20.4424 14.1522 1.57171 -8.9494
508 1 9.43451 18.8682 9.43451 -8.94435
366 1 1.57177 17.2973 1.57177 -8.95001
367 1 3.14418 15.7247 0.000128413 -8.95004
368 1 4.71552 17.2984 1.57013 -8.9491
507 1 6.28775 18.8731 9.43479 -8.95074
370 1 7.86125 17.2985 1.57015 -8.94889
537 1 14.1522 20.4422 11.0069 -8.94948
372 1 11.0071 17.2988 1.5699 -8.94909
373 1 12.5798 15.7257 -0.00221082 -8.94979
374 1 14.1533 17.2992 1.56971 -8.94956
506 1 3.14284 18.8713 9.43429 -8.94928
376 1 17.299 17.299 1.5703 -8.9477
377 1 18.8701 15.725 -0.00058513 -8.94937
378 1 20.4422 17.2974 1.5718 -8.94958
379 1 -0.000134335 18.8696 -0.000134335 -8.94949
380 1 1.57178 20.4419 1.57178 -8.94914
505 1 -0.000792457 18.8701 9.43438 -8.94942
382 1 4.71662 20.4421 1.57156 -8.94954
383 1 6.28922 18.8699 -0.000692222 -8.94935
384 1 7.8618 20.4422 1.57149 -8.9494
504 1 18.8702 15.7257 9.43441 -8.94934
386 1 11.007 20.4423 1.57143 -8.94944
503 1 15.7277 15.7274 9.43399 -8.94366
388 1 14.1523 20.4423 1.5715 -8.94942
389 1 15.7249 18.8702 -0.00086482 -8.94959
390 1 17.2975 20.4423 1.57156 -8.94931
502 1 12.5786 15.7231 9.43247 -8.94968
392 1 20.4416 20.4419 1.57208 -8.94941
393 1 1.57181 11.007 4.71629 -8.94977
394 1 4.71519 11.007 4.71519 -8.94535
395 1 7.86399 11.007 4.71988 -8.93323
396 1 11.0152 11.007 4.70551 -9.01607
397 1 14.1675 11.007 4.70026 -8.93961
398 1 17.3036 11.007 4.71324 -8.94871
399 1 20.4433 11.007 4.71622 -8.95003
400 1 0.000331135 12.5795 3.14406 -8.9496
401 1 1.57162 14.1518 4.71646 -8.9501
402 1 3.14379 12.5794 3.14379 -8.94875
403 1 4.71442 14.1521 4.71442 -8.9544
404 1 6.28898 12.5785 3.14352 -8.9493
405 1 7.85373 14.1618 4.7019 -8.95071
406 1 9.43421 12.5804 3.13901 -8.9523
407 1 11.0091 14.1601 4.70031 -8.95263
408 1 12.5854 12.5826 3.12982 -8.95948
409 1 14.1712 14.1693 4.69737 -8.92299
410 1 15.7308 12.5816 3.13838 -8.94676
411 1 17.3035 14.1549 4.71381 -8.95103
412 1 18.8719 12.58 3.14308 -8.94922
413 1 20.4431 14.1524 4.71646 -8.95033
414 1 0.000128413 15.7247 3.14418 -8.95004
415 1 1.57013 17.2984 4.71552 -8.9491
416 1 3.1432 15.725 3.1432 -8.95114
417 1 4.71219 17.3017 4.71219 -8.94393
418 1 6.28554 15.7283 3.13849 -8.94883
419 1 7.86012 17.302 4.71303 -8.949
420 1 9.43357 15.7286 3.13888 -8.94704
421 1 11.008 17.3022 4.71254 -8.94688
422 1 12.582 15.7293 3.13784 -8.94917
423 1 14.1571 17.3045 4.712 -8.94881
424 1 15.7311 15.7308 3.13807 -8.94264
425 1 17.2993 17.2991 4.71589 -8.94987
426 1 18.8717 15.7258 3.14328 -8.94971
427 1 20.4417 17.2976 4.71669 -8.95002
428 1 22.0133 18.8699 3.14414 -8.94939
429 1 1.57156 20.4421 4.71662 -8.94954
430 1 3.14304 18.8707 3.14304 -8.94812
431 1 4.71601 20.4429 4.71601 -8.95004
432 1 6.28848 18.8712 3.1429 -8.9495
433 1 7.86174 20.443 4.71606 -8.94978
434 1 9.43429 18.8713 3.14284 -8.94928
435 1 11.0073 20.4431 4.71602 -8.94961
436 1 12.5802 18.8716 3.14286 -8.94899
437 1 14.1528 20.4433 4.71646 -8.9511
438 1 15.7264 18.8721 3.14275 -8.94908
439 1 17.2974 20.4422 4.71701 -8.94976
440 1 18.8699 18.8702 3.14416 -8.94967
441 1 20.4415 20.4419 4.71702 -8.94949
442 1 1.57163 11.007 7.86161 -8.94684
443 1 4.71988 11.007 7.86399 -8.93323
444 1 7.894 11.007 7.894 -8.88842
445 1 11.0944 11.007 7.54686 -7.96277
446 1 14.1633 11.007 7.84467 -8.9644
447 1 17.3005 11.007 7.86152 -8.95085
448 1 20.4422 11.007 7.862 -8.94945
449 1 22.0141 12.5794 6.28914 -8.94981
450 1 1.56861 14.1529 7.86109 -8.95287
451 1 3.14352 12.5785 6.28898 -8.9493
452 1 4.7019 14.1618 7.85373 -8.95071
453 1 6.2879 12.5754 6.2879 -8.96406
454 1 7.82143 14.1934 7.82143 -8.83674
455 1 9.41426 12.6092 6.27012 -8.89864
456 1 11.0334 14.1677 7.81853 -8.87569
457 1 12.6342 12.6246 6.23456 -8.8248
458 1 14.164 14.1591 7.85736 -8.94808
459 1 15.7394 12.5831 6.28276 -8.95865
460 1 17.3 14.1528 7.86265 -8.95219
461 1 18.873 12.5798 6.28884 -8.95219
462 1 20.4416 14.1523 7.86203 -8.95039
463 1 22.0126 15.7252 6.28888 -8.95065
464 1 1.57015 17.2985 7.86125 -8.94889
465 1 3.13849 15.7283 6.28554 -8.94883
466 1 4.71303 17.302 7.86012 -8.949
467 1 6.27548 15.7388 6.27548 -8.92654
468 1 7.85994 17.3055 7.85994 -8.96106
469 1 9.43416 15.7366 6.27995 -8.94921
470 1 11.0069 17.2997 7.86054 -8.95454
471 1 12.5908 15.7415 6.27653 -8.95032
472 1 14.1536 17.2997 7.86214 -8.95001
473 1 15.7305 15.7291 6.28697 -8.95009
474 1 17.2983 17.2984 7.86199 -8.94847
475 1 18.8708 15.7253 6.2894 -8.95051
476 1 20.4414 17.2978 7.86181 -8.94935
477 1 -0.000692222 18.8699 6.28922 -8.94935
478 1 1.57149 20.4422 7.8618 -8.9494
479 1 3.1429 18.8712 6.28848 -8.9495
480 1 4.71606 20.443 7.86174 -8.94978
481 1 6.2877 18.8735 6.2877 -8.95165
482 1 7.86205 20.4432 7.86205 -8.95175
483 1 9.43479 18.8731 6.28775 -8.95074
484 1 11.0069 20.4423 7.8624 -8.9499
485 1 12.5803 18.8732 6.28865 -8.95376
486 1 14.1523 20.4424 7.8624 -8.94973
487 1 15.7255 18.871 6.28951 -8.94988
488 1 17.2973 20.4421 7.86211 -8.94939
489 1 18.8696 18.87 6.2895 -8.94929
490 1 20.4414 20.4419 7.86198 -8.94948
491 1 22.0121 12.5796 9.43426 -8.94933
492 1 3.13901 12.5804 9.43421 -8.9523
493 1 6.27012 12.6092 9.41426 -8.89864
494 1 9.39001 12.8254 9.39001 -7.725
495 1 12.571 12.5807 9.40547 -8.82253
496 1 15.7216 12.5772 9.43421 -8.94774
497 1 18.869 12.5795 9.43465 -8.94762
498 1 22.0121 15.7257 9.43411 -8.94966
499 1 3.13888 15.7286 9.43357 -8.94704
500 1 6.27995 15.7366 9.43416 -8.94921
501 1 9.43214 15.7123 9.43214 -9.01218
512 1 1.56757 11.007 11.0075 -8.949
517 1 17.2961 11.007 11.0064 -8.94387
519 1 1.56693 14.1538 11.0069 -8.9512
520 1 4.70031 14.1601 11.0091 -8.95263
527 1 4.71254 17.3022 11.008 -8.94688
530 1 14.1531 17.2987 11.0058 -8.94831
531 1 17.298 17.2983 11.007 -8.94868
532 1 20.4412 17.2978 11.007 -8.94941
534 1 4.71602 20.4431 11.0073 -8.94961
518 1 20.4403 11.007 11.0066 -8.94844
523 1 14.1587 14.1552 11.0019 -8.95004
385 1 9.43438 18.8701 -0.000792457 -8.94942
686 1 20.4416 20.4419 20.4416 -8.94892
513 1 4.70551 11.007 11.0152 -9.01607
514 1 7.54686 11.007 11.0944 -7.96277
515 1 11.2701 11.007 11.2701 -7.36006
516 1 14.1407 11.007 11.0177 -9.01027
685 1 18.8697 18.8701 18.8697 -8.94875
391 1 18.8699 18.87 22.0134 -8.94896
684 1 17.297 20.442 20.4414 -8.94961
683 1 15.7247 18.8701 18.8695 -8.94984
521 1 7.81853 14.1677 11.0334 -8.87569
522 1 11.029 14.1466 11.029 -8.90108
387 1 12.5796 18.8701 22.013 -8.94932
524 1 17.2989 14.153 11.0059 -8.95022
525 1 20.4407 14.1526 11.0067 -8.95019
526 1 1.5699 17.2988 11.0071 -8.94909
682 1 14.152 20.4419 20.4413 -8.94944
528 1 7.86054 17.2997 11.0069 -8.95454
529 1 11.0059 17.2949 11.0059 -8.94908
681 1 12.5795 18.8699 18.8694 -8.94925
680 1 11.007 20.4419 20.4413 -8.94949
679 1 9.43452 18.87 18.8695 -8.94946
533 1 1.57143 20.4423 11.007 -8.94944
678 1 7.86198 20.4419 20.4414 -8.94948
535 1 7.8624 20.4423 11.0069 -8.9499
536 1 11.0067 20.4414 11.0067 -8.94863
677 1 6.2895 18.87 18.8696 -8.94929
538 1 17.2972 20.4421 11.0071 -8.94946
539 1 20.4413 20.4419 11.007 -8.94949
540 1 1.56573 11.007 14.1559 -8.9493
541 1 4.70026 11.007 14.1675 -8.93961
542 1 7.84467 11.007 14.1633 -8.9644
543 1 11.0177 11.007 14.1407 -9.01027
544 1 14.1658 11.007 14.1658 -8.93836
545 1 17.3022 11.007 14.1554 -8.94867
546 1 20.4411 11.007 14.1531 -8.95057
547 1 22.0103 12.5798 12.5801 -8.9523
548 1 1.56595 14.1548 14.1552 -8.95179
549 1 3.12982 12.5826 12.5854 -8.95948
550 1 4.69737 14.1693 14.1712 -8.92299
551 1 6.23456 12.6246 12.6342 -8.8248
552 1 7.85736 14.1591 14.164 -8.94808
553 1 9.40547 12.5807 12.571 -8.82253
554 1 11.0019 14.1552 14.1587 -8.95004
555 1 12.6446 12.6466 12.6446 -8.72389
556 1 14.1741 14.174 14.1741 -8.90689
557 1 15.7375 12.5821 12.5834 -8.96591
558 1 17.3026 14.1548 14.1546 -8.95323
559 1 18.871 12.5796 12.5796 -8.95334
560 1 20.4411 14.1528 14.1527 -8.95135
561 1 -0.00221082 15.7257 12.5798 -8.94979
562 1 1.56971 17.2992 14.1533 -8.94956
563 1 3.13784 15.7293 12.582 -8.94917
564 1 4.712 17.3045 14.1571 -8.94881
565 1 6.27653 15.7415 12.5908 -8.95032
566 1 7.86214 17.2997 14.1536 -8.95001
567 1 9.43247 15.7231 12.5786 -8.94968
568 1 11.0058 17.2987 14.1531 -8.94831
569 1 12.5864 15.7402 12.5864 -8.96193
570 1 14.1555 17.3039 14.1555 -8.95132
571 1 15.7279 15.7274 12.5795 -8.95079
572 1 17.2982 17.2985 14.1524 -8.95033
573 1 18.8699 15.7253 12.5793 -8.94972
574 1 20.4411 17.2977 14.1522 -8.94968
575 1 22.013 18.8701 12.5796 -8.94932
576 1 1.5715 20.4423 14.1523 -8.94942
577 1 3.14286 18.8716 12.5802 -8.94899
578 1 4.71646 20.4433 14.1528 -8.9511
579 1 6.28865 18.8732 12.5803 -8.95376
580 1 7.8624 20.4424 14.1523 -8.94973
581 1 9.43465 18.8695 12.5795 -8.94864
582 1 11.0069 20.4422 14.1522 -8.94948
583 1 12.5794 18.8719 12.5794 -8.95467
584 1 14.1522 20.4429 14.1522 -8.95136
585 1 15.725 18.8705 12.5793 -8.94944
586 1 17.297 20.4421 14.1519 -8.94964
587 1 18.8694 18.8699 12.5795 -8.94925
588 1 20.4413 20.4419 14.152 -8.94944
589 1 1.57 11.007 17.2994 -8.94919
590 1 4.71324 11.007 17.3036 -8.94871
591 1 7.86152 11.007 17.3005 -8.95085
592 1 11.0064 11.007 17.2961 -8.94387
593 1 14.1554 11.007 17.3022 -8.94867
594 1 17.2989 11.007 17.2989 -8.94929
595 1 20.4414 11.007 17.298 -8.94941
596 1 -0.00213458 12.5801 15.7263 -8.9493
597 1 1.57009 14.1532 17.2993 -8.94893
598 1 3.13838 12.5816 15.7308 -8.94676
599 1 4.71381 14.1549 17.3035 -8.95103
600 1 6.28276 12.5831 15.7394 -8.95865
601 1 7.86265 14.1528 17.3 -8.95219
602 1 9.43421 12.5772 15.7216 -8.94774
603 1 11.0059 14.153 17.2989 -8.95022
604 1 12.5834 12.5821 15.7375 -8.96591
605 1 14.1546 14.1548 17.3026 -8.95323
606 1 15.7298 12.5813 15.7298 -8.9462
607 1 17.2988 14.1531 17.2988 -8.94901
608 1 18.8708 12.58 15.726 -8.94915
609 1 20.4414 14.1525 17.2979 -8.94925
610 1 22.0119 15.726 15.726 -8.95012
611 1 1.5703 17.299 17.299 -8.9477
612 1 3.13807 15.7308 15.7311 -8.94264
613 1 4.71589 17.2991 17.2993 -8.94987
614 1 6.28697 15.7291 15.7305 -8.95009
615 1 7.86199 17.2984 17.2983 -8.94847
616 1 9.43399 15.7274 15.7277 -8.94366
617 1 11.007 17.2983 17.298 -8.94868
618 1 12.5795 15.7274 15.7279 -8.95079
619 1 14.1524 17.2985 17.2982 -8.95033
620 1 15.7314 15.7317 15.7314 -8.93933
621 1 17.2988 17.2993 17.2988 -8.94698
622 1 18.8709 15.7261 15.7258 -8.95029
623 1 20.4415 17.2979 17.2977 -8.94947
624 1 -0.00086482 18.8702 15.7249 -8.94959
625 1 1.57156 20.4423 17.2975 -8.94931
626 1 3.14275 18.8721 15.7264 -8.94908
627 1 4.71701 20.4422 17.2974 -8.94976
628 1 6.28951 18.871 15.7255 -8.94988
629 1 7.86211 20.4421 17.2973 -8.94939
630 1 9.43455 18.8707 15.7254 -8.94928
631 1 11.0071 20.4421 17.2972 -8.94946
632 1 12.5793 18.8705 15.725 -8.94944
633 1 14.1519 20.4421 17.297 -8.94964
634 1 15.7258 18.8719 15.7258 -8.94966
635 1 17.2973 20.4423 17.2973 -8.94947
636 1 18.8695 18.8701 15.7247 -8.94984
637 1 20.4414 20.442 17.297 -8.94961
638 1 1.57166 11.007 20.4424 -8.94947
639 1 4.71622 11.007 20.4433 -8.95003
640 1 7.862 11.007 20.4422 -8.94945
641 1 11.0066 11.007 20.4403 -8.94844
642 1 14.1531 11.007 20.4411 -8.95057
643 1 17.298 11.007 20.4414 -8.94941
644 1 20.4418 11.007 20.4418 -8.94947
645 1 22.0133 12.5797 18.8702 -8.94938
646 1 1.57171 14.1522 20.4424 -8.9494
647 1 3.14308 12.58 18.8719 -8.94922
648 1 4.71646 14.1524 20.4431 -8.95033
649 1 6.28884 12.5798 18.873 -8.95219
650 1 7.86203 14.1523 20.4416 -8.95039
651 1 9.43465 12.5795 18.869 -8.94762
652 1 11.0067 14.1526 20.4407 -8.95019
653 1 12.5796 12.5796 18.871 -8.95334
654 1 14.1527 14.1528 20.4411 -8.95135
655 1 15.726 12.58 18.8708 -8.94915
656 1 17.2979 14.1525 20.4414 -8.94925
657 1 18.8699 12.5797 18.8699 -8.94937
658 1 20.4418 14.1522 20.4418 -8.94944
659 1 -0.00058513 15.725 18.8701 -8.94937
660 1 1.5718 17.2974 20.4422 -8.94958
661 1 3.14328 15.7258 18.8717 -8.94971
662 1 4.71669 17.2976 20.4417 -8.95002
663 1 6.2894 15.7253 18.8708 -8.95051
664 1 7.86181 17.2978 20.4414 -8.94935
665 1 9.43441 15.7257 18.8702 -8.94934
666 1 11.007 17.2978 20.4412 -8.94941
667 1 12.5793 15.7253 18.8699 -8.94972
668 1 14.1522 17.2977 20.4411 -8.94968
669 1 15.7258 15.7261 18.8709 -8.95029
670 1 17.2977 17.2979 20.4415 -8.94947
671 1 18.8698 15.7251 18.8698 -8.94942
672 1 20.4417 17.2972 20.4417 -8.9495
673 1 22.0134 18.87 18.8699 -8.94896
674 1 1.57208 20.4419 20.4416 -8.94941
675 1 3.14416 18.8702 18.8699 -8.94967
676 1 4.71702 20.4419 20.4415 -8.94949
351 1 22.0139 12.5795 22.0139 -8.9495
355 1 6.28914 12.5794 22.0141 -8.94981
357 1 9.43426 12.5796 22.0121 -8.94933
359 1 12.5801 12.5798 22.0103 -8.9523
363 1 18.8702 12.5797 22.0133 -8.94938
365 1 22.0139 15.7246 22.0139 -8.94945
369 1 6.28888 15.7252 22.0126 -8.95065
375 1 15.726 15.726 22.0119 -8.95012
381 1 3.14414 18.8699 22.0133 -8.94939
371 1 9.43411 15.7257 22.0121 -8.94966
