ITEM: TIMESTEP
57
ITEM: NUMBER OF ATOMS
688
ITEM: BOX BOUNDS pp pp pp
0.0000000000000000e+00 2.2013900999999997e+01
0.0000000000000000e+00 2.2013900999999997e+01
0.0000000000000000e+00 2.2013900999999997e+01
ITEM: ATOMS id type x y z c_pot
175 1 18.8695 9.43441 9.43476 -8.94791
2 1 1.57208 1.57219 1.57208 -8.94923
3 1 3.14472 1.06598e-15 -0.000146626 -8.94964
4 1 4.717 1.57209 1.572 -8.94963
174 1 15.7226 9.43633 9.43504 -8.94764
6 1 7.86198 1.57204 1.57195 -8.94949
191 1 4.70272 7.85492 11.0082 -8.95289
8 1 11.007 1.572 1.57191 -8.94953
173 1 12.5716 9.43228 9.40789 -8.8316
10 1 14.152 1.572 1.57198 -8.9495
11 1 15.7243 1.63223e-15 -0.00017072 -8.94959
12 1 17.2971 1.57196 1.57197 -8.94937
172 1 9.38919 9.18133 9.38919 -7.70529
14 1 20.4415 1.57224 1.57229 -8.94954
15 1 -6.30427e-05 3.14465 -6.30427e-05 -8.94958
16 1 1.57206 4.717 1.57206 -8.94991
171 1 6.27269 9.40649 9.41531 -8.90092
18 1 4.71612 4.71615 1.57078 -8.9492
19 1 6.28949 3.1444 -0.000373948 -8.94944
20 1 7.86162 4.71609 1.57091 -8.94897
170 1 3.14019 9.43403 9.43404 -8.95209
22 1 11.007 4.71592 1.57082 -8.94918
169 1 22.0126 9.43446 9.43425 -8.94941
24 1 14.1526 4.71578 1.57075 -8.94967
25 1 15.7245 3.14435 -0.000428308 -8.94967
26 1 17.2981 4.71584 1.57107 -8.94785
168 1 18.8701 6.28864 9.43453 -8.94934
28 1 20.4419 4.71695 1.5721 -8.9496
167 1 15.7273 6.28688 9.4346 -8.94413
30 1 1.57213 7.86205 1.57213 -8.94939
31 1 3.14449 6.28953 4.18405e-05 -8.94993
32 1 4.71673 7.86228 1.57176 -8.94999
166 1 12.5788 6.2897 9.43336 -8.94962
34 1 7.86133 7.86145 1.56931 -8.95278
190 1 1.56827 7.86073 11.0066 -8.95108
36 1 11.0066 7.86073 1.56827 -8.95108
37 1 12.5795 6.28882 -0.00136047 -8.94974
38 1 14.1541 7.86 1.56756 -8.95178
165 1 9.43224 6.29908 9.43224 -9.01327
40 1 17.2981 7.86141 1.57105 -8.94911
41 1 18.8695 6.28942 -0.0002964 -8.94953
42 1 20.4419 7.86194 1.57204 -8.94947
164 1 6.28152 6.27847 9.43439 -8.94907
44 1 3.14435 9.43445 4.60994e-05 -8.94959
163 1 3.14024 6.28642 9.43368 -8.94714
162 1 22.0127 6.28876 9.43423 -8.94963
161 1 18.8694 3.1443 9.43454 -8.94955
48 1 15.7254 9.43417 -0.00130265 -8.94931
160 1 15.7251 3.14358 9.43463 -8.94934
50 1 -0.000146626 1.19992e-15 3.14472 -8.94964
51 1 1.572 1.57209 4.717 -8.94963
52 1 3.14437 8.53841e-16 3.14437 -8.94956
53 1 4.71647 1.57137 4.71647 -8.95002
54 1 6.28948 2.65566e-16 3.14435 -8.94958
55 1 7.86193 1.57133 4.71651 -8.94966
56 1 9.4345 6.88175e-16 3.14426 -8.94956
57 1 11.0072 1.57123 4.71644 -8.94955
58 1 12.5796 1.06845e-15 3.14431 -8.94948
59 1 14.1524 1.57111 4.71673 -8.95089
60 1 15.7247 1.42081e-15 3.14441 -8.95001
61 1 17.297 1.57204 4.71719 -8.94973
62 1 18.8692 1.49652e-15 3.14477 -8.9497
63 1 20.4415 1.57226 4.71719 -8.94956
64 1 22.0135 3.14445 3.14448 -8.94945
65 1 1.57078 4.71615 4.71612 -8.9492
66 1 3.14363 3.14372 3.14363 -8.94815
67 1 4.71302 4.7131 4.71302 -8.94388
68 1 6.28903 3.1435 3.14363 -8.94956
69 1 7.86072 4.71314 4.71407 -8.94901
70 1 9.43439 3.14336 3.14357 -8.94933
71 1 11.0076 4.71286 4.71379 -8.94701
72 1 12.5798 3.14319 3.14363 -8.94904
73 1 14.156 4.71072 4.71318 -8.94874
74 1 15.7256 3.14282 3.14346 -8.94905
75 1 17.2983 4.71575 4.71652 -8.94987
76 1 18.8695 3.14432 3.14453 -8.9497
77 1 20.4415 4.71681 4.71698 -8.94992
78 1 4.18405e-05 6.28953 3.14449 -8.94993
79 1 1.57176 7.86228 4.71673 -8.94999
80 1 3.14372 6.28933 3.14372 -8.95082
81 1 4.71489 7.86219 4.71489 -8.95378
82 1 6.28639 6.28657 3.13956 -8.94914
83 1 7.85455 7.8537 4.70324 -8.95178
84 1 9.43368 6.28642 3.14024 -8.94714
85 1 11.0082 7.85492 4.70272 -8.95289
86 1 12.581 6.28592 3.13965 -8.94934
87 1 14.1693 7.84577 4.69967 -8.92231
88 1 15.7295 6.28456 3.1396 -8.94271
89 1 17.3019 7.85981 4.71489 -8.95113
90 1 18.8707 6.28875 3.14389 -8.94973
91 1 20.4425 7.86179 4.71679 -8.95024
92 1 4.60994e-05 9.43445 3.14435 -8.94959
93 1 3.14392 9.43456 3.14392 -8.94878
94 1 6.28901 9.43557 3.14358 -8.94948
95 1 9.43404 9.43403 3.14019 -8.95209
96 1 12.5839 9.43196 3.13214 -8.95961
97 1 15.7289 9.433 3.1403 -8.94695
98 1 18.8707 9.43421 3.14379 -8.94926
99 1 22.0137 -2.87891e-17 6.2896 -8.94956
100 1 1.57195 1.57204 7.86198 -8.94949
101 1 3.14435 3.30603e-16 6.28948 -8.94958
102 1 4.71651 1.57133 7.86193 -8.94966
103 1 6.28934 1.1381e-15 6.28934 -8.95072
104 1 7.86212 1.5708 7.86212 -8.95171
105 1 9.4347 6.31511e-16 6.28928 -8.9504
106 1 11.007 1.57152 7.86237 -8.95001
107 1 12.5796 1.26738e-15 6.28964 -8.95093
108 1 14.1522 1.57168 7.86233 -8.94968
109 1 15.7246 1.41755e-15 6.28972 -8.94965
110 1 17.297 1.57203 7.86211 -8.94947
111 1 18.8692 1.25221e-15 6.28965 -8.94953
112 1 20.4415 1.57222 7.86206 -8.94958
113 1 -0.000373948 3.1444 6.28949 -8.94944
114 1 1.57091 4.71609 7.86162 -8.94897
115 1 3.14363 3.1435 6.28903 -8.94956
116 1 4.71407 4.71314 7.86072 -8.94901
117 1 6.28816 3.1411 6.28816 -8.95163
118 1 7.86025 4.70859 7.86025 -8.96077
119 1 9.43483 3.14138 6.28826 -8.95046
120 1 11.007 4.71368 7.86118 -8.95439
121 1 12.5801 3.1412 6.28904 -8.9536
122 1 14.1533 4.71455 7.86268 -8.94982
123 1 15.725 3.14352 6.28973 -8.94979
124 1 17.2979 4.71607 7.86216 -8.94868
125 1 18.8694 3.14439 6.28963 -8.9494
126 1 20.4415 4.71665 7.86195 -8.9494
127 1 22.0129 6.28914 6.28918 -8.95052
128 1 1.56931 7.86145 7.86133 -8.95278
129 1 3.13956 6.28657 6.28639 -8.94914
130 1 4.70324 7.8537 7.85455 -8.95178
131 1 6.27612 6.27605 6.27612 -8.92611
132 1 7.82091 7.82053 7.82091 -8.83262
133 1 9.43439 6.27847 6.28152 -8.94907
134 1 11.0343 7.84531 7.82042 -8.87332
135 1 12.59 6.27303 6.27839 -8.95025
136 1 14.1635 7.85515 7.85954 -8.94795
137 1 15.7292 6.28589 6.28811 -8.95008
138 1 17.2997 7.86129 7.86301 -8.95197
139 1 18.8703 6.289 6.28963 -8.9503
140 1 20.4416 7.86179 7.86211 -8.95034
141 1 22.0139 9.43459 6.28927 -8.94983
142 1 3.14358 9.43557 6.28901 -8.94948
143 1 6.28759 9.43871 6.28759 -8.96236
144 1 9.41531 9.40649 6.27269 -8.90092
145 1 12.6339 9.38874 6.23717 -8.82087
146 1 15.738 9.43134 6.28473 -8.959
147 1 18.8722 9.43424 6.28926 -8.95209
148 1 22.0137 -3.20763e-16 9.43451 -8.94959
149 1 3.14426 1.08682e-15 9.4345 -8.94956
150 1 6.28928 1.08573e-15 9.4347 -8.9504
151 1 9.4347 1.13478e-15 9.4347 -8.94801
152 1 12.5796 5.47043e-16 9.43471 -8.94944
153 1 15.7246 1.03903e-15 9.43459 -8.94968
154 1 18.8692 6.07214e-17 9.43454 -8.94959
155 1 -0.000415148 3.14431 9.43446 -8.94951
156 1 3.14357 3.14336 9.43439 -8.94933
157 1 6.28826 3.14138 9.43483 -8.95046
158 1 9.43464 3.1449 9.43464 -8.94488
159 1 12.5796 3.14402 9.43478 -8.94877
177 1 4.71644 1.57123 11.0072 -8.94955
180 1 14.1522 1.57181 11.0069 -8.94947
184 1 4.71379 4.71286 11.0076 -8.94701
187 1 14.1529 4.71537 11.0061 -8.94835
188 1 17.2977 4.71608 11.007 -8.94879
189 1 20.4414 4.71661 11.007 -8.94946
194 1 14.158 7.85922 11.0027 -8.95111
21 1 9.43446 3.14431 -0.000415148 -8.94951
176 1 1.57191 1.572 11.007 -8.94953
343 1 18.8695 9.43441 18.8695 -8.9495
178 1 7.86237 1.57152 11.007 -8.95001
179 1 11.0069 1.57215 11.0069 -8.94894
342 1 15.7253 9.43416 18.8703 -8.94919
181 1 17.297 1.57205 11.007 -8.94952
182 1 20.4415 1.57221 11.007 -8.94959
183 1 1.57082 4.71592 11.007 -8.94918
341 1 12.5794 9.43444 18.871 -8.95284
185 1 7.86118 4.71368 11.007 -8.95439
186 1 11.0062 4.71766 11.0062 -8.94951
340 1 9.43476 9.43441 18.8695 -8.94791
339 1 6.28926 9.43424 18.8722 -8.95209
338 1 3.14379 9.43421 18.8707 -8.94926
337 1 22.0136 9.43443 18.8696 -8.94951
336 1 20.4416 7.86201 20.4416 -8.94957
192 1 7.82042 7.84531 11.0343 -8.87332
193 1 11.0283 7.86472 11.0283 -8.90052
49 1 18.8696 9.43443 22.0136 -8.94951
195 1 17.2988 7.8611 11.0061 -8.95002
196 1 20.4412 7.86158 11.0067 -8.95011
197 1 22.0137 4.60866e-16 12.5794 -8.94958
198 1 1.57198 1.572 14.152 -8.9495
199 1 3.14431 1.23203e-15 12.5796 -8.94948
200 1 4.71673 1.57111 14.1524 -8.95089
201 1 6.28964 1.23244e-15 12.5796 -8.95093
202 1 7.86233 1.57168 14.1522 -8.94968
203 1 9.43471 9.23987e-16 12.5796 -8.94944
204 1 11.0069 1.57181 14.1522 -8.94947
205 1 12.5794 -6.32826e-16 12.5794 -8.95074
206 1 14.1521 1.57136 14.1521 -8.95098
207 1 15.7245 3.16819e-16 12.5794 -8.94951
208 1 17.2969 1.57212 14.1518 -8.94963
209 1 18.8692 8.62088e-16 12.5794 -8.94954
210 1 20.4414 1.57225 14.1519 -8.94953
211 1 22.0135 3.14432 12.5795 -8.94944
212 1 1.57075 4.71578 14.1526 -8.94967
213 1 3.14363 3.14319 12.5798 -8.94904
214 1 4.71318 4.71072 14.156 -8.94874
215 1 6.28904 3.1412 12.5801 -8.9536
216 1 7.86268 4.71455 14.1533 -8.94982
217 1 9.43478 3.14402 12.5796 -8.94877
218 1 11.0061 4.71537 14.1529 -8.94835
219 1 12.5795 3.14223 12.5795 -8.95402
220 1 14.1548 4.71144 14.1548 -8.95094
221 1 15.7248 3.14385 12.5793 -8.94942
222 1 17.2977 4.71614 14.1521 -8.95023
223 1 18.8693 3.14438 12.5794 -8.94936
224 1 20.4414 4.71675 14.1519 -8.94966
225 1 -0.00136047 6.28882 12.5795 -8.94974
226 1 1.56756 7.86 14.1541 -8.95178
227 1 3.13965 6.28592 12.581 -8.94934
228 1 4.69967 7.84577 14.1693 -8.92231
229 1 6.27839 6.27303 12.59 -8.95025
230 1 7.85954 7.85515 14.1635 -8.94795
231 1 9.43336 6.2897 12.5788 -8.94962
232 1 11.0027 7.85922 14.158 -8.95111
233 1 12.5857 6.27521 12.5857 -8.96051
234 1 14.1709 7.84302 14.1709 -8.91168
235 1 15.7271 6.28733 12.5794 -8.95081
236 1 17.3014 7.85997 14.1538 -8.95279
237 1 18.8698 6.289 12.5793 -8.94962
238 1 20.4414 7.86156 14.1523 -8.95108
239 1 22.0114 9.4343 12.5797 -8.95209
240 1 3.13214 9.43196 12.5839 -8.95961
241 1 6.23717 9.38874 12.6339 -8.82087
242 1 9.40789 9.43228 12.5716 -8.8316
243 1 12.6389 9.37369 12.6389 -8.74314
244 1 15.7359 9.43243 12.5825 -8.96503
245 1 18.871 9.43444 12.5794 -8.95284
246 1 -0.00017072 1.56458e-15 15.7243 -8.94959
247 1 1.57197 1.57196 17.2971 -8.94937
248 1 3.14441 1.57739e-15 15.7247 -8.95001
249 1 4.71719 1.57204 17.297 -8.94973
250 1 6.28972 1.57728e-15 15.7246 -8.94965
251 1 7.86211 1.57203 17.297 -8.94947
252 1 9.43459 1.24319e-15 15.7246 -8.94968
253 1 11.007 1.57205 17.297 -8.94952
254 1 12.5794 6.59304e-17 15.7245 -8.94951
255 1 14.1518 1.57212 17.2969 -8.94963
256 1 15.7245 1.36064e-15 15.7245 -8.95013
257 1 17.297 1.57197 17.297 -8.9495
258 1 18.8691 1.62538e-15 15.7243 -8.94967
259 1 20.4415 1.57224 17.2968 -8.94968
260 1 -0.000428308 3.14435 15.7245 -8.94967
261 1 1.57107 4.71584 17.2981 -8.94785
262 1 3.14346 3.14282 15.7256 -8.94905
263 1 4.71652 4.71575 17.2983 -8.94987
264 1 6.28973 3.14352 15.725 -8.94979
265 1 7.86216 4.71607 17.2979 -8.94868
266 1 9.43463 3.14358 15.7251 -8.94934
267 1 11.007 4.71608 17.2977 -8.94879
268 1 12.5793 3.14385 15.7248 -8.94942
269 1 14.1521 4.71614 17.2977 -8.95023
270 1 15.7253 3.14296 15.7253 -8.94956
271 1 17.2981 4.71568 17.2981 -8.94743
272 1 18.8693 3.1444 15.7244 -8.94982
273 1 20.4415 4.71668 17.2972 -8.94953
274 1 22.0126 6.28868 15.7252 -8.95007
275 1 1.57105 7.86141 17.2981 -8.94911
276 1 3.1396 6.28456 15.7295 -8.94271
277 1 4.71489 7.85981 17.3019 -8.95113
278 1 6.28811 6.28589 15.7292 -8.95008
279 1 7.86301 7.86129 17.2997 -8.95197
280 1 9.4346 6.28688 15.7273 -8.94413
281 1 11.0061 7.8611 17.2988 -8.95002
282 1 12.5794 6.28733 15.7271 -8.95081
283 1 14.1538 7.85997 17.3014 -8.95279
284 1 15.7297 6.28396 15.7297 -8.94069
285 1 17.298 7.86142 17.298 -8.94917
286 1 18.8704 6.28862 15.7252 -8.95015
287 1 20.4415 7.86182 17.2973 -8.94936
288 1 -0.00130265 9.43417 15.7254 -8.94931
289 1 3.1403 9.433 15.7289 -8.94695
290 1 6.28473 9.43134 15.738 -8.959
291 1 9.43504 9.43633 15.7226 -8.94764
292 1 12.5825 9.43243 15.7359 -8.96503
293 1 15.7284 9.43314 15.7284 -8.94663
294 1 18.8703 9.43416 15.7253 -8.94919
295 1 22.0137 1.56769e-15 18.8692 -8.94939
296 1 1.57229 1.57224 20.4415 -8.94954
297 1 3.14477 1.32287e-15 18.8692 -8.9497
298 1 4.71719 1.57226 20.4415 -8.94956
299 1 6.28965 1.36492e-15 18.8692 -8.94953
300 1 7.86206 1.57222 20.4415 -8.94958
301 1 9.43454 2.69142e-16 18.8692 -8.94959
302 1 11.007 1.57221 20.4415 -8.94959
303 1 12.5794 9.93602e-16 18.8692 -8.94954
304 1 14.1519 1.57225 20.4414 -8.94953
305 1 15.7243 1.85296e-15 18.8691 -8.94967
306 1 17.2968 1.57224 20.4415 -8.94968
307 1 18.8692 1.69294e-15 18.8692 -8.94948
308 1 20.4415 1.57228 20.4415 -8.94923
309 1 22.0137 3.14445 18.8695 -8.94915
310 1 1.5721 4.71695 20.4419 -8.9496
311 1 3.14453 3.14432 18.8695 -8.9497
312 1 4.71698 4.71681 20.4415 -8.94992
313 1 6.28963 3.14439 18.8694 -8.9494
314 1 7.86195 4.71665 20.4415 -8.9494
315 1 9.43454 3.1443 18.8694 -8.94955
316 1 11.007 4.71661 20.4414 -8.94946
317 1 12.5794 3.14438 18.8693 -8.94936
318 1 14.1519 4.71675 20.4414 -8.94966
319 1 15.7244 3.1444 18.8693 -8.94982
320 1 17.2972 4.71668 20.4415 -8.94953
321 1 18.8694 3.14437 18.8694 -8.94901
322 1 20.4416 4.7171 20.4416 -8.94963
323 1 -0.0002964 6.28942 18.8695 -8.94953
324 1 1.57204 7.86194 20.4419 -8.94947
325 1 3.14389 6.28875 18.8707 -8.94973
326 1 4.71679 7.86179 20.4425 -8.95024
327 1 6.28963 6.289 18.8703 -8.9503
328 1 7.86211 7.86179 20.4416 -8.95034
329 1 9.43453 6.28864 18.8701 -8.94934
330 1 11.0067 7.86158 20.4412 -8.95011
331 1 12.5793 6.289 18.8698 -8.94962
332 1 14.1523 7.86156 20.4414 -8.95108
333 1 15.7252 6.28862 18.8704 -8.95015
334 1 17.2973 7.86182 20.4415 -8.94936
335 1 18.8694 6.28938 18.8694 -8.94956
1 1 22.0138 1.8019e-15 22.0138 -8.94941
5 1 6.2896 5.66507e-17 22.0137 -8.94956
9 1 12.5794 1.3182e-15 22.0137 -8.94958
13 1 18.8692 1.57155e-15 22.0137 -8.94939
17 1 3.14448 3.14445 22.0135 -8.94945
47 1 12.5797 9.4343 22.0114 -8.95209
23 1 12.5795 3.14432 22.0135 -8.94944
27 1 18.8695 3.14445 22.0137 -8.94915
29 1 22.0139 6.28958 22.0139 -8.94953
33 1 6.28918 6.28914 22.0129 -8.95052
39 1 15.7252 6.28868 22.0126 -8.95007
43 1 22.0138 9.43448 22.0138 -8.94958
45 1 6.28927 9.43459 22.0139 -8.94983
46 1 9.43425 9.43446 22.0126 -8.94941
7 1 9.43451 -1.87655e-16 22.0137 -8.94959
35 1 9.43423 6.28876 22.0127 -8.94963
344 1 1.57207 11.007 1.57207 -8.94959
345 1 4.71643 11.007 1.57168 -8.94971
346 1 7.86155 11.007 1.57175 -8.94712
347 1 11.007 11.007 1.56874 -8.94888
348 1 14.1546 11.007 1.56751 -8.94923
349 1 17.2982 11.007 1.571 -8.94932
350 1 20.4419 11.007 1.572 -8.94954
688 3 10.426 11.007 9.38951 2.36911
352 1 1.57213 14.1519 1.57213 -8.94939
353 1 3.14435 12.5795 4.60994e-05 -8.94959
354 1 4.71673 14.1516 1.57176 -8.94999
687 3 9.38951 11.007 10.426 2.36911
356 1 7.86133 14.1524 1.56931 -8.95278
511 1 18.8694 18.8696 9.43454 -8.94955
358 1 11.0066 14.1532 1.56827 -8.95108
510 1 15.7251 18.8703 9.43463 -8.94934
360 1 14.1541 14.1539 1.56756 -8.95178
361 1 15.7254 12.5797 -0.00130265 -8.94931
362 1 17.2981 14.1525 1.57105 -8.94911
509 1 12.5796 18.8699 9.43478 -8.94877
364 1 20.4419 14.152 1.57204 -8.94947
508 1 9.43464 18.869 9.43464 -8.94488
366 1 1.57206 17.2969 1.57206 -8.94991
367 1 3.14449 15.7244 4.18405e-05 -8.94993
368 1 4.71612 17.2977 1.57078 -8.9492
507 1 6.28826 18.8725 9.43483 -8.95046
370 1 7.86162 17.2978 1.57091 -8.94897
537 1 14.1522 20.4421 11.0069 -8.94947
372 1 11.007 17.298 1.57082 -8.94918
373 1 12.5795 15.7251 -0.00136047 -8.94974
374 1 14.1526 17.2981 1.57075 -8.94967
506 1 3.14357 18.8705 9.43439 -8.94933
376 1 17.2981 17.2981 1.57107 -8.94785
377 1 18.8695 15.7245 -0.0002964 -8.94953
378 1 20.4419 17.297 1.5721 -8.9496
379 1 -6.30427e-05 18.8692 -6.30427e-05 -8.94958
380 1 1.57208 20.4417 1.57208 -8.94923
505 1 -0.000415148 18.8696 9.43446 -8.94951
382 1 4.717 20.4418 1.572 -8.94963
383 1 6.28949 18.8695 -0.000373948 -8.94944
384 1 7.86198 20.4419 1.57195 -8.94949
504 1 18.8701 15.7253 9.43453 -8.94934
386 1 11.007 20.4419 1.57191 -8.94953
503 1 15.7273 15.727 9.4346 -8.94413
388 1 14.152 20.4419 1.57198 -8.9495
389 1 15.7245 18.8696 -0.000428308 -8.94967
390 1 17.2971 20.4419 1.57197 -8.94937
502 1 12.5788 15.7242 9.43336 -8.94962
392 1 20.4415 20.4417 1.57229 -8.94954
393 1 1.57168 11.007 4.71643 -8.94971
394 1 4.71516 11.007 4.71516 -8.94524
395 1 7.86383 11.007 4.71999 -8.93521
396 1 11.0145 11.007 4.70784 -9.0162
397 1 14.1653 11.007 4.70329 -8.93962
398 1 17.3019 11.007 4.71453 -8.94875
399 1 20.4426 11.007 4.7166 -8.94996
400 1 4.60994e-05 12.5795 3.14435 -8.94959
401 1 1.57176 14.1516 4.71673 -8.94999
402 1 3.14392 12.5793 3.14392 -8.94878
403 1 4.71489 14.1517 4.71489 -8.95378
404 1 6.28901 12.5783 3.14358 -8.94948
405 1 7.85455 14.1602 4.70324 -8.95178
406 1 9.43404 12.5799 3.14019 -8.95209
407 1 11.0082 14.159 4.70272 -8.95289
408 1 12.5839 12.5819 3.13214 -8.95961
409 1 14.1693 14.1681 4.69967 -8.92231
410 1 15.7289 12.5809 3.1403 -8.94695
411 1 17.3019 14.1541 4.71489 -8.95113
412 1 18.8707 12.5797 3.14379 -8.94926
413 1 20.4425 14.1521 4.71679 -8.95024
414 1 4.18405e-05 15.7244 3.14449 -8.94993
415 1 1.57078 17.2977 4.71612 -8.9492
416 1 3.14372 15.7246 3.14372 -8.95082
417 1 4.71302 17.3008 4.71302 -8.94388
418 1 6.28639 15.7273 3.13956 -8.94914
419 1 7.86072 17.3008 4.71407 -8.94901
420 1 9.43368 15.7275 3.14024 -8.94714
421 1 11.0076 17.301 4.71379 -8.94701
422 1 12.581 15.728 3.13965 -8.94934
423 1 14.156 17.3032 4.71318 -8.94874
424 1 15.7295 15.7293 3.1396 -8.94271
425 1 17.2983 17.2982 4.71652 -8.94987
426 1 18.8707 15.7252 3.14389 -8.94973
427 1 20.4415 17.2971 4.71698 -8.94992
428 1 22.0135 18.8695 3.14448 -8.94945
429 1 1.572 20.4418 4.717 -8.94963
430 1 3.14363 18.8702 3.14363 -8.94815
431 1 4.71647 20.4425 4.71647 -8.95002
432 1 6.28903 18.8704 3.14363 -8.94956
433 1 7.86193 20.4426 4.71651 -8.94966
434 1 9.43439 18.8705 3.14357 -8.94933
435 1 11.0072 20.4427 4.71644 -8.94955
436 1 12.5798 18.8707 3.14363 -8.94904
437 1 14.1524 20.4428 4.71673 -8.95089
438 1 15.7256 18.8711 3.14346 -8.94905
439 1 17.297 20.4419 4.71719 -8.94973
440 1 18.8695 18.8696 3.14453 -8.9497
441 1 20.4415 20.4416 4.71719 -8.94956
442 1 1.57175 11.007 7.86155 -8.94712
443 1 4.71999 11.007 7.86383 -8.93521
444 1 7.89096 11.007 7.89096 -8.87566
445 1 11.1004 11.007 7.54866 -7.95244
446 1 14.1636 11.007 7.84779 -8.96653
447 1 17.3005 11.007 7.86228 -8.95087
448 1 20.4422 11.007 7.8621 -8.9496
449 1 22.0139 12.5793 6.28927 -8.94983
450 1 1.56931 14.1524 7.86133 -8.95278
451 1 3.14358 12.5783 6.28901 -8.94948
452 1 4.70324 14.1602 7.85455 -8.95178
453 1 6.28759 12.5752 6.28759 -8.96236
454 1 7.82091 14.1934 7.82091 -8.83262
455 1 9.41531 12.6074 6.27269 -8.90092
456 1 11.0343 14.1686 7.82042 -8.87332
457 1 12.6339 12.6252 6.23717 -8.82087
458 1 14.1635 14.1587 7.85954 -8.94795
459 1 15.738 12.5826 6.28473 -8.959
460 1 17.2997 14.1526 7.86301 -8.95197
461 1 18.8722 12.5797 6.28926 -8.95209
462 1 20.4416 14.1521 7.86211 -8.95034
463 1 22.0129 15.7248 6.28918 -8.95052
464 1 1.57091 17.2978 7.86162 -8.94897
465 1 3.13956 15.7273 6.28639 -8.94914
466 1 4.71407 17.3008 7.86072 -8.94901
467 1 6.27612 15.7379 6.27612 -8.92611
468 1 7.86025 17.3053 7.86025 -8.96077
469 1 9.43439 15.7354 6.28152 -8.94907
470 1 11.007 17.3002 7.86118 -8.95439
471 1 12.59 15.7409 6.27839 -8.95025
472 1 14.1533 17.2994 7.86268 -8.94982
473 1 15.7292 15.728 6.28811 -8.95008
474 1 17.2979 17.2978 7.86216 -8.94868
475 1 18.8703 15.7249 6.28963 -8.9503
476 1 20.4415 17.2973 7.86195 -8.9494
477 1 -0.000373948 18.8695 6.28949 -8.94944
478 1 1.57195 20.4419 7.86198 -8.94949
479 1 3.14363 18.8704 6.28903 -8.94956
480 1 4.71651 20.4426 7.86193 -8.94966
481 1 6.28816 18.8728 6.28816 -8.95163
482 1 7.86212 20.4431 7.86212 -8.95171
483 1 9.43483 18.8725 6.28826 -8.95046
484 1 11.007 20.4424 7.86237 -8.95001
485 1 12.5801 18.8727 6.28904 -8.9536
486 1 14.1522 20.4422 7.86233 -8.94968
487 1 15.725 18.8704 6.28973 -8.94979
488 1 17.297 20.4419 7.86211 -8.94947
489 1 18.8694 18.8695 6.28963 -8.9494
490 1 20.4415 20.4417 7.86206 -8.94958
491 1 22.0126 12.5794 9.43425 -8.94941
492 1 3.14019 12.5799 9.43404 -8.95209
493 1 6.27269 12.6074 9.41531 -8.90092
494 1 9.38919 12.8326 9.38919 -7.70529
495 1 12.5716 12.5816 9.40789 -8.8316
496 1 15.7226 12.5776 9.43504 -8.94764
497 1 18.8695 12.5795 9.43476 -8.94791
498 1 22.0127 15.7251 9.43423 -8.94963
499 1 3.14024 15.7275 9.43368 -8.94714
500 1 6.28152 15.7354 9.43439 -8.94907
501 1 9.43224 15.7148 9.43224 -9.01327
512 1 1.56874 11.007 11.007 -8.94888
517 1 17.2967 11.007 11.0065 -8.94406
519 1 1.56827 14.1532 11.0066 -8.95108
520 1 4.70272 14.159 11.0082 -8.95289
527 1 4.71379 17.301 11.0076 -8.94701
530 1 14.1529 17.2985 11.0061 -8.94835
531 1 17.2977 17.2978 11.007 -8.94879
532 1 20.4414 17.2973 11.007 -8.94946
534 1 4.71644 20.4427 11.0072 -8.94955
518 1 20.4409 11.007 11.0066 -8.94866
523 1 14.158 14.1547 11.0027 -8.95111
385 1 9.43446 18.8696 -0.000415148 -8.94951
686 1 20.4415 20.4416 20.4415 -8.94923
513 1 4.70784 11.007 11.0145 -9.0162
514 1 7.54866 11.007 11.1004 -7.95244
515 1 11.254 11.007 11.254 -7.38609
516 1 14.1412 11.007 11.0164 -9.00702
685 1 18.8694 18.8695 18.8694 -8.94901
391 1 18.8695 18.8695 22.0137 -8.94915
684 1 17.2968 20.4417 20.4415 -8.94968
683 1 15.7244 18.8695 18.8693 -8.94982
521 1 7.82042 14.1686 11.0343 -8.87332
522 1 11.0283 14.1492 11.0283 -8.90052
387 1 12.5795 18.8696 22.0135 -8.94944
524 1 17.2988 14.1528 11.0061 -8.95002
525 1 20.4412 14.1523 11.0067 -8.95011
526 1 1.57082 17.298 11.007 -8.94918
682 1 14.1519 20.4417 20.4414 -8.94953
528 1 7.86118 17.3002 11.007 -8.95439
529 1 11.0062 17.2962 11.0062 -8.94951
681 1 12.5794 18.8695 18.8693 -8.94936
680 1 11.007 20.4417 20.4415 -8.94959
679 1 9.43454 18.8696 18.8694 -8.94955
533 1 1.57191 20.4419 11.007 -8.94953
678 1 7.86206 20.4417 20.4415 -8.94958
535 1 7.86237 20.4424 11.007 -8.95001
536 1 11.0069 20.4418 11.0069 -8.94894
677 1 6.28963 18.8695 18.8694 -8.9494
538 1 17.297 20.4419 11.007 -8.94952
539 1 20.4415 20.4417 11.007 -8.94959
540 1 1.56751 11.007 14.1546 -8.94923
541 1 4.70329 11.007 14.1653 -8.93962
542 1 7.84779 11.007 14.1636 -8.96653
543 1 11.0164 11.007 14.1412 -9.00702
544 1 14.1639 11.007 14.1639 -8.93944
545 1 17.3012 11.007 14.1544 -8.94879
546 1 20.4414 11.007 14.1526 -8.95039
547 1 22.0114 12.5796 12.5797 -8.95209
548 1 1.56756 14.1539 14.1541 -8.95178
549 1 3.13214 12.5819 12.5839 -8.95961
550 1 4.69967 14.1681 14.1693 -8.92231
551 1 6.23717 12.6252 12.6339 -8.82087
552 1 7.85954 14.1587 14.1635 -8.94795
553 1 9.40789 12.5816 12.5716 -8.8316
554 1 11.0027 14.1547 14.158 -8.95111
555 1 12.6389 12.6402 12.6389 -8.74314
556 1 14.1709 14.1709 14.1709 -8.91168
557 1 15.7359 12.5815 12.5825 -8.96503
558 1 17.3014 14.1539 14.1538 -8.95279
559 1 18.871 12.5795 12.5794 -8.95284
560 1 20.4414 14.1523 14.1523 -8.95108
561 1 -0.00136047 15.7251 12.5795 -8.94974
562 1 1.57075 17.2981 14.1526 -8.94967
563 1 3.13965 15.728 12.581 -8.94934
564 1 4.71318 17.3032 14.156 -8.94874
565 1 6.27839 15.7409 12.59 -8.95025
566 1 7.86268 17.2994 14.1533 -8.94982
567 1 9.43336 15.7242 12.5788 -8.94962
568 1 11.0061 17.2985 14.1529 -8.94835
569 1 12.5857 15.7387 12.5857 -8.96051
570 1 14.1548 17.3025 14.1548 -8.95094
571 1 15.7271 15.7266 12.5794 -8.95081
572 1 17.2977 17.2978 14.1521 -8.95023
573 1 18.8698 15.7249 12.5793 -8.94962
574 1 20.4414 17.2972 14.1519 -8.94966
575 1 22.0135 18.8696 12.5795 -8.94944
576 1 1.57198 20.4419 14.152 -8.9495
577 1 3.14363 18.8707 12.5798 -8.94904
578 1 4.71673 20.4428 14.1524 -8.95089
579 1 6.28904 18.8727 12.5801 -8.9536
580 1 7.86233 20.4422 14.1522 -8.94968
581 1 9.43478 18.8699 12.5796 -8.94877
582 1 11.0069 20.4421 14.1522 -8.94947
583 1 12.5795 18.8717 12.5795 -8.95402
584 1 14.1521 20.4425 14.1521 -8.95098
585 1 15.7248 18.87 12.5793 -8.94942
586 1 17.2969 20.4418 14.1518 -8.94963
587 1 18.8693 18.8695 12.5794 -8.94936
588 1 20.4414 20.4417 14.1519 -8.94953
589 1 1.571 11.007 17.2982 -8.94932
590 1 4.71453 11.007 17.3019 -8.94875
591 1 7.86228 11.007 17.3005 -8.95087
592 1 11.0065 11.007 17.2967 -8.94406
593 1 14.1544 11.007 17.3012 -8.94879
594 1 17.2981 11.007 17.2981 -8.94944
595 1 20.4415 11.007 17.2973 -8.94948
596 1 -0.00130265 12.5797 15.7254 -8.94931
597 1 1.57105 14.1525 17.2981 -8.94911
598 1 3.1403 12.5809 15.7289 -8.94695
599 1 4.71489 14.1541 17.3019 -8.95113
600 1 6.28473 12.5826 15.738 -8.959
601 1 7.86301 14.1526 17.2997 -8.95197
602 1 9.43504 12.5776 15.7226 -8.94764
603 1 11.0061 14.1528 17.2988 -8.95002
604 1 12.5825 12.5815 15.7359 -8.96503
605 1 14.1538 14.1539 17.3014 -8.95279
606 1 15.7284 12.5808 15.7284 -8.94663
607 1 17.298 14.1525 17.298 -8.94917
608 1 18.8703 12.5797 15.7253 -8.94919
609 1 20.4415 14.1521 17.2973 -8.94936
610 1 22.0126 15.7252 15.7252 -8.95007
611 1 1.57107 17.2981 17.2981 -8.94785
612 1 3.1396 15.7293 15.7295 -8.94271
613 1 4.71652 17.2982 17.2983 -8.94987
614 1 6.28811 15.728 15.7292 -8.95008
615 1 7.86216 17.2978 17.2979 -8.94868
616 1 9.4346 15.727 15.7273 -8.94413
617 1 11.007 17.2978 17.2977 -8.94879
618 1 12.5794 15.7266 15.7271 -8.95081
619 1 14.1521 17.2978 17.2977 -8.95023
620 1 15.7297 15.7299 15.7297 -8.94069
621 1 17.2981 17.2982 17.2981 -8.94743
622 1 18.8704 15.7253 15.7252 -8.95015
623 1 20.4415 17.2972 17.2972 -8.94953
624 1 -0.000428308 18.8696 15.7245 -8.94967
625 1 1.57197 20.4419 17.2971 -8.94937
626 1 3.14346 18.8711 15.7256 -8.94905
627 1 4.71719 20.4419 17.297 -8.94973
628 1 6.28973 18.8704 15.725 -8.94979
629 1 7.86211 20.4419 17.297 -8.94947
630 1 9.43463 18.8703 15.7251 -8.94934
631 1 11.007 20.4419 17.297 -8.94952
632 1 12.5793 18.87 15.7248 -8.94942
633 1 14.1518 20.4418 17.2969 -8.94963
634 1 15.7253 18.8709 15.7253 -8.94956
635 1 17.297 20.4419 17.297 -8.9495
636 1 18.8693 18.8695 15.7244 -8.94982
637 1 20.4415 20.4417 17.2968 -8.94968
638 1 1.572 11.007 20.4419 -8.94954
639 1 4.7166 11.007 20.4426 -8.94996
640 1 7.8621 11.007 20.4422 -8.9496
641 1 11.0066 11.007 20.4409 -8.94866
642 1 14.1526 11.007 20.4414 -8.95039
643 1 17.2973 11.007 20.4415 -8.94948
644 1 20.4416 11.007 20.4416 -8.94958
645 1 22.0136 12.5795 18.8696 -8.94951
646 1 1.57204 14.152 20.4419 -8.94947
647 1 3.14379 12.5797 18.8707 -8.94926
648 1 4.71679 14.1521 20.4425 -8.95024
649 1 6.28926 12.5797 18.8722 -8.95209
650 1 7.86211 14.1521 20.4416 -8.95034
651 1 9.43476 12.5795 18.8695 -8.94791
652 1 11.0067 14.1523 20.4412 -8.95011
653 1 12.5794 12.5795 18.871 -8.95284
654 1 14.1523 14.1523 20.4414 -8.95108
655 1 15.7253 12.5797 18.8703 -8.94919
656 1 17.2973 14.1521 20.4415 -8.94936
657 1 18.8695 12.5795 18.8695 -8.9495
658 1 20.4416 14.1519 20.4416 -8.94957
659 1 -0.0002964 15.7245 18.8695 -8.94953
660 1 1.5721 17.297 20.4419 -8.9496
661 1 3.14389 15.7252 18.8707 -8.94973
662 1 4.71698 17.2971 20.4415 -8.94992
663 1 6.28963 15.7249 18.8703 -8.9503
664 1 7.86195 17.2973 20.4415 -8.9494
665 1 9.43453 15.7253 18.8701 -8.94934
666 1 11.007 17.2973 20.4414 -8.94946
667 1 12.5793 15.7249 18.8698 -8.94962
668 1 14.1519 17.2972 20.4414 -8.94966
669 1 15.7252 15.7253 18.8704 -8.95015
670 1 17.2972 17.2972 20.4415 -8.94953
671 1 18.8694 15.7245 18.8694 -8.94956
672 1 20.4416 17.2968 20.4416 -8.94963
673 1 22.0137 18.8695 18.8695 -8.94915
674 1 1.57229 20.4417 20.4415 -8.94954
675 1 3.14453 18.8696 18.8695 -8.9497
676 1 4.71719 20.4416 20.4415 -8.94956
351 1 22.0138 12.5794 22.0138 -8.94958
355 1 6.28927 12.5793 22.0139 -8.94983
357 1 9.43425 12.5794 22.0126 -8.94941
359 1 12.5797 12.5796 22.0114 -8.95209
363 1 18.8696 12.5795 22.0136 -8.94951
365 1 22.0139 15.7243 22.0139 -8.94953
369 1 6.28918 15.7248 22.0129 -8.95052
375 1 15.7252 15.7252 22.0126 -8.95007
381 1 3.14448 18.8695 22.0135 -8.94945
371 1 9.43423 15.7251 22.0127 -8.94963
