ITEM: TIMESTEP
111
ITEM: NUMBER OF ATOMS
688
ITEM: BOX BOUNDS pp pp pp
0.0000000000000000e+00 2.2013900999999997e+01
0.0000000000000000e+00 2.2013900999999997e+01
0.0000000000000000e+00 2.2013900999999997e+01
ITEM: ATOMS id type x y z c_pot
175 1 18.8687 9.43441 9.43441 -8.94755
2 1 1.57162 1.57178 1.57162 -8.9491
3 1 3.14429 9.60434e-16 -0.000466169 -8.94947
4 1 4.71637 1.57159 1.5713 -8.94949
174 1 15.7211 9.4368 9.43356 -8.94756
6 1 7.86167 1.5715 1.57119 -8.94936
191 1 4.69905 7.85331 11.0095 -8.95244
8 1 11.0071 1.57143 1.57109 -8.9494
173 1 12.5704 9.4342 9.4047 -8.8152
10 1 14.1525 1.57132 1.57116 -8.94939
11 1 15.7247 1.92779e-15 -0.000685046 -8.94945
12 1 17.2978 1.5713 1.57131 -8.94929
172 1 9.3905 9.19525 9.3905 -7.74211
14 1 20.4417 1.57178 1.57193 -8.94933
15 1 -0.000148776 3.14399 -0.000148776 -8.94943
16 1 1.57164 4.71631 1.57164 -8.95004
171 1 6.26845 9.40399 9.41353 -8.89723
18 1 4.71524 4.71514 1.56986 -8.94906
19 1 6.28904 3.14365 -0.000887391 -8.94931
20 1 7.86109 4.7149 1.56972 -8.94886
170 1 3.13804 9.43308 9.43433 -8.95238
22 1 11.0073 4.71458 1.5693 -8.94907
169 1 22.0116 9.4342 9.43433 -8.94936
24 1 14.1538 4.71413 1.56906 -8.94953
25 1 15.7252 3.14328 -0.00116522 -8.94955
26 1 17.2996 4.71431 1.56988 -8.94769
168 1 18.8701 6.28801 9.4342 -8.94935
28 1 20.4424 4.71612 1.57164 -8.94955
167 1 15.7277 6.28641 9.43338 -8.94346
30 1 1.57206 7.86175 1.57206 -8.94937
31 1 3.14403 6.28897 0.00024328 -8.95007
32 1 4.71637 7.86193 1.57162 -8.95013
166 1 12.5784 6.29167 9.43194 -8.94967
34 1 7.86102 7.8606 1.56818 -8.95282
190 1 1.56606 7.85964 11.0072 -8.95117
36 1 11.0072 7.85964 1.56606 -8.95117
37 1 12.58 6.28772 -0.00279876 -8.94981
38 1 14.1559 7.85858 1.565 -8.95175
165 1 9.43208 6.30307 9.43208 -9.01106
40 1 17.3001 7.86022 1.5695 -8.94888
41 1 18.8705 6.28847 -0.000740078 -8.94929
42 1 20.4428 7.8614 1.57156 -8.94937
164 1 6.27922 6.2771 9.43408 -8.9494
44 1 3.14399 9.43428 0.000636654 -8.94962
163 1 3.13811 6.28471 9.43361 -8.947
162 1 22.0117 6.28786 9.43409 -8.94966
161 1 18.8694 3.14364 9.43444 -8.94941
48 1 15.727 9.43356 -0.00268186 -8.94929
160 1 15.7253 3.14315 9.43435 -8.94926
50 1 -0.000466169 4.26249e-16 3.14429 -8.94947
51 1 1.5713 1.57159 4.71637 -8.94949
52 1 3.1437 4.68301e-16 3.1437 -8.9495
53 1 4.71576 1.57077 4.71576 -8.95004
54 1 6.28897 8.6501e-16 3.1436 -8.94958
55 1 7.86161 1.57067 4.7158 -8.94984
56 1 9.43446 9.4846e-16 3.14351 -8.94954
57 1 11.0074 1.57063 4.71576 -8.94966
58 1 12.58 1.12899e-15 3.1436 -8.9495
59 1 14.1529 1.57042 4.71625 -8.95115
60 1 15.7253 2.21502e-15 3.14385 -8.9502
61 1 17.2975 1.57145 4.71686 -8.94979
62 1 18.8695 1.43665e-15 3.14441 -8.94966
63 1 20.4414 1.57184 4.71687 -8.94944
64 1 22.0132 3.14374 3.14393 -8.94935
65 1 1.56986 4.71514 4.71524 -8.94906
66 1 3.14276 3.14287 3.14276 -8.94814
67 1 4.71188 4.71182 4.71188 -8.94402
68 1 6.28819 3.14232 3.14252 -8.94949
69 1 7.8599 4.71133 4.71252 -8.94904
70 1 9.43426 3.14217 3.14239 -8.94927
71 1 11.0082 4.71134 4.71179 -8.94689
72 1 12.5805 3.14185 3.14235 -8.94897
73 1 14.1575 4.70892 4.71133 -8.94886
74 1 15.7268 3.14133 3.14233 -8.94911
75 1 17.2998 4.71426 4.71545 -8.9499
76 1 18.8702 3.14334 3.14391 -8.94965
77 1 20.4418 4.71599 4.71647 -8.95005
78 1 0.00024328 6.28897 3.14403 -8.95007
79 1 1.57162 7.86193 4.71637 -8.95013
80 1 3.14301 6.28863 3.14301 -8.95126
81 1 4.71431 7.86148 4.71431 -8.9547
82 1 6.28524 6.285 3.13806 -8.94863
83 1 7.85343 7.85133 4.70122 -8.95006
84 1 9.43361 6.28471 3.13811 -8.947
85 1 11.0095 7.85331 4.69905 -8.95244
86 1 12.5826 6.28396 3.13682 -8.94911
87 1 14.1718 7.84427 4.69616 -8.92334
88 1 15.7319 6.28249 3.13727 -8.94272
89 1 17.3042 7.85858 4.71307 -8.95098
90 1 18.8722 6.28762 3.1429 -8.94969
91 1 20.4434 7.86132 4.71625 -8.95036
92 1 0.000636654 9.43428 3.14399 -8.94962
93 1 3.14385 9.43442 3.14385 -8.94876
94 1 6.28902 9.43518 3.14346 -8.94916
95 1 9.43433 9.43308 3.13804 -8.95238
96 1 12.5861 9.43104 3.12845 -8.95932
97 1 15.7318 9.432 3.13724 -8.94674
98 1 18.8726 9.43371 3.14261 -8.9492
99 1 22.0133 7.66686e-16 6.28928 -8.94941
100 1 1.57119 1.5715 7.86167 -8.94936
101 1 3.1436 1.04907e-15 6.28897 -8.94958
102 1 4.7158 1.57067 7.86161 -8.94984
103 1 6.289 8.88598e-16 6.289 -8.9508
104 1 7.86198 1.57073 7.86198 -8.95174
105 1 9.4347 9.28443e-16 6.28903 -8.95062
106 1 11.0068 1.57179 7.86231 -8.94985
107 1 12.5796 1.72496e-15 6.28958 -8.95103
108 1 14.1522 1.57154 7.86233 -8.94975
109 1 15.7249 7.01713e-16 6.2897 -8.94976
110 1 17.2973 1.57165 7.86205 -8.94935
111 1 18.8694 2.68686e-16 6.28951 -8.94938
112 1 20.4413 1.57181 7.8619 -8.94943
113 1 -0.000887391 3.14365 6.28904 -8.94931
114 1 1.56972 4.7149 7.86109 -8.94886
115 1 3.14252 3.14232 6.28819 -8.94949
116 1 4.71252 4.71133 7.8599 -8.94904
117 1 6.28748 3.14013 6.28748 -8.95166
118 1 7.85979 4.7086 7.85979 -8.96114
119 1 9.43473 3.1407 6.28743 -8.95085
120 1 11.0067 4.71476 7.86009 -8.95454
121 1 12.5804 3.14068 6.28832 -8.95376
122 1 14.1536 4.71431 7.86166 -8.95008
123 1 15.7257 3.14259 6.28927 -8.94993
124 1 17.2984 4.71525 7.86168 -8.94838
125 1 18.8697 3.14364 6.28935 -8.94924
126 1 20.4413 4.71584 7.86168 -8.94933
127 1 22.0125 6.28844 6.28872 -8.95066
128 1 1.56818 7.8606 7.86102 -8.95282
129 1 3.13806 6.285 6.28524 -8.94863
130 1 4.70122 7.85133 7.85343 -8.95006
131 1 6.27537 6.2749 6.27537 -8.92696
132 1 7.82198 7.82092 7.82198 -8.84008
133 1 9.43408 6.2771 6.27922 -8.9494
134 1 11.0326 7.84719 7.81799 -8.87787
135 1 12.591 6.27251 6.27561 -8.95053
136 1 14.1639 7.85496 7.85622 -8.94823
137 1 15.7309 6.28448 6.28618 -8.95016
138 1 17.3 7.86104 7.86212 -8.9522
139 1 18.871 6.28828 6.28911 -8.95056
140 1 20.4414 7.86145 7.86191 -8.9504
141 1 22.0142 9.43445 6.2891 -8.94978
142 1 3.14346 9.43518 6.28902 -8.94916
143 1 6.28809 9.43856 6.28809 -8.96525
144 1 9.41353 9.40399 6.26845 -8.89723
145 1 12.634 9.38983 6.23325 -8.82666
146 1 15.7397 9.43073 6.28153 -8.95857
147 1 18.8733 9.43398 6.28843 -8.95219
148 1 22.0132 2.3818e-16 9.43443 -8.94944
149 1 3.14351 1.53626e-15 9.43446 -8.94954
150 1 6.28903 8.17748e-16 9.4347 -8.95062
151 1 9.43462 1.31667e-15 9.43462 -8.94737
152 1 12.5794 1.05628e-15 9.43473 -8.94915
153 1 15.7248 -1.33935e-16 9.43459 -8.94966
154 1 18.8693 -7.61224e-16 9.43453 -8.94947
155 1 -0.00108859 3.14349 9.43433 -8.94937
156 1 3.14239 3.14217 9.43426 -8.94927
157 1 6.28743 3.1407 9.43473 -8.95085
158 1 9.43436 3.14634 9.43436 -8.94408
159 1 12.5793 3.14484 9.43444 -8.94855
177 1 4.71576 1.57063 11.0074 -8.94966
180 1 14.1521 1.57175 11.0067 -8.94952
184 1 4.71179 4.71134 11.0082 -8.94689
187 1 14.1531 4.71516 11.0054 -8.94829
188 1 17.2979 4.71536 11.0068 -8.94865
189 1 20.4409 4.71574 11.007 -8.94939
194 1 14.1592 7.85843 11.0015 -8.94938
21 1 9.43433 3.14349 -0.00108859 -8.94937
176 1 1.57109 1.57143 11.0071 -8.9494
343 1 18.8702 9.434 18.8702 -8.94929
178 1 7.86231 1.57179 11.0068 -8.94985
179 1 11.0065 1.57275 11.0065 -8.94848
342 1 15.7266 9.4336 18.871 -8.94911
181 1 17.2971 1.57171 11.007 -8.94943
182 1 20.4412 1.5718 11.007 -8.94943
183 1 1.5693 4.71458 11.0073 -8.94907
341 1 12.5797 9.43419 18.871 -8.95364
185 1 7.86009 4.71476 11.0067 -8.95454
186 1 11.0057 4.71984 11.0057 -8.94874
340 1 9.43441 9.43441 18.8687 -8.94755
339 1 6.28843 9.43398 18.8733 -8.95219
338 1 3.14261 9.43371 18.8726 -8.9492
337 1 22.0131 9.43405 18.8707 -8.94931
336 1 20.4419 7.86144 20.4419 -8.94935
192 1 7.81799 7.84719 11.0326 -8.87787
193 1 11.0292 7.86902 11.0292 -8.90207
49 1 18.8707 9.43405 22.0131 -8.94931
195 1 17.2988 7.86071 11.0056 -8.95029
196 1 20.4403 7.86109 11.0067 -8.95024
197 1 22.0131 1.75619e-15 12.5796 -8.94942
198 1 1.57116 1.57132 14.1525 -8.94939
199 1 3.1436 1.32151e-15 12.58 -8.9495
200 1 4.71625 1.57042 14.1529 -8.95115
201 1 6.28958 1.58678e-15 12.5796 -8.95103
202 1 7.86233 1.57154 14.1522 -8.94975
203 1 9.43473 1.10033e-15 12.5794 -8.94915
204 1 11.0067 1.57175 14.1521 -8.94952
205 1 12.5791 -3.09515e-16 12.5791 -8.95112
206 1 14.1522 1.57077 14.1522 -8.95156
207 1 15.7245 -5.74368e-16 12.5793 -8.94957
208 1 17.297 1.57163 14.1519 -8.94965
209 1 18.8691 9.48603e-16 12.5795 -8.94941
210 1 20.4411 1.57178 14.1521 -8.94938
211 1 22.0127 3.1434 12.5798 -8.94927
212 1 1.56906 4.71413 14.1538 -8.94953
213 1 3.14235 3.14185 12.5805 -8.94897
214 1 4.71133 4.70892 14.1575 -8.94886
215 1 6.28832 3.14068 12.5804 -8.95376
216 1 7.86166 4.71431 14.1536 -8.95008
217 1 9.43444 3.14484 12.5793 -8.94855
218 1 11.0054 4.71516 14.1531 -8.94829
219 1 12.5792 3.14191 12.5792 -8.95501
220 1 14.1558 4.70923 14.1558 -8.95157
221 1 15.725 3.14312 12.5792 -8.94946
222 1 17.2984 4.7148 14.1526 -8.95035
223 1 18.8693 3.14367 12.5795 -8.94921
224 1 20.4409 4.71569 14.1524 -8.94969
225 1 -0.00279876 6.28772 12.58 -8.94981
226 1 1.565 7.85858 14.1559 -8.95175
227 1 3.13682 6.28396 12.5826 -8.94911
228 1 4.69616 7.84427 14.1718 -8.92334
229 1 6.27561 6.27251 12.591 -8.95053
230 1 7.85622 7.85496 14.1639 -8.94823
231 1 9.43194 6.29167 12.5784 -8.94967
232 1 11.0015 7.85843 14.1592 -8.94938
233 1 12.5866 6.27289 12.5866 -8.96288
234 1 14.1761 7.83787 14.1761 -8.90368
235 1 15.7283 6.28591 12.5796 -8.9507
236 1 17.3033 7.85849 14.1552 -8.9534
237 1 18.8698 6.2882 12.5794 -8.94974
238 1 20.4409 7.86076 14.153 -8.95151
239 1 22.0096 9.43388 12.5804 -8.9524
240 1 3.12845 9.43104 12.5861 -8.95932
241 1 6.23325 9.38983 12.634 -8.82666
242 1 9.4047 9.4342 12.5704 -8.8152
243 1 12.6483 9.36331 12.6483 -8.71292
244 1 15.7387 9.43128 12.5841 -8.96623
245 1 18.871 9.43419 12.5797 -8.95364
246 1 -0.000685046 1.86774e-15 15.7247 -8.94945
247 1 1.57131 1.5713 17.2978 -8.94929
248 1 3.14385 1.83015e-15 15.7253 -8.9502
249 1 4.71686 1.57145 17.2975 -8.94979
250 1 6.2897 7.21882e-16 15.7249 -8.94976
251 1 7.86205 1.57165 17.2973 -8.94935
252 1 9.43459 -6.87776e-17 15.7248 -8.94966
253 1 11.007 1.57171 17.2971 -8.94943
254 1 12.5793 -6.37231e-17 15.7245 -8.94957
255 1 14.1519 1.57163 17.297 -8.94965
256 1 15.7248 1.65356e-15 15.7248 -8.95048
257 1 17.2975 1.57128 17.2975 -8.94945
258 1 18.8692 1.58526e-15 15.7245 -8.94966
259 1 20.4413 1.57169 17.2972 -8.94955
260 1 -0.00116522 3.14328 15.7252 -8.94955
261 1 1.56988 4.71431 17.2996 -8.94769
262 1 3.14233 3.14133 15.7268 -8.94911
263 1 4.71545 4.71426 17.2998 -8.9499
264 1 6.28927 3.14259 15.7257 -8.94993
265 1 7.86168 4.71525 17.2984 -8.94838
266 1 9.43435 3.14315 15.7253 -8.94926
267 1 11.0068 4.71536 17.2979 -8.94865
268 1 12.5792 3.14312 15.725 -8.94946
269 1 14.1526 4.7148 17.2984 -8.95035
270 1 15.7261 3.14143 15.7261 -8.94974
271 1 17.2993 4.71388 17.2993 -8.94668
272 1 18.8696 3.14338 15.7249 -8.94984
273 1 20.4415 4.71545 17.2981 -8.94942
274 1 22.0115 6.28731 15.7265 -8.95012
275 1 1.5695 7.86022 17.3001 -8.94888
276 1 3.13727 6.28249 15.7319 -8.94272
277 1 4.71307 7.85858 17.3042 -8.95098
278 1 6.28618 6.28448 15.7309 -8.95016
279 1 7.86212 7.86104 17.3 -8.9522
280 1 9.43338 6.28641 15.7277 -8.94346
281 1 11.0056 7.86071 17.2988 -8.95029
282 1 12.5796 6.28591 15.7283 -8.9507
283 1 14.1552 7.85849 17.3033 -8.9534
284 1 15.7323 6.28098 15.7323 -8.93841
285 1 17.2993 7.86024 17.2993 -8.94892
286 1 18.8712 6.28721 15.7263 -8.9503
287 1 20.4414 7.86097 17.2984 -8.94919
288 1 -0.00268186 9.43356 15.727 -8.94929
289 1 3.13724 9.432 15.7318 -8.94674
290 1 6.28153 9.43073 15.7397 -8.95857
291 1 9.43356 9.4368 15.7211 -8.94756
292 1 12.5841 9.43128 15.7387 -8.96623
293 1 15.7307 9.43216 15.7307 -8.94603
294 1 18.871 9.4336 15.7266 -8.94911
295 1 22.0135 1.74259e-15 18.8696 -8.94909
296 1 1.57193 1.57178 20.4417 -8.94933
297 1 3.14441 1.54097e-15 18.8695 -8.94966
298 1 4.71687 1.57184 20.4414 -8.94944
299 1 6.28951 1.10843e-15 18.8694 -8.94938
300 1 7.8619 1.57181 20.4413 -8.94943
301 1 9.43453 4.00907e-16 18.8693 -8.94947
302 1 11.007 1.5718 20.4412 -8.94943
303 1 12.5795 1.24852e-15 18.8691 -8.94941
304 1 14.1521 1.57178 20.4411 -8.94938
305 1 15.7245 1.78973e-15 18.8692 -8.94966
306 1 17.2972 1.57169 20.4413 -8.94955
307 1 18.8695 1.99383e-15 18.8695 -8.94922
308 1 20.4417 1.5718 20.4417 -8.94877
309 1 22.0133 3.14353 18.8702 -8.94887
310 1 1.57164 4.71612 20.4424 -8.94955
311 1 3.14391 3.14334 18.8702 -8.94965
312 1 4.71647 4.71599 20.4418 -8.95005
313 1 6.28935 3.14364 18.8697 -8.94924
314 1 7.86168 4.71584 20.4413 -8.94933
315 1 9.43444 3.14364 18.8694 -8.94941
316 1 11.007 4.71574 20.4409 -8.94939
317 1 12.5795 3.14367 18.8693 -8.94921
318 1 14.1524 4.71569 20.4409 -8.94969
319 1 15.7249 3.14338 18.8696 -8.94984
320 1 17.2981 4.71545 20.4415 -8.94942
321 1 18.8699 3.14334 18.8699 -8.94858
322 1 20.4419 4.71625 20.4419 -8.9494
323 1 -0.000740078 6.28847 18.8705 -8.94929
324 1 1.57156 7.8614 20.4428 -8.94937
325 1 3.1429 6.28762 18.8722 -8.94969
326 1 4.71625 7.86132 20.4434 -8.95036
327 1 6.28911 6.28828 18.871 -8.95056
328 1 7.86191 7.86145 20.4414 -8.9504
329 1 9.4342 6.28801 18.8701 -8.94935
330 1 11.0067 7.86109 20.4403 -8.95024
331 1 12.5794 6.2882 18.8698 -8.94974
332 1 14.153 7.86076 20.4409 -8.95151
333 1 15.7263 6.28721 18.8712 -8.9503
334 1 17.2984 7.86097 20.4414 -8.94919
335 1 18.8701 6.28834 18.8701 -8.94936
1 1 22.0137 7.05956e-16 22.0137 -8.94909
5 1 6.28928 6.13485e-16 22.0133 -8.94941
9 1 12.5796 1.54457e-15 22.0131 -8.94942
13 1 18.8696 1.81239e-15 22.0135 -8.94909
17 1 3.14393 3.14374 22.0132 -8.94935
47 1 12.5804 9.43388 22.0096 -8.9524
23 1 12.5798 3.1434 22.0127 -8.94927
27 1 18.8702 3.14353 22.0133 -8.94887
29 1 22.014 6.289 22.014 -8.94942
33 1 6.28872 6.28844 22.0125 -8.95066
39 1 15.7265 6.28731 22.0115 -8.95012
43 1 22.014 9.43427 22.014 -8.94945
45 1 6.2891 9.43445 22.0142 -8.94978
46 1 9.43433 9.4342 22.0116 -8.94936
7 1 9.43443 1.10612e-17 22.0132 -8.94944
35 1 9.43409 6.28786 22.0117 -8.94966
344 1 1.57213 11.007 1.57213 -8.94952
345 1 4.71634 11.007 1.572 -8.9498
346 1 7.8617 11.007 1.57139 -8.94671
347 1 11.0079 11.007 1.56664 -8.9491
348 1 14.1568 11.007 1.56464 -8.94935
349 1 17.3003 11.007 1.56935 -8.94915
350 1 20.4429 11.007 1.5715 -8.94944
688 3 10.4738 11.007 9.41636 2.33382
352 1 1.57206 14.1522 1.57206 -8.94937
353 1 3.14399 12.5796 0.000636654 -8.94962
354 1 4.71637 14.152 1.57162 -8.95013
687 3 9.41636 11.007 10.4738 2.33382
356 1 7.86102 14.1533 1.56818 -8.95282
511 1 18.8694 18.8703 9.43444 -8.94941
358 1 11.0072 14.1543 1.56606 -8.95117
510 1 15.7253 18.8708 9.43435 -8.94926
360 1 14.1559 14.1553 1.565 -8.95175
361 1 15.727 12.5803 -0.00268186 -8.94929
362 1 17.3001 14.1537 1.5695 -8.94888
509 1 12.5793 18.8691 9.43444 -8.94855
364 1 20.4428 14.1525 1.57156 -8.94937
508 1 9.43436 18.8676 9.43436 -8.94408
366 1 1.57164 17.2976 1.57164 -8.95004
367 1 3.14403 15.7249 0.00024328 -8.95007
368 1 4.71524 17.2988 1.56986 -8.94906
507 1 6.28743 18.8732 9.43473 -8.95085
370 1 7.86109 17.299 1.56972 -8.94886
537 1 14.1521 20.4422 11.0067 -8.94952
372 1 11.0073 17.2993 1.5693 -8.94907
373 1 12.58 15.7262 -0.00279876 -8.94981
374 1 14.1538 17.2998 1.56906 -8.94953
506 1 3.14239 18.8717 9.43426 -8.94927
376 1 17.2996 17.2996 1.56988 -8.94769
377 1 18.8705 15.7254 -0.000740078 -8.94929
378 1 20.4424 17.2978 1.57164 -8.94955
379 1 -0.000148776 18.8699 -0.000148776 -8.94943
380 1 1.57162 20.4421 1.57162 -8.9491
505 1 -0.00108859 18.8704 9.43433 -8.94937
382 1 4.71637 20.4423 1.5713 -8.94949
383 1 6.28904 18.8703 -0.000887391 -8.94931
384 1 7.86167 20.4424 1.57119 -8.94936
504 1 18.8701 15.7259 9.4342 -8.94935
386 1 11.0071 20.4425 1.57109 -8.9494
503 1 15.7277 15.7275 9.43338 -8.94346
388 1 14.1525 20.4426 1.57116 -8.94939
389 1 15.7252 18.8706 -0.00116522 -8.94955
390 1 17.2978 20.4426 1.57131 -8.94929
502 1 12.5784 15.7222 9.43194 -8.94967
392 1 20.4417 20.4421 1.57193 -8.94933
393 1 1.572 11.007 4.71634 -8.9498
394 1 4.71526 11.007 4.71526 -8.94556
395 1 7.86394 11.007 4.71946 -8.93197
396 1 11.0154 11.007 4.70372 -9.01608
397 1 14.1683 11.007 4.69861 -8.93963
398 1 17.3044 11.007 4.71233 -8.94868
399 1 20.4438 11.007 4.716 -8.95005
400 1 0.000636654 12.5796 3.14399 -8.94962
401 1 1.57162 14.152 4.71637 -8.95013
402 1 3.14385 12.5795 3.14385 -8.94876
403 1 4.71431 14.1524 4.71431 -8.9547
404 1 6.28902 12.5787 3.14346 -8.94916
405 1 7.85343 14.1626 4.70122 -8.95006
406 1 9.43433 12.5808 3.13804 -8.95238
407 1 11.0095 14.1606 4.69905 -8.95244
408 1 12.5861 12.5829 3.12845 -8.95932
409 1 14.1718 14.1696 4.69616 -8.92334
410 1 15.7318 12.5819 3.13724 -8.94674
411 1 17.3042 14.1553 4.71307 -8.95098
412 1 18.8726 12.5802 3.14261 -8.9492
413 1 20.4434 14.1526 4.71625 -8.95036
414 1 0.00024328 15.7249 3.14403 -8.95007
415 1 1.56986 17.2988 4.71524 -8.94906
416 1 3.14301 15.7253 3.14301 -8.95126
417 1 4.71188 17.3021 4.71188 -8.94402
418 1 6.28524 15.7289 3.13806 -8.94863
419 1 7.8599 17.3026 4.71252 -8.94904
420 1 9.43361 15.7292 3.13811 -8.947
421 1 11.0082 17.3026 4.71179 -8.94689
422 1 12.5826 15.7299 3.13682 -8.94911
423 1 14.1575 17.305 4.71133 -8.94886
424 1 15.7319 15.7314 3.13727 -8.94272
425 1 17.2998 17.2996 4.71545 -8.9499
426 1 18.8722 15.7263 3.1429 -8.94969
427 1 20.4418 17.2979 4.71647 -8.95005
428 1 22.0132 18.8702 3.14393 -8.94935
429 1 1.5713 20.4423 4.71637 -8.94949
430 1 3.14276 18.871 3.14276 -8.94814
431 1 4.71576 20.4431 4.71576 -8.95004
432 1 6.28819 18.8716 3.14252 -8.94949
433 1 7.86161 20.4432 4.7158 -8.94984
434 1 9.43426 18.8717 3.14239 -8.94927
435 1 11.0074 20.4433 4.71576 -8.94966
436 1 12.5805 18.8721 3.14235 -8.94897
437 1 14.1529 20.4435 4.71625 -8.95115
438 1 15.7268 18.8726 3.14233 -8.94911
439 1 17.2975 20.4425 4.71686 -8.94979
440 1 18.8702 18.8706 3.14391 -8.94965
441 1 20.4414 20.4421 4.71687 -8.94944
442 1 1.57139 11.007 7.8617 -8.94671
443 1 4.71946 11.007 7.86394 -8.93197
444 1 7.89626 11.007 7.89626 -8.89684
445 1 11.0906 11.007 7.54547 -7.97954
446 1 14.1627 11.007 7.84323 -8.96322
447 1 17.3003 11.007 7.86085 -8.95073
448 1 20.4421 11.007 7.86188 -8.9494
449 1 22.0142 12.5795 6.2891 -8.94978
450 1 1.56818 14.1533 7.86102 -8.95282
451 1 3.14346 12.5787 6.28902 -8.94916
452 1 4.70122 14.1626 7.85343 -8.95006
453 1 6.28809 12.5753 6.28809 -8.96525
454 1 7.82198 14.193 7.82198 -8.84008
455 1 9.41353 12.6099 6.26845 -8.89723
456 1 11.0326 14.1667 7.81799 -8.87787
457 1 12.634 12.6241 6.23325 -8.82666
458 1 14.1639 14.1589 7.85622 -8.94823
459 1 15.7397 12.5832 6.28153 -8.95857
460 1 17.3 14.1529 7.86212 -8.9522
461 1 18.8733 12.5799 6.28843 -8.95219
462 1 20.4414 14.1524 7.86191 -8.9504
463 1 22.0125 15.7255 6.28872 -8.95066
464 1 1.56972 17.299 7.86109 -8.94886
465 1 3.13806 15.7289 6.28524 -8.94863
466 1 4.71252 17.3026 7.8599 -8.94904
467 1 6.27537 15.739 6.27537 -8.92696
468 1 7.85979 17.3053 7.85979 -8.96114
469 1 9.43408 15.7368 6.27922 -8.9494
470 1 11.0067 17.2991 7.86009 -8.95454
471 1 12.591 15.7414 6.27561 -8.95053
472 1 14.1536 17.2996 7.86166 -8.95008
473 1 15.7309 15.7294 6.28618 -8.95016
474 1 17.2984 17.2987 7.86168 -8.94838
475 1 18.871 15.7256 6.28911 -8.95056
476 1 20.4413 17.2981 7.86168 -8.94933
477 1 -0.000887391 18.8703 6.28904 -8.94931
478 1 1.57119 20.4424 7.86167 -8.94936
479 1 3.14252 18.8716 6.28819 -8.94949
480 1 4.7158 20.4432 7.86161 -8.94984
481 1 6.28748 18.8738 6.28748 -8.95166
482 1 7.86198 20.4432 7.86198 -8.95174
483 1 9.43473 18.8732 6.28743 -8.95085
484 1 11.0068 20.4421 7.86231 -8.94985
485 1 12.5804 18.8732 6.28832 -8.95376
486 1 14.1522 20.4424 7.86233 -8.94975
487 1 15.7257 18.8713 6.28927 -8.94993
488 1 17.2973 20.4423 7.86205 -8.94935
489 1 18.8697 18.8703 6.28935 -8.94924
490 1 20.4413 20.4421 7.8619 -8.94943
491 1 22.0116 12.5797 9.43433 -8.94936
492 1 3.13804 12.5808 9.43433 -8.95238
493 1 6.26845 12.6099 9.41353 -8.89723
494 1 9.3905 12.8187 9.3905 -7.74211
495 1 12.5704 12.5797 9.4047 -8.8152
496 1 15.7211 12.5771 9.43356 -8.94756
497 1 18.8687 12.5795 9.43441 -8.94755
498 1 22.0117 15.726 9.43409 -8.94966
499 1 3.13811 15.7292 9.43361 -8.947
500 1 6.27922 15.7368 9.43408 -8.9494
501 1 9.43208 15.7108 9.43208 -9.01106
512 1 1.56664 11.007 11.0079 -8.9491
517 1 17.2959 11.007 11.0063 -8.94413
519 1 1.56606 14.1543 11.0072 -8.95117
520 1 4.69905 14.1606 11.0095 -8.95244
527 1 4.71179 17.3026 11.0082 -8.94689
530 1 14.1531 17.2987 11.0054 -8.94829
531 1 17.2979 17.2985 11.0068 -8.94865
532 1 20.4409 17.2982 11.007 -8.94939
534 1 4.71576 20.4433 11.0074 -8.94966
518 1 20.4398 11.007 11.0066 -8.94846
523 1 14.1592 14.1555 11.0015 -8.94938
385 1 9.43433 18.8704 -0.00108859 -8.94937
686 1 20.4417 20.4421 20.4417 -8.94877
513 1 4.70372 11.007 11.0154 -9.01608
514 1 7.54547 11.007 11.0906 -7.97954
515 1 11.2796 11.007 11.2796 -7.32303
516 1 14.1417 11.007 11.0188 -9.01224
685 1 18.8699 18.8706 18.8699 -8.94858
391 1 18.8702 18.8704 22.0133 -8.94887
684 1 17.2972 20.4422 20.4413 -8.94955
683 1 15.7249 18.8705 18.8696 -8.94984
521 1 7.81799 14.1667 11.0326 -8.87787
522 1 11.0292 14.1449 11.0292 -8.90207
387 1 12.5798 18.8705 22.0127 -8.94927
524 1 17.2988 14.1532 11.0056 -8.95029
525 1 20.4403 14.1528 11.0067 -8.95024
526 1 1.5693 17.2993 11.0073 -8.94907
682 1 14.1521 20.4421 20.4411 -8.94938
528 1 7.86009 17.2991 11.0067 -8.95454
529 1 11.0057 17.2941 11.0057 -8.94874
681 1 12.5795 18.8702 18.8693 -8.94921
680 1 11.007 20.4421 20.4412 -8.94943
679 1 9.43444 18.8703 18.8694 -8.94941
533 1 1.57109 20.4425 11.0071 -8.9494
678 1 7.8619 20.4421 20.4413 -8.94943
535 1 7.86231 20.4421 11.0068 -8.94985
536 1 11.0065 20.4411 11.0065 -8.94848
677 1 6.28935 18.8703 18.8697 -8.94924
538 1 17.2971 20.4422 11.007 -8.94943
539 1 20.4412 20.4421 11.007 -8.94943
540 1 1.56464 11.007 14.1568 -8.94935
541 1 4.69861 11.007 14.1683 -8.93963
542 1 7.84323 11.007 14.1627 -8.96322
543 1 11.0188 11.007 14.1417 -9.01224
544 1 14.167 11.007 14.167 -8.93783
545 1 17.3027 11.007 14.156 -8.94852
546 1 20.4408 11.007 14.1536 -8.95069
547 1 22.0096 12.58 12.5804 -8.9524
548 1 1.565 14.1553 14.1559 -8.95175
549 1 3.12845 12.5829 12.5861 -8.95932
550 1 4.69616 14.1696 14.1718 -8.92334
551 1 6.23325 12.6241 12.634 -8.82666
552 1 7.85622 14.1589 14.1639 -8.94823
553 1 9.4047 12.5797 12.5704 -8.8152
554 1 11.0015 14.1555 14.1592 -8.94938
555 1 12.6483 12.6506 12.6483 -8.71292
556 1 14.1761 14.176 14.1761 -8.90368
557 1 15.7387 12.5826 12.5841 -8.96623
558 1 17.3033 14.1554 14.1552 -8.9534
559 1 18.871 12.5797 12.5797 -8.95364
560 1 20.4409 14.1531 14.153 -8.95151
561 1 -0.00279876 15.7262 12.58 -8.94981
562 1 1.56906 17.2998 14.1538 -8.94953
563 1 3.13682 15.7299 12.5826 -8.94911
564 1 4.71133 17.305 14.1575 -8.94886
565 1 6.27561 15.7414 12.591 -8.95053
566 1 7.86166 17.2996 14.1536 -8.95008
567 1 9.43194 15.7222 12.5784 -8.94967
568 1 11.0054 17.2987 14.1531 -8.94829
569 1 12.5866 15.741 12.5866 -8.96288
570 1 14.1558 17.3047 14.1558 -8.95157
571 1 15.7283 15.728 12.5796 -8.9507
572 1 17.2984 17.2991 14.1526 -8.95035
573 1 18.8698 15.7257 12.5794 -8.94974
574 1 20.4409 17.2982 14.1524 -8.94969
575 1 22.0127 18.8705 12.5798 -8.94927
576 1 1.57116 20.4426 14.1525 -8.94939
577 1 3.14235 18.8721 12.5805 -8.94897
578 1 4.71625 20.4435 14.1529 -8.95115
579 1 6.28832 18.8732 12.5804 -8.95376
580 1 7.86233 20.4424 14.1522 -8.94975
581 1 9.43444 18.8691 12.5793 -8.94855
582 1 11.0067 20.4422 14.1521 -8.94952
583 1 12.5792 18.872 12.5792 -8.95501
584 1 14.1522 20.4431 14.1522 -8.95156
585 1 15.725 18.8708 12.5792 -8.94946
586 1 17.297 20.4423 14.1519 -8.94965
587 1 18.8693 18.8702 12.5795 -8.94921
588 1 20.4411 20.4421 14.1521 -8.94938
589 1 1.56935 11.007 17.3003 -8.94915
590 1 4.71233 11.007 17.3044 -8.94868
591 1 7.86085 11.007 17.3003 -8.95073
592 1 11.0063 11.007 17.2959 -8.94413
593 1 14.156 11.007 17.3027 -8.94852
594 1 17.2994 11.007 17.2994 -8.9492
595 1 20.4414 11.007 17.2985 -8.94937
596 1 -0.00268186 12.5803 15.727 -8.94929
597 1 1.5695 14.1537 17.3001 -8.94888
598 1 3.13724 12.5819 15.7318 -8.94674
599 1 4.71307 14.1553 17.3042 -8.95098
600 1 6.28153 12.5832 15.7397 -8.95857
601 1 7.86212 14.1529 17.3 -8.9522
602 1 9.43356 12.5771 15.7211 -8.94756
603 1 11.0056 14.1532 17.2988 -8.95029
604 1 12.5841 12.5826 15.7387 -8.96623
605 1 14.1552 14.1554 17.3033 -8.9534
606 1 15.7307 12.5817 15.7307 -8.94603
607 1 17.2993 14.1537 17.2993 -8.94892
608 1 18.871 12.5803 15.7266 -8.94911
609 1 20.4414 14.1529 17.2984 -8.94919
610 1 22.0115 15.7266 15.7265 -8.95012
611 1 1.56988 17.2996 17.2996 -8.94769
612 1 3.13727 15.7314 15.7319 -8.94272
613 1 4.71545 17.2996 17.2998 -8.9499
614 1 6.28618 15.7294 15.7309 -8.95016
615 1 7.86168 17.2987 17.2984 -8.94838
616 1 9.43338 15.7275 15.7277 -8.94346
617 1 11.0068 17.2985 17.2979 -8.94865
618 1 12.5796 15.728 15.7283 -8.9507
619 1 14.1526 17.2991 17.2984 -8.95035
620 1 15.7323 15.7329 15.7323 -8.93841
621 1 17.2993 17.3 17.2993 -8.94668
622 1 18.8712 15.7267 15.7263 -8.9503
623 1 20.4415 17.2985 17.2981 -8.94942
624 1 -0.00116522 18.8706 15.7252 -8.94955
625 1 1.57131 20.4426 17.2978 -8.94929
626 1 3.14233 18.8726 15.7268 -8.94911
627 1 4.71686 20.4425 17.2975 -8.94979
628 1 6.28927 18.8713 15.7257 -8.94993
629 1 7.86205 20.4423 17.2973 -8.94935
630 1 9.43435 18.8708 15.7253 -8.94926
631 1 11.007 20.4422 17.2971 -8.94943
632 1 12.5792 18.8708 15.725 -8.94946
633 1 14.1519 20.4423 17.297 -8.94965
634 1 15.7261 18.8725 15.7261 -8.94974
635 1 17.2975 20.4426 17.2975 -8.94945
636 1 18.8696 18.8705 15.7249 -8.94984
637 1 20.4413 20.4422 17.2972 -8.94955
638 1 1.5715 11.007 20.4429 -8.94944
639 1 4.716 11.007 20.4438 -8.95005
640 1 7.86188 11.007 20.4421 -8.9494
641 1 11.0066 11.007 20.4398 -8.94846
642 1 14.1536 11.007 20.4408 -8.95069
643 1 17.2985 11.007 20.4414 -8.94937
644 1 20.442 11.007 20.442 -8.94939
645 1 22.0131 12.5799 18.8707 -8.94931
646 1 1.57156 14.1525 20.4428 -8.94937
647 1 3.14261 12.5802 18.8726 -8.9492
648 1 4.71625 14.1526 20.4434 -8.95036
649 1 6.28843 12.5799 18.8733 -8.95219
650 1 7.86191 14.1524 20.4414 -8.9504
651 1 9.43441 12.5795 18.8687 -8.94755
652 1 11.0067 14.1528 20.4403 -8.95024
653 1 12.5797 12.5797 18.871 -8.95364
654 1 14.153 14.1531 20.4409 -8.95151
655 1 15.7266 12.5803 18.871 -8.94911
656 1 17.2984 14.1529 20.4414 -8.94919
657 1 18.8702 12.5799 18.8702 -8.94929
658 1 20.4419 14.1525 20.4419 -8.94935
659 1 -0.000740078 15.7254 18.8705 -8.94929
660 1 1.57164 17.2978 20.4424 -8.94955
661 1 3.1429 15.7263 18.8722 -8.94969
662 1 4.71647 17.2979 20.4418 -8.95005
663 1 6.28911 15.7256 18.871 -8.95056
664 1 7.86168 17.2981 20.4413 -8.94933
665 1 9.4342 15.7259 18.8701 -8.94935
666 1 11.007 17.2982 20.4409 -8.94939
667 1 12.5794 15.7257 18.8698 -8.94974
668 1 14.1524 17.2982 20.4409 -8.94969
669 1 15.7263 15.7267 18.8712 -8.9503
670 1 17.2981 17.2985 20.4415 -8.94942
671 1 18.8701 15.7256 18.8701 -8.94936
672 1 20.4419 17.2976 20.4419 -8.9494
673 1 22.0133 18.8704 18.8702 -8.94887
674 1 1.57193 20.4421 20.4417 -8.94933
675 1 3.14391 18.8706 18.8702 -8.94965
676 1 4.71687 20.4421 20.4414 -8.94944
351 1 22.014 12.5796 22.014 -8.94945
355 1 6.2891 12.5795 22.0142 -8.94978
357 1 9.43433 12.5797 22.0116 -8.94936
359 1 12.5804 12.58 22.0096 -8.9524
363 1 18.8707 12.5799 22.0131 -8.94931
365 1 22.014 15.7249 22.014 -8.94942
369 1 6.28872 15.7255 22.0125 -8.95066
375 1 15.7265 15.7266 22.0115 -8.95012
381 1 3.14393 18.8702 22.0132 -8.94935
371 1 9.43409 15.726 22.0117 -8.94966
