ITEM: TIMESTEP
108
ITEM: NUMBER OF ATOMS
688
ITEM: BOX BOUNDS pp pp pp
0.0000000000000000e+00 2.2013900999999997e+01
0.0000000000000000e+00 2.2013900999999997e+01
0.0000000000000000e+00 2.2013900999999997e+01
ITEM: ATOMS id type x y z c_pot
175 1 18.8687 9.43441 9.43442 -8.94755
2 1 1.57162 1.57179 1.57162 -8.94911
3 1 3.1443 1.12086e-15 -0.000461228 -8.94948
4 1 4.71639 1.5716 1.57131 -8.94949
174 1 15.7212 9.43679 9.4336 -8.94756
6 1 7.86167 1.57151 1.5712 -8.94936
191 1 4.6991 7.85333 11.0095 -8.95246
8 1 11.0071 1.57144 1.57111 -8.9494
173 1 12.5704 9.43416 9.40471 -8.81555
10 1 14.1525 1.57133 1.57118 -8.94939
11 1 15.7247 1.81867e-15 -0.000673269 -8.94945
12 1 17.2978 1.57131 1.57132 -8.94929
172 1 9.39044 9.19472 9.39044 -7.74138
14 1 20.4417 1.57179 1.57194 -8.94933
15 1 -0.000149734 3.14401 -0.000149734 -8.94943
16 1 1.57165 4.71633 1.57165 -8.95004
171 1 6.26853 9.40401 9.41356 -8.89729
18 1 4.71525 4.71516 1.56987 -8.94906
19 1 6.28905 3.14366 -0.000877905 -8.94931
20 1 7.86109 4.71492 1.56974 -8.94886
170 1 3.13809 9.4331 9.43433 -8.95237
22 1 11.0072 4.71461 1.56933 -8.94907
169 1 22.0116 9.4342 9.43433 -8.94936
24 1 14.1537 4.71416 1.5691 -8.94953
25 1 15.7252 3.14331 -0.0011502 -8.94955
26 1 17.2996 4.71434 1.5699 -8.94769
168 1 18.8701 6.28802 9.43422 -8.94935
28 1 20.4424 4.71614 1.57165 -8.94956
167 1 15.7277 6.28642 9.43342 -8.94347
30 1 1.57205 7.86176 1.57205 -8.94937
31 1 3.14403 6.28899 0.000235712 -8.95007
32 1 4.71637 7.86194 1.57162 -8.95013
166 1 12.5784 6.29163 9.43196 -8.94967
34 1 7.86103 7.86062 1.5682 -8.95283
190 1 1.56611 7.85966 11.0072 -8.95118
36 1 11.0072 7.85966 1.56611 -8.95118
37 1 12.58 6.28775 -0.00276753 -8.94981
38 1 14.1559 7.8586 1.56505 -8.95175
165 1 9.43208 6.30297 9.43208 -9.01117
40 1 17.3001 7.86024 1.56953 -8.94888
41 1 18.8705 6.2885 -0.000733629 -8.94929
42 1 20.4428 7.86142 1.57156 -8.94937
164 1 6.27925 6.2771 9.43408 -8.94939
44 1 3.14399 9.43429 0.000618881 -8.94962
163 1 3.13814 6.28473 9.4336 -8.947
162 1 22.0117 6.28788 9.43409 -8.94966
161 1 18.8695 3.14365 9.43445 -8.94941
48 1 15.7269 9.43357 -0.00265383 -8.94929
160 1 15.7253 3.14315 9.43437 -8.94926
50 1 -0.000461228 6.17695e-16 3.1443 -8.94948
51 1 1.57131 1.5716 4.71639 -8.94949
52 1 3.14371 3.03079e-16 3.14371 -8.9495
53 1 4.71577 1.57078 4.71577 -8.95004
54 1 6.28897 7.77565e-16 3.14362 -8.94958
55 1 7.86162 1.57067 4.71582 -8.94984
56 1 9.43446 1.07473e-15 3.14353 -8.94954
57 1 11.0074 1.57064 4.71577 -8.94965
58 1 12.58 1.24616e-15 3.14362 -8.9495
59 1 14.1529 1.57043 4.71627 -8.95115
60 1 15.7253 2.14643e-15 3.14386 -8.95019
61 1 17.2975 1.57146 4.71686 -8.94979
62 1 18.8695 1.43733e-15 3.14441 -8.94966
63 1 20.4414 1.57185 4.71688 -8.94944
64 1 22.0133 3.14376 3.14394 -8.94935
65 1 1.56987 4.71516 4.71525 -8.94906
66 1 3.14277 3.14288 3.14277 -8.94814
67 1 4.71189 4.71184 4.71189 -8.94401
68 1 6.28821 3.14234 3.14254 -8.94949
69 1 7.8599 4.71135 4.71254 -8.94904
70 1 9.43426 3.14219 3.14241 -8.94926
71 1 11.0082 4.71135 4.71183 -8.94689
72 1 12.5805 3.14187 3.14238 -8.94898
73 1 14.1575 4.70893 4.71136 -8.94886
74 1 15.7268 3.14135 3.14235 -8.94911
75 1 17.2998 4.71428 4.71547 -8.9499
76 1 18.8702 3.14336 3.14392 -8.94965
77 1 20.4418 4.71601 4.71648 -8.95005
78 1 0.000235712 6.28899 3.14403 -8.95007
79 1 1.57162 7.86194 4.71637 -8.95013
80 1 3.14301 6.28864 3.14301 -8.95126
81 1 4.71431 7.8615 4.71431 -8.95469
82 1 6.28525 6.28503 3.13808 -8.94864
83 1 7.85344 7.85136 4.70124 -8.95009
84 1 9.4336 6.28473 3.13814 -8.947
85 1 11.0095 7.85333 4.6991 -8.95246
86 1 12.5826 6.28398 3.13687 -8.94911
87 1 14.1718 7.84427 4.69621 -8.9233
88 1 15.7319 6.28251 3.13731 -8.94272
89 1 17.3042 7.85859 4.71311 -8.95099
90 1 18.8722 6.28764 3.14292 -8.94969
91 1 20.4434 7.86133 4.71626 -8.95036
92 1 0.000618881 9.43429 3.14399 -8.94962
93 1 3.14384 9.43443 3.14384 -8.94876
94 1 6.28901 9.4352 3.14346 -8.94917
95 1 9.43433 9.4331 3.13809 -8.95237
96 1 12.5861 9.43105 3.12852 -8.95933
97 1 15.7318 9.43201 3.1373 -8.94674
98 1 18.8726 9.43372 3.14263 -8.9492
99 1 22.0133 7.92728e-16 6.28928 -8.94941
100 1 1.5712 1.57151 7.86167 -8.94936
101 1 3.14362 9.93697e-16 6.28897 -8.94958
102 1 4.71582 1.57067 7.86162 -8.94984
103 1 6.28901 9.29832e-16 6.28901 -8.9508
104 1 7.86198 1.57073 7.86198 -8.95174
105 1 9.4347 1.08932e-15 6.28903 -8.95062
106 1 11.0068 1.57178 7.86232 -8.94986
107 1 12.5796 1.79038e-15 6.28959 -8.95103
108 1 14.1523 1.57154 7.86234 -8.94975
109 1 15.7249 7.83251e-16 6.2897 -8.94976
110 1 17.2973 1.57165 7.86206 -8.94935
111 1 18.8694 3.55807e-16 6.28952 -8.94938
112 1 20.4413 1.57182 7.86191 -8.94943
113 1 -0.000877905 3.14366 6.28905 -8.94931
114 1 1.56974 4.71492 7.86109 -8.94886
115 1 3.14254 3.14234 6.28821 -8.94949
116 1 4.71254 4.71135 7.8599 -8.94904
117 1 6.28749 3.14014 6.28749 -8.95166
118 1 7.8598 4.70858 7.8598 -8.96114
119 1 9.43473 3.1407 6.28745 -8.95084
120 1 11.0068 4.71472 7.86011 -8.95454
121 1 12.5804 3.14067 6.28834 -8.95376
122 1 14.1536 4.7143 7.86168 -8.95008
123 1 15.7257 3.1426 6.28928 -8.94993
124 1 17.2984 4.71526 7.8617 -8.94839
125 1 18.8697 3.14365 6.28936 -8.94924
126 1 20.4413 4.71585 7.86168 -8.94933
127 1 22.0125 6.28845 6.28873 -8.95066
128 1 1.5682 7.86062 7.86103 -8.95283
129 1 3.13808 6.28503 6.28525 -8.94864
130 1 4.70124 7.85136 7.85344 -8.95009
131 1 6.27536 6.2749 6.27536 -8.92691
132 1 7.8219 7.82085 7.8219 -8.83979
133 1 9.43408 6.2771 6.27925 -8.94939
134 1 11.0327 7.84711 7.81798 -8.87769
135 1 12.591 6.27249 6.27565 -8.95051
136 1 14.1639 7.85494 7.85628 -8.94823
137 1 15.7309 6.28449 6.28622 -8.95016
138 1 17.3 7.86104 7.86215 -8.95221
139 1 18.871 6.28829 6.28913 -8.95056
140 1 20.4414 7.86146 7.86192 -8.9504
141 1 22.0142 9.43446 6.2891 -8.94978
142 1 3.14346 9.4352 6.28901 -8.94917
143 1 6.28808 9.43856 6.28808 -8.96518
144 1 9.41356 9.40401 6.26853 -8.89729
145 1 12.6341 9.38977 6.23328 -8.82658
146 1 15.7397 9.43073 6.28159 -8.95858
147 1 18.8733 9.43398 6.28845 -8.95219
148 1 22.0132 1.6855e-16 9.43443 -8.94945
149 1 3.14353 1.66925e-15 9.43446 -8.94954
150 1 6.28903 1.04091e-15 9.4347 -8.95062
151 1 9.43463 1.39064e-15 9.43463 -8.94738
152 1 12.5794 1.19864e-15 9.43474 -8.94915
153 1 15.7248 -1.50001e-16 9.4346 -8.94966
154 1 18.8693 -6.23757e-16 9.43453 -8.94947
155 1 -0.0010718 3.14351 9.43434 -8.94937
156 1 3.14241 3.14219 9.43426 -8.94926
157 1 6.28745 3.1407 9.43473 -8.95084
158 1 9.43437 3.1463 9.43437 -8.9441
159 1 12.5793 3.14482 9.43445 -8.94856
177 1 4.71577 1.57064 11.0074 -8.94965
180 1 14.1521 1.57175 11.0067 -8.94952
184 1 4.71183 4.71135 11.0082 -8.94689
187 1 14.1531 4.71516 11.0055 -8.94829
188 1 17.298 4.71537 11.0068 -8.94865
189 1 20.4409 4.71575 11.007 -8.94939
194 1 14.1592 7.85844 11.0015 -8.94942
21 1 9.43434 3.14351 -0.0010718 -8.94937
176 1 1.57111 1.57144 11.0071 -8.9494
343 1 18.8702 9.43401 18.8702 -8.9493
178 1 7.86232 1.57178 11.0068 -8.94986
179 1 11.0065 1.57274 11.0065 -8.94849
342 1 15.7265 9.43361 18.871 -8.94911
181 1 17.2971 1.57172 11.007 -8.94943
182 1 20.4412 1.5718 11.007 -8.94944
183 1 1.56933 4.71461 11.0072 -8.94907
341 1 12.5797 9.4342 18.871 -8.95363
185 1 7.86011 4.71472 11.0068 -8.95454
186 1 11.0057 4.7198 11.0057 -8.94875
340 1 9.43442 9.43441 18.8687 -8.94755
339 1 6.28845 9.43398 18.8733 -8.95219
338 1 3.14263 9.43372 18.8726 -8.9492
337 1 22.0131 9.43406 18.8707 -8.94931
336 1 20.4419 7.86146 20.4419 -8.94936
192 1 7.81798 7.84711 11.0327 -8.87769
193 1 11.0292 7.86893 11.0292 -8.90199
49 1 18.8707 9.43406 22.0131 -8.94931
195 1 17.2988 7.86072 11.0056 -8.95029
196 1 20.4403 7.8611 11.0067 -8.95024
197 1 22.0132 1.57014e-15 12.5796 -8.94942
198 1 1.57118 1.57133 14.1525 -8.94939
199 1 3.14362 1.36136e-15 12.58 -8.9495
200 1 4.71627 1.57043 14.1529 -8.95115
201 1 6.28959 1.66078e-15 12.5796 -8.95103
202 1 7.86234 1.57154 14.1523 -8.94975
203 1 9.43474 1.19214e-15 12.5794 -8.94915
204 1 11.0067 1.57175 14.1521 -8.94952
205 1 12.5791 -2.9755e-16 12.5791 -8.95111
206 1 14.1522 1.57078 14.1522 -8.95155
207 1 15.7245 -3.46621e-16 12.5793 -8.94956
208 1 17.297 1.57164 14.1519 -8.94965
209 1 18.8691 1.03196e-15 12.5795 -8.94941
210 1 20.4411 1.57179 14.1521 -8.94938
211 1 22.0127 3.14342 12.5798 -8.94927
212 1 1.5691 4.71416 14.1537 -8.94953
213 1 3.14238 3.14187 12.5805 -8.94898
214 1 4.71136 4.70893 14.1575 -8.94886
215 1 6.28834 3.14067 12.5804 -8.95376
216 1 7.86168 4.7143 14.1536 -8.95008
217 1 9.43445 3.14482 12.5793 -8.94856
218 1 11.0055 4.71516 14.1531 -8.94829
219 1 12.5792 3.1419 12.5792 -8.95499
220 1 14.1558 4.70927 14.1558 -8.95156
221 1 15.725 3.14314 12.5792 -8.94946
222 1 17.2984 4.71483 14.1526 -8.95035
223 1 18.8693 3.14369 12.5795 -8.94921
224 1 20.4409 4.71572 14.1524 -8.94969
225 1 -0.00276753 6.28775 12.58 -8.94981
226 1 1.56505 7.8586 14.1559 -8.95175
227 1 3.13687 6.28398 12.5826 -8.94911
228 1 4.69621 7.84427 14.1718 -8.9233
229 1 6.27565 6.27249 12.591 -8.95051
230 1 7.85628 7.85494 14.1639 -8.94823
231 1 9.43196 6.29163 12.5784 -8.94967
232 1 11.0015 7.85844 14.1592 -8.94942
233 1 12.5866 6.27292 12.5866 -8.96283
234 1 14.176 7.83797 14.176 -8.90383
235 1 15.7282 6.28593 12.5796 -8.9507
236 1 17.3033 7.85852 14.1551 -8.9534
237 1 18.8698 6.28822 12.5794 -8.94974
238 1 20.4409 7.86078 14.153 -8.95151
239 1 22.0097 9.43389 12.5804 -8.9524
240 1 3.12852 9.43105 12.5861 -8.95933
241 1 6.23328 9.38977 12.6341 -8.82658
242 1 9.40471 9.43416 12.5704 -8.81555
243 1 12.6481 9.3635 12.6481 -8.71358
244 1 15.7387 9.43131 12.584 -8.96622
245 1 18.871 9.4342 12.5797 -8.95363
246 1 -0.000673269 1.72422e-15 15.7247 -8.94945
247 1 1.57132 1.57131 17.2978 -8.94929
248 1 3.14386 1.55876e-15 15.7253 -8.95019
249 1 4.71686 1.57146 17.2975 -8.94979
250 1 6.2897 8.58665e-16 15.7249 -8.94976
251 1 7.86206 1.57165 17.2973 -8.94935
252 1 9.4346 -8.01066e-17 15.7248 -8.94966
253 1 11.007 1.57172 17.2971 -8.94943
254 1 12.5793 2.16268e-16 15.7245 -8.94956
255 1 14.1519 1.57164 17.297 -8.94965
256 1 15.7248 1.75223e-15 15.7248 -8.95047
257 1 17.2975 1.5713 17.2975 -8.94945
258 1 18.8692 1.56344e-15 15.7245 -8.94966
259 1 20.4413 1.5717 17.2972 -8.94955
260 1 -0.0011502 3.14331 15.7252 -8.94955
261 1 1.5699 4.71434 17.2996 -8.94769
262 1 3.14235 3.14135 15.7268 -8.94911
263 1 4.71547 4.71428 17.2998 -8.9499
264 1 6.28928 3.1426 15.7257 -8.94993
265 1 7.8617 4.71526 17.2984 -8.94839
266 1 9.43437 3.14315 15.7253 -8.94926
267 1 11.0068 4.71537 17.298 -8.94865
268 1 12.5792 3.14314 15.725 -8.94946
269 1 14.1526 4.71483 17.2984 -8.95035
270 1 15.7261 3.14146 15.7261 -8.94973
271 1 17.2993 4.71393 17.2993 -8.94669
272 1 18.8696 3.14341 15.7249 -8.94984
273 1 20.4415 4.71548 17.2981 -8.94942
274 1 22.0115 6.28734 15.7265 -8.95012
275 1 1.56953 7.86024 17.3001 -8.94888
276 1 3.13731 6.28251 15.7319 -8.94272
277 1 4.71311 7.85859 17.3042 -8.95099
278 1 6.28622 6.28449 15.7309 -8.95016
279 1 7.86215 7.86104 17.3 -8.95221
280 1 9.43342 6.28642 15.7277 -8.94347
281 1 11.0056 7.86072 17.2988 -8.95029
282 1 12.5796 6.28593 15.7282 -8.9507
283 1 14.1551 7.85852 17.3033 -8.9534
284 1 15.7323 6.28104 15.7323 -8.93845
285 1 17.2992 7.86027 17.2992 -8.94892
286 1 18.8712 6.28725 15.7263 -8.9503
287 1 20.4414 7.86099 17.2984 -8.9492
288 1 -0.00265383 9.43357 15.7269 -8.94929
289 1 3.1373 9.43201 15.7318 -8.94674
290 1 6.28159 9.43073 15.7397 -8.95858
291 1 9.4336 9.43679 15.7212 -8.94756
292 1 12.584 9.43131 15.7387 -8.96622
293 1 15.7306 9.43219 15.7306 -8.94604
294 1 18.871 9.43361 15.7265 -8.94911
295 1 22.0135 1.67162e-15 18.8696 -8.9491
296 1 1.57194 1.57179 20.4417 -8.94933
297 1 3.14441 1.55592e-15 18.8695 -8.94966
298 1 4.71688 1.57185 20.4414 -8.94944
299 1 6.28952 1.23526e-15 18.8694 -8.94938
300 1 7.86191 1.57182 20.4413 -8.94943
301 1 9.43453 5.31828e-16 18.8693 -8.94947
302 1 11.007 1.5718 20.4412 -8.94944
303 1 12.5795 1.1911e-15 18.8691 -8.94941
304 1 14.1521 1.57179 20.4411 -8.94938
305 1 15.7245 1.76737e-15 18.8692 -8.94966
306 1 17.2972 1.5717 20.4413 -8.94955
307 1 18.8695 1.8681e-15 18.8695 -8.94922
308 1 20.4417 1.57181 20.4417 -8.94878
309 1 22.0133 3.14355 18.8701 -8.94888
310 1 1.57165 4.71614 20.4424 -8.94956
311 1 3.14392 3.14336 18.8702 -8.94965
312 1 4.71648 4.71601 20.4418 -8.95005
313 1 6.28936 3.14365 18.8697 -8.94924
314 1 7.86168 4.71585 20.4413 -8.94933
315 1 9.43445 3.14365 18.8695 -8.94941
316 1 11.007 4.71575 20.4409 -8.94939
317 1 12.5795 3.14369 18.8693 -8.94921
318 1 14.1524 4.71572 20.4409 -8.94969
319 1 15.7249 3.14341 18.8696 -8.94984
320 1 17.2981 4.71548 20.4415 -8.94942
321 1 18.8699 3.14336 18.8699 -8.94859
322 1 20.4418 4.71628 20.4418 -8.94941
323 1 -0.000733629 6.2885 18.8705 -8.94929
324 1 1.57156 7.86142 20.4428 -8.94937
325 1 3.14292 6.28764 18.8722 -8.94969
326 1 4.71626 7.86133 20.4434 -8.95036
327 1 6.28913 6.28829 18.871 -8.95056
328 1 7.86192 7.86146 20.4414 -8.9504
329 1 9.43422 6.28802 18.8701 -8.94935
330 1 11.0067 7.8611 20.4403 -8.95024
331 1 12.5794 6.28822 18.8698 -8.94974
332 1 14.153 7.86078 20.4409 -8.95151
333 1 15.7263 6.28725 18.8712 -8.9503
334 1 17.2984 7.86099 20.4414 -8.9492
335 1 18.8701 6.28837 18.8701 -8.94936
1 1 22.0137 8.79976e-16 22.0137 -8.94909
5 1 6.28928 6.14848e-16 22.0133 -8.94941
9 1 12.5796 1.46267e-15 22.0132 -8.94942
13 1 18.8696 1.71267e-15 22.0135 -8.9491
17 1 3.14394 3.14376 22.0133 -8.94935
47 1 12.5804 9.43389 22.0097 -8.9524
23 1 12.5798 3.14342 22.0127 -8.94927
27 1 18.8701 3.14355 22.0133 -8.94888
29 1 22.0139 6.28902 22.0139 -8.94942
33 1 6.28873 6.28845 22.0125 -8.95066
39 1 15.7265 6.28734 22.0115 -8.95012
43 1 22.014 9.43428 22.014 -8.94945
45 1 6.2891 9.43446 22.0142 -8.94978
46 1 9.43433 9.4342 22.0116 -8.94936
7 1 9.43443 5.5317e-19 22.0132 -8.94945
35 1 9.43409 6.28788 22.0117 -8.94966
344 1 1.57212 11.007 1.57212 -8.94952
345 1 4.71634 11.007 1.57199 -8.9498
346 1 7.86169 11.007 1.57141 -8.94672
347 1 11.0078 11.007 1.56669 -8.94911
348 1 14.1567 11.007 1.5647 -8.94935
349 1 17.3003 11.007 1.56938 -8.94915
350 1 20.4428 11.007 1.57151 -8.94944
688 3 10.4727 11.007 9.41569 2.33424
352 1 1.57205 14.1521 1.57205 -8.94937
353 1 3.14399 12.5796 0.000618881 -8.94962
354 1 4.71637 14.152 1.57162 -8.95013
687 3 9.41569 11.007 10.4727 2.33424
356 1 7.86103 14.1533 1.5682 -8.95283
511 1 18.8695 18.8702 9.43445 -8.94941
358 1 11.0072 14.1542 1.56611 -8.95118
510 1 15.7253 18.8708 9.43437 -8.94926
360 1 14.1559 14.1553 1.56505 -8.95175
361 1 15.7269 12.5803 -0.00265383 -8.94929
362 1 17.3001 14.1537 1.56953 -8.94888
509 1 12.5793 18.8691 9.43445 -8.94856
364 1 20.4428 14.1525 1.57156 -8.94937
508 1 9.43437 18.8676 9.43437 -8.9441
366 1 1.57165 17.2976 1.57165 -8.95004
367 1 3.14403 15.7249 0.000235712 -8.95007
368 1 4.71525 17.2987 1.56987 -8.94906
507 1 6.28745 18.8732 9.43473 -8.95084
370 1 7.86109 17.299 1.56974 -8.94886
537 1 14.1521 20.4422 11.0067 -8.94952
372 1 11.0072 17.2993 1.56933 -8.94907
373 1 12.58 15.7262 -0.00276753 -8.94981
374 1 14.1537 17.2997 1.5691 -8.94953
506 1 3.14241 18.8717 9.43426 -8.94926
376 1 17.2996 17.2996 1.5699 -8.94769
377 1 18.8705 15.7254 -0.000733629 -8.94929
378 1 20.4424 17.2978 1.57165 -8.94956
379 1 -0.000149734 18.8699 -0.000149734 -8.94943
380 1 1.57162 20.4421 1.57162 -8.94911
505 1 -0.0010718 18.8704 9.43434 -8.94937
382 1 4.71639 20.4423 1.57131 -8.94949
383 1 6.28905 18.8702 -0.000877905 -8.94931
384 1 7.86167 20.4424 1.5712 -8.94936
504 1 18.8701 15.7259 9.43422 -8.94935
386 1 11.0071 20.4425 1.57111 -8.9494
503 1 15.7277 15.7275 9.43342 -8.94347
388 1 14.1525 20.4426 1.57118 -8.94939
389 1 15.7252 18.8706 -0.0011502 -8.94955
390 1 17.2978 20.4426 1.57132 -8.94929
502 1 12.5784 15.7223 9.43196 -8.94967
392 1 20.4417 20.4421 1.57194 -8.94933
393 1 1.57199 11.007 4.71634 -8.9498
394 1 4.71525 11.007 4.71525 -8.94554
395 1 7.86394 11.007 4.71949 -8.93205
396 1 11.0154 11.007 4.70378 -9.0161
397 1 14.1682 11.007 4.69869 -8.93962
398 1 17.3043 11.007 4.71238 -8.94868
399 1 20.4438 11.007 4.71601 -8.95005
400 1 0.000618881 12.5796 3.14399 -8.94962
401 1 1.57162 14.152 4.71637 -8.95013
402 1 3.14384 12.5795 3.14384 -8.94876
403 1 4.71431 14.1524 4.71431 -8.95469
404 1 6.28901 12.5787 3.14346 -8.94917
405 1 7.85344 14.1625 4.70124 -8.95009
406 1 9.43433 12.5808 3.13809 -8.95237
407 1 11.0095 14.1606 4.6991 -8.95246
408 1 12.5861 12.5828 3.12852 -8.95933
409 1 14.1718 14.1696 4.69621 -8.9233
410 1 15.7318 12.5819 3.1373 -8.94674
411 1 17.3042 14.1553 4.71311 -8.95099
412 1 18.8726 12.5802 3.14263 -8.9492
413 1 20.4434 14.1526 4.71626 -8.95036
414 1 0.000235712 15.7249 3.14403 -8.95007
415 1 1.56987 17.2987 4.71525 -8.94906
416 1 3.14301 15.7253 3.14301 -8.95126
417 1 4.71189 17.3021 4.71189 -8.94401
418 1 6.28525 15.7289 3.13808 -8.94864
419 1 7.8599 17.3026 4.71254 -8.94904
420 1 9.4336 15.7292 3.13814 -8.947
421 1 11.0082 17.3026 4.71183 -8.94689
422 1 12.5826 15.7299 3.13687 -8.94911
423 1 14.1575 17.305 4.71136 -8.94886
424 1 15.7319 15.7314 3.13731 -8.94272
425 1 17.2998 17.2996 4.71547 -8.9499
426 1 18.8722 15.7263 3.14292 -8.94969
427 1 20.4418 17.2979 4.71648 -8.95005
428 1 22.0133 18.8701 3.14394 -8.94935
429 1 1.57131 20.4423 4.71639 -8.94949
430 1 3.14277 18.871 3.14277 -8.94814
431 1 4.71577 20.4431 4.71577 -8.95004
432 1 6.28821 18.8716 3.14254 -8.94949
433 1 7.86162 20.4432 4.71582 -8.94984
434 1 9.43426 18.8717 3.14241 -8.94926
435 1 11.0074 20.4433 4.71577 -8.94965
436 1 12.5805 18.872 3.14238 -8.94898
437 1 14.1529 20.4435 4.71627 -8.95115
438 1 15.7268 18.8725 3.14235 -8.94911
439 1 17.2975 20.4424 4.71686 -8.94979
440 1 18.8702 18.8705 3.14392 -8.94965
441 1 20.4414 20.4421 4.71688 -8.94944
442 1 1.57141 11.007 7.86169 -8.94672
443 1 4.71949 11.007 7.86394 -8.93205
444 1 7.8961 11.007 7.8961 -8.89648
445 1 11.0908 11.007 7.54553 -7.97889
446 1 14.1628 11.007 7.84329 -8.96328
447 1 17.3004 11.007 7.86088 -8.95074
448 1 20.4421 11.007 7.86189 -8.94941
449 1 22.0142 12.5794 6.2891 -8.94978
450 1 1.5682 14.1533 7.86103 -8.95283
451 1 3.14346 12.5787 6.28901 -8.94917
452 1 4.70124 14.1625 7.85344 -8.95009
453 1 6.28808 12.5753 6.28808 -8.96518
454 1 7.8219 14.193 7.8219 -8.83979
455 1 9.41356 12.6099 6.26853 -8.89729
456 1 11.0327 14.1668 7.81798 -8.87769
457 1 12.6341 12.6241 6.23328 -8.82658
458 1 14.1639 14.159 7.85628 -8.94823
459 1 15.7397 12.5832 6.28159 -8.95858
460 1 17.3 14.1529 7.86215 -8.95221
461 1 18.8733 12.5799 6.28845 -8.95219
462 1 20.4414 14.1524 7.86192 -8.9504
463 1 22.0125 15.7254 6.28873 -8.95066
464 1 1.56974 17.299 7.86109 -8.94886
465 1 3.13808 15.7289 6.28525 -8.94864
466 1 4.71254 17.3026 7.8599 -8.94904
467 1 6.27536 15.739 6.27536 -8.92691
468 1 7.8598 17.3053 7.8598 -8.96114
469 1 9.43408 15.7368 6.27925 -8.94939
470 1 11.0068 17.2992 7.86011 -8.95454
471 1 12.591 15.7414 6.27565 -8.95051
472 1 14.1536 17.2996 7.86168 -8.95008
473 1 15.7309 15.7294 6.28622 -8.95016
474 1 17.2984 17.2986 7.8617 -8.94839
475 1 18.871 15.7256 6.28913 -8.95056
476 1 20.4413 17.298 7.86168 -8.94933
477 1 -0.000877905 18.8702 6.28905 -8.94931
478 1 1.5712 20.4424 7.86167 -8.94936
479 1 3.14254 18.8716 6.28821 -8.94949
480 1 4.71582 20.4432 7.86162 -8.94984
481 1 6.28749 18.8738 6.28749 -8.95166
482 1 7.86198 20.4432 7.86198 -8.95174
483 1 9.43473 18.8732 6.28745 -8.95084
484 1 11.0068 20.4421 7.86232 -8.94986
485 1 12.5804 18.8732 6.28834 -8.95376
486 1 14.1523 20.4424 7.86234 -8.94975
487 1 15.7257 18.8713 6.28928 -8.94993
488 1 17.2973 20.4423 7.86206 -8.94935
489 1 18.8697 18.8702 6.28936 -8.94924
490 1 20.4413 20.4421 7.86191 -8.94943
491 1 22.0116 12.5797 9.43433 -8.94936
492 1 3.13809 12.5808 9.43433 -8.95237
493 1 6.26853 12.6099 9.41356 -8.89729
494 1 9.39044 12.8192 9.39044 -7.74138
495 1 12.5704 12.5797 9.40471 -8.81555
496 1 15.7212 12.5771 9.4336 -8.94756
497 1 18.8687 12.5795 9.43442 -8.94755
498 1 22.0117 15.726 9.43409 -8.94966
499 1 3.13814 15.7292 9.4336 -8.947
500 1 6.27925 15.7368 9.43408 -8.94939
501 1 9.43208 15.7109 9.43208 -9.01117
512 1 1.56669 11.007 11.0078 -8.94911
517 1 17.2959 11.007 11.0063 -8.9441
519 1 1.56611 14.1542 11.0072 -8.95118
520 1 4.6991 14.1606 11.0095 -8.95246
527 1 4.71183 17.3026 11.0082 -8.94689
530 1 14.1531 17.2987 11.0055 -8.94829
531 1 17.298 17.2985 11.0068 -8.94865
532 1 20.4409 17.2981 11.007 -8.94939
534 1 4.71577 20.4433 11.0074 -8.94965
518 1 20.4399 11.007 11.0066 -8.94846
523 1 14.1592 14.1555 11.0015 -8.94942
385 1 9.43434 18.8704 -0.0010718 -8.94937
686 1 20.4417 20.4421 20.4417 -8.94878
513 1 4.70378 11.007 11.0154 -9.0161
514 1 7.54553 11.007 11.0908 -7.97889
515 1 11.279 11.007 11.279 -7.32468
516 1 14.1417 11.007 11.0188 -9.01214
685 1 18.8699 18.8705 18.8699 -8.94859
391 1 18.8701 18.8703 22.0133 -8.94888
684 1 17.2972 20.4422 20.4413 -8.94955
683 1 15.7249 18.8705 18.8696 -8.94984
521 1 7.81798 14.1668 11.0327 -8.87769
522 1 11.0292 14.145 11.0292 -8.90199
387 1 12.5798 18.8705 22.0127 -8.94927
524 1 17.2988 14.1532 11.0056 -8.95029
525 1 20.4403 14.1528 11.0067 -8.95024
526 1 1.56933 17.2993 11.0072 -8.94907
682 1 14.1521 20.4421 20.4411 -8.94938
528 1 7.86011 17.2992 11.0068 -8.95454
529 1 11.0057 17.2941 11.0057 -8.94875
681 1 12.5795 18.8702 18.8693 -8.94921
680 1 11.007 20.4421 20.4412 -8.94944
679 1 9.43445 18.8702 18.8695 -8.94941
533 1 1.57111 20.4425 11.0071 -8.9494
678 1 7.86191 20.4421 20.4413 -8.94943
535 1 7.86232 20.4421 11.0068 -8.94986
536 1 11.0065 20.4412 11.0065 -8.94849
677 1 6.28936 18.8702 18.8697 -8.94924
538 1 17.2971 20.4422 11.007 -8.94943
539 1 20.4412 20.4421 11.007 -8.94944
540 1 1.5647 11.007 14.1567 -8.94935
541 1 4.69869 11.007 14.1682 -8.93962
542 1 7.84329 11.007 14.1628 -8.96328
543 1 11.0188 11.007 14.1417 -9.01214
544 1 14.167 11.007 14.167 -8.93785
545 1 17.3027 11.007 14.156 -8.94853
546 1 20.4408 11.007 14.1536 -8.95068
547 1 22.0097 12.58 12.5804 -8.9524
548 1 1.56505 14.1553 14.1559 -8.95175
549 1 3.12852 12.5828 12.5861 -8.95933
550 1 4.69621 14.1696 14.1718 -8.9233
551 1 6.23328 12.6241 12.6341 -8.82658
552 1 7.85628 14.159 14.1639 -8.94823
553 1 9.40471 12.5797 12.5704 -8.81555
554 1 11.0015 14.1555 14.1592 -8.94942
555 1 12.6481 12.6504 12.6481 -8.71358
556 1 14.176 14.1759 14.176 -8.90383
557 1 15.7387 12.5826 12.584 -8.96622
558 1 17.3033 14.1554 14.1551 -8.9534
559 1 18.871 12.5797 12.5797 -8.95363
560 1 20.4409 14.1531 14.153 -8.95151
561 1 -0.00276753 15.7262 12.58 -8.94981
562 1 1.5691 17.2997 14.1537 -8.94953
563 1 3.13687 15.7299 12.5826 -8.94911
564 1 4.71136 17.305 14.1575 -8.94886
565 1 6.27565 15.7414 12.591 -8.95051
566 1 7.86168 17.2996 14.1536 -8.95008
567 1 9.43196 15.7223 12.5784 -8.94967
568 1 11.0055 17.2987 14.1531 -8.94829
569 1 12.5866 15.741 12.5866 -8.96283
570 1 14.1558 17.3046 14.1558 -8.95156
571 1 15.7282 15.728 12.5796 -8.9507
572 1 17.2984 17.2991 14.1526 -8.95035
573 1 18.8698 15.7257 12.5794 -8.94974
574 1 20.4409 17.2982 14.1524 -8.94969
575 1 22.0127 18.8705 12.5798 -8.94927
576 1 1.57118 20.4426 14.1525 -8.94939
577 1 3.14238 18.872 12.5805 -8.94898
578 1 4.71627 20.4435 14.1529 -8.95115
579 1 6.28834 18.8732 12.5804 -8.95376
580 1 7.86234 20.4424 14.1523 -8.94975
581 1 9.43445 18.8691 12.5793 -8.94856
582 1 11.0067 20.4422 14.1521 -8.94952
583 1 12.5792 18.872 12.5792 -8.95499
584 1 14.1522 20.4431 14.1522 -8.95155
585 1 15.725 18.8708 12.5792 -8.94946
586 1 17.297 20.4423 14.1519 -8.94965
587 1 18.8693 18.8702 12.5795 -8.94921
588 1 20.4411 20.4421 14.1521 -8.94938
589 1 1.56938 11.007 17.3003 -8.94915
590 1 4.71238 11.007 17.3043 -8.94868
591 1 7.86088 11.007 17.3004 -8.95074
592 1 11.0063 11.007 17.2959 -8.9441
593 1 14.156 11.007 17.3027 -8.94853
594 1 17.2994 11.007 17.2994 -8.9492
595 1 20.4414 11.007 17.2985 -8.94937
596 1 -0.00265383 12.5803 15.7269 -8.94929
597 1 1.56953 14.1537 17.3001 -8.94888
598 1 3.1373 12.5819 15.7318 -8.94674
599 1 4.71311 14.1553 17.3042 -8.95099
600 1 6.28159 12.5832 15.7397 -8.95858
601 1 7.86215 14.1529 17.3 -8.95221
602 1 9.4336 12.5771 15.7212 -8.94756
603 1 11.0056 14.1532 17.2988 -8.95029
604 1 12.584 12.5826 15.7387 -8.96622
605 1 14.1551 14.1554 17.3033 -8.9534
606 1 15.7306 12.5817 15.7306 -8.94604
607 1 17.2992 14.1536 17.2992 -8.94892
608 1 18.871 12.5803 15.7265 -8.94911
609 1 20.4414 14.1529 17.2984 -8.9492
610 1 22.0115 15.7266 15.7265 -8.95012
611 1 1.5699 17.2996 17.2996 -8.94769
612 1 3.13731 15.7314 15.7319 -8.94272
613 1 4.71547 17.2996 17.2998 -8.9499
614 1 6.28622 15.7294 15.7309 -8.95016
615 1 7.8617 17.2986 17.2984 -8.94839
616 1 9.43342 15.7275 15.7277 -8.94347
617 1 11.0068 17.2985 17.298 -8.94865
618 1 12.5796 15.728 15.7282 -8.9507
619 1 14.1526 17.2991 17.2984 -8.95035
620 1 15.7323 15.7329 15.7323 -8.93845
621 1 17.2993 17.3 17.2993 -8.94669
622 1 18.8712 15.7267 15.7263 -8.9503
623 1 20.4415 17.2984 17.2981 -8.94942
624 1 -0.0011502 18.8706 15.7252 -8.94955
625 1 1.57132 20.4426 17.2978 -8.94929
626 1 3.14235 18.8725 15.7268 -8.94911
627 1 4.71686 20.4424 17.2975 -8.94979
628 1 6.28928 18.8713 15.7257 -8.94993
629 1 7.86206 20.4423 17.2973 -8.94935
630 1 9.43437 18.8708 15.7253 -8.94926
631 1 11.007 20.4422 17.2971 -8.94943
632 1 12.5792 18.8708 15.725 -8.94946
633 1 14.1519 20.4423 17.297 -8.94965
634 1 15.7261 18.8724 15.7261 -8.94973
635 1 17.2975 20.4426 17.2975 -8.94945
636 1 18.8696 18.8705 15.7249 -8.94984
637 1 20.4413 20.4422 17.2972 -8.94955
638 1 1.57151 11.007 20.4428 -8.94944
639 1 4.71601 11.007 20.4438 -8.95005
640 1 7.86189 11.007 20.4421 -8.94941
641 1 11.0066 11.007 20.4399 -8.94846
642 1 14.1536 11.007 20.4408 -8.95068
643 1 17.2985 11.007 20.4414 -8.94937
644 1 20.4419 11.007 20.4419 -8.94939
645 1 22.0131 12.5798 18.8707 -8.94931
646 1 1.57156 14.1525 20.4428 -8.94937
647 1 3.14263 12.5802 18.8726 -8.9492
648 1 4.71626 14.1526 20.4434 -8.95036
649 1 6.28845 12.5799 18.8733 -8.95219
650 1 7.86192 14.1524 20.4414 -8.9504
651 1 9.43442 12.5795 18.8687 -8.94755
652 1 11.0067 14.1528 20.4403 -8.95024
653 1 12.5797 12.5797 18.871 -8.95363
654 1 14.153 14.1531 20.4409 -8.95151
655 1 15.7265 12.5803 18.871 -8.94911
656 1 17.2984 14.1529 20.4414 -8.9492
657 1 18.8702 12.5799 18.8702 -8.9493
658 1 20.4419 14.1524 20.4419 -8.94936
659 1 -0.000733629 15.7254 18.8705 -8.94929
660 1 1.57165 17.2978 20.4424 -8.94956
661 1 3.14292 15.7263 18.8722 -8.94969
662 1 4.71648 17.2979 20.4418 -8.95005
663 1 6.28913 15.7256 18.871 -8.95056
664 1 7.86168 17.298 20.4413 -8.94933
665 1 9.43422 15.7259 18.8701 -8.94935
666 1 11.007 17.2981 20.4409 -8.94939
667 1 12.5794 15.7257 18.8698 -8.94974
668 1 14.1524 17.2982 20.4409 -8.94969
669 1 15.7263 15.7267 18.8712 -8.9503
670 1 17.2981 17.2984 20.4415 -8.94942
671 1 18.8701 15.7255 18.8701 -8.94936
672 1 20.4418 17.2976 20.4418 -8.94941
673 1 22.0133 18.8703 18.8701 -8.94888
674 1 1.57194 20.4421 20.4417 -8.94933
675 1 3.14392 18.8705 18.8702 -8.94965
676 1 4.71688 20.4421 20.4414 -8.94944
351 1 22.014 12.5796 22.014 -8.94945
355 1 6.2891 12.5794 22.0142 -8.94978
357 1 9.43433 12.5797 22.0116 -8.94936
359 1 12.5804 12.58 22.0097 -8.9524
363 1 18.8707 12.5798 22.0131 -8.94931
365 1 22.0139 15.7249 22.0139 -8.94942
369 1 6.28873 15.7254 22.0125 -8.95066
375 1 15.7265 15.7266 22.0115 -8.95012
381 1 3.14394 18.8701 22.0133 -8.94935
371 1 9.43409 15.726 22.0117 -8.94966
