ITEM: TIMESTEP
30
ITEM: NUMBER OF ATOMS
688
ITEM: BOX BOUNDS pp pp pp
0.0000000000000000e+00 2.2013900999999997e+01
0.0000000000000000e+00 2.2013900999999997e+01
0.0000000000000000e+00 2.2013900999999997e+01
ITEM: ATOMS id type x y z c_pot
175 1 18.8691 9.4345 9.43452 -8.94972
2 1 1.57242 1.57242 1.57242 -8.94963
3 1 3.14484 5.58682e-16 2.93893e-08 -8.94963
4 1 4.71726 1.57242 1.57242 -8.94964
174 1 15.7251 9.4341 9.43447 -8.94889
6 1 7.86211 1.57242 1.57242 -8.94963
191 1 4.716 7.86167 11.0069 -8.95331
8 1 11.007 1.57242 1.57242 -8.94963
173 1 12.5838 9.42845 9.43044 -8.87702
10 1 14.1518 1.57242 1.57242 -8.94964
11 1 15.7242 1.32005e-15 3.84729e-08 -8.94963
12 1 17.2966 1.57242 1.57242 -8.94963
172 1 9.38232 9.19853 9.38232 -7.5738
14 1 20.4415 1.57242 1.57242 -8.94963
15 1 1.18137e-08 3.14484 1.18137e-08 -8.94963
16 1 1.57242 4.71726 1.57242 -8.94964
171 1 6.28269 9.42813 9.42935 -8.93461
18 1 4.71726 4.71726 1.57241 -8.94962
19 1 6.28969 3.14484 3.56755e-07 -8.94963
20 1 7.86211 4.71726 1.57242 -8.94963
170 1 3.14407 9.43428 9.43426 -8.95023
22 1 11.007 4.71726 1.57242 -8.94964
169 1 22.0139 9.43451 9.43452 -8.94975
24 1 14.1518 4.71727 1.57242 -8.94969
25 1 15.7242 3.14484 4.62977e-08 -8.94964
26 1 17.2966 4.71726 1.57242 -8.9496
168 1 18.8691 6.28968 9.43453 -8.94962
28 1 20.4415 4.71726 1.57242 -8.94963
167 1 15.7243 6.28962 9.43453 -8.94922
30 1 1.57242 7.86211 1.57242 -8.94964
31 1 3.14484 6.28969 3.42944e-07 -8.94963
32 1 4.71726 7.86211 1.57242 -8.94965
166 1 12.5794 6.28912 9.43471 -8.95236
34 1 7.86208 7.86207 1.57231 -8.94992
190 1 1.57235 7.86208 11.0069 -8.94975
36 1 11.0069 7.86208 1.57235 -8.94975
37 1 12.5794 6.28969 -7.62187e-07 -8.94964
38 1 14.1518 7.86206 1.57233 -8.94972
165 1 9.43406 6.28579 9.43406 -8.99667
40 1 17.2966 7.86211 1.57242 -8.94968
41 1 18.8691 6.28969 2.01647e-07 -8.94964
42 1 20.4415 7.86211 1.57242 -8.94963
164 1 6.28898 6.28864 9.43477 -8.95134
44 1 3.14484 9.43453 2.22552e-07 -8.94963
163 1 3.14477 6.28963 9.43453 -8.94951
162 1 22.0139 6.28968 9.43453 -8.94964
161 1 18.8691 3.14484 9.43453 -8.94964
48 1 15.7242 9.43453 6.82928e-07 -8.94963
160 1 15.7242 3.14484 9.43453 -8.94963
50 1 2.93893e-08 4.97568e-16 3.14484 -8.94963
51 1 1.57242 1.57242 4.71726 -8.94964
52 1 3.14484 1.43977e-15 3.14484 -8.94963
53 1 4.71726 1.57241 4.71726 -8.94963
54 1 6.28969 5.90115e-16 3.14484 -8.94963
55 1 7.86211 1.57242 4.71726 -8.94962
56 1 9.43453 9.84183e-16 3.14484 -8.94964
57 1 11.007 1.57242 4.71726 -8.94962
58 1 12.5794 7.44175e-16 3.14484 -8.94963
59 1 14.1518 1.57241 4.71726 -8.94964
60 1 15.7242 1.06941e-15 3.14484 -8.94963
61 1 17.2966 1.57242 4.71726 -8.94964
62 1 18.8691 9.76132e-16 3.14484 -8.94963
63 1 20.4415 1.57242 4.71726 -8.94963
64 1 22.0139 3.14484 3.14484 -8.94963
65 1 1.57241 4.71726 4.71726 -8.94962
66 1 3.14484 3.14484 3.14484 -8.94958
67 1 4.71714 4.71714 4.71714 -8.94874
68 1 6.28969 3.14485 3.14485 -8.9497
69 1 7.86211 4.71726 4.71726 -8.95001
70 1 9.43453 3.14484 3.14484 -8.94967
71 1 11.007 4.71722 4.71722 -8.94956
72 1 12.5794 3.14485 3.14484 -8.94966
73 1 14.1519 4.71712 4.71717 -8.94933
74 1 15.7242 3.14484 3.14484 -8.9496
75 1 17.2966 4.71726 4.71726 -8.94967
76 1 18.8691 3.14484 3.14484 -8.94963
77 1 20.4415 4.71726 4.71726 -8.94963
78 1 3.42944e-07 6.28969 3.14484 -8.94963
79 1 1.57242 7.86211 4.71726 -8.94965
80 1 3.14484 6.28969 3.14484 -8.94969
81 1 4.71722 7.86208 4.71722 -8.95006
82 1 6.28962 6.28962 3.1447 -8.9497
83 1 7.86148 7.8615 4.71546 -8.95232
84 1 9.43453 6.28963 3.14477 -8.94951
85 1 11.0069 7.86167 4.716 -8.95331
86 1 12.5794 6.28967 3.1448 -8.95009
87 1 14.1531 7.86076 4.71593 -8.94154
88 1 15.7243 6.28961 3.14477 -8.94905
89 1 17.2967 7.86207 4.71723 -8.94975
90 1 18.8691 6.28968 3.14484 -8.94963
91 1 20.4415 7.86211 4.71726 -8.94965
92 1 2.22552e-07 9.43453 3.14484 -8.94963
93 1 3.14485 9.43453 3.14485 -8.94966
94 1 6.28964 9.43455 3.14475 -8.94981
95 1 9.43426 9.43428 3.14407 -8.95023
96 1 12.5797 9.43419 3.14368 -8.95243
97 1 15.7242 9.43453 3.14484 -8.94987
98 1 18.8691 9.43453 3.14484 -8.94963
99 1 22.0139 3.68258e-16 6.28969 -8.94963
100 1 1.57242 1.57242 7.86211 -8.94963
101 1 3.14484 5.4414e-16 6.28969 -8.94963
102 1 4.71726 1.57242 7.86211 -8.94962
103 1 6.28968 5.38189e-16 6.28968 -8.94968
104 1 7.86209 1.57234 7.86209 -8.94997
105 1 9.43453 1.50399e-15 6.28968 -8.94965
106 1 11.007 1.57237 7.86209 -8.94981
107 1 12.5794 1.29532e-15 6.28968 -8.94967
108 1 14.1518 1.57242 7.86211 -8.94964
109 1 15.7242 1.45228e-15 6.28969 -8.94963
110 1 17.2966 1.57242 7.86211 -8.94963
111 1 18.8691 9.67584e-16 6.28969 -8.94963
112 1 20.4415 1.57242 7.86211 -8.94963
113 1 3.56755e-07 3.14484 6.28969 -8.94963
114 1 1.57242 4.71726 7.86211 -8.94963
115 1 3.14485 3.14485 6.28969 -8.9497
116 1 4.71726 4.71726 7.86211 -8.95001
117 1 6.28963 3.14471 6.28963 -8.94984
118 1 7.86176 4.71577 7.86176 -8.9538
119 1 9.43454 3.14475 6.28964 -8.94958
120 1 11.0072 4.71633 7.86182 -8.95127
121 1 12.5794 3.14472 6.28964 -8.94995
122 1 14.1518 4.71722 7.86214 -8.94993
123 1 15.7242 3.14484 6.28969 -8.94967
124 1 17.2966 4.71727 7.86211 -8.94966
125 1 18.8691 3.14484 6.28969 -8.94963
126 1 20.4415 4.71726 7.86211 -8.94963
127 1 22.0139 6.28968 6.28968 -8.94965
128 1 1.57231 7.86207 7.86208 -8.94992
129 1 3.1447 6.28962 6.28962 -8.9497
130 1 4.71546 7.8615 7.86148 -8.95232
131 1 6.28774 6.28774 6.28774 -8.93845
132 1 7.84057 7.84239 7.84057 -8.83734
133 1 9.43477 6.28864 6.28898 -8.95134
134 1 11.0201 7.85216 7.84808 -8.8845
135 1 12.5806 6.2877 6.28852 -8.94789
136 1 14.1534 7.86123 7.86188 -8.94943
137 1 15.7243 6.28964 6.28964 -8.94992
138 1 17.2968 7.86206 7.86209 -8.94979
139 1 18.8691 6.28968 6.28968 -8.94964
140 1 20.4415 7.8621 7.8621 -8.94967
141 1 22.0139 9.43453 6.28968 -8.94966
142 1 3.14475 9.43455 6.28964 -8.94981
143 1 6.28862 9.43473 6.28862 -8.94971
144 1 9.42935 9.42813 6.28269 -8.93461
145 1 12.596 9.41836 6.2742 -8.85352
146 1 15.7253 9.43426 6.28939 -8.95269
147 1 18.8691 9.43452 6.28968 -8.94987
148 1 22.0139 5.85486e-16 9.43453 -8.94963
149 1 3.14484 1.01723e-15 9.43453 -8.94964
150 1 6.28968 1.43925e-15 9.43453 -8.94965
151 1 9.43453 1.19071e-15 9.43453 -8.94986
152 1 12.5794 7.14167e-16 9.43453 -8.94965
153 1 15.7242 1.44737e-15 9.43453 -8.94963
154 1 18.8691 2.96899e-16 9.43453 -8.94963
155 1 1.48972e-07 3.14484 9.43453 -8.94963
156 1 3.14484 3.14484 9.43453 -8.94967
157 1 6.28964 3.14475 9.43454 -8.94958
158 1 9.43455 3.14435 9.43455 -8.95043
159 1 12.5794 3.14479 9.43454 -8.94962
177 1 4.71726 1.57242 11.007 -8.94962
180 1 14.1518 1.57242 11.0069 -8.94964
184 1 4.71722 4.71722 11.007 -8.94956
187 1 14.1518 4.71719 11.0069 -8.94963
188 1 17.2966 4.71727 11.007 -8.94966
189 1 20.4415 4.71726 11.007 -8.94963
194 1 14.153 7.86138 11.0067 -8.94977
21 1 9.43453 3.14484 1.48972e-07 -8.94963
176 1 1.57242 1.57242 11.007 -8.94963
343 1 18.8691 9.43453 18.8691 -8.94963
178 1 7.86209 1.57237 11.007 -8.94981
179 1 11.007 1.57238 11.007 -8.94968
342 1 15.7242 9.43453 18.8691 -8.94962
181 1 17.2966 1.57242 11.007 -8.94963
182 1 20.4415 1.57242 11.007 -8.94963
183 1 1.57242 4.71726 11.007 -8.94964
341 1 12.5794 9.43452 18.8691 -8.94999
185 1 7.86182 4.71633 11.0072 -8.95127
186 1 11.0072 4.71676 11.0072 -8.94928
340 1 9.43452 9.4345 18.8691 -8.94972
339 1 6.28968 9.43452 18.8691 -8.94987
338 1 3.14484 9.43453 18.8691 -8.94963
337 1 22.0139 9.43453 18.8691 -8.94963
336 1 20.4415 7.86211 20.4415 -8.94963
192 1 7.84808 7.85216 11.0201 -8.8845
193 1 11.0139 7.85959 11.0139 -8.91709
49 1 18.8691 9.43453 22.0139 -8.94963
195 1 17.2967 7.86205 11.0069 -8.94958
196 1 20.4415 7.8621 11.007 -8.94965
197 1 22.0139 1.57019e-15 12.5794 -8.94963
198 1 1.57242 1.57242 14.1518 -8.94964
199 1 3.14484 7.82142e-16 12.5794 -8.94963
200 1 4.71726 1.57241 14.1518 -8.94964
201 1 6.28968 1.32844e-15 12.5794 -8.94967
202 1 7.86211 1.57242 14.1518 -8.94964
203 1 9.43453 7.82944e-16 12.5794 -8.94965
204 1 11.0069 1.57242 14.1518 -8.94964
205 1 12.5794 9.16968e-16 12.5794 -8.94967
206 1 14.1518 1.57241 14.1518 -8.94965
207 1 15.7242 1.0019e-15 12.5794 -8.94963
208 1 17.2966 1.57242 14.1518 -8.94963
209 1 18.8691 1.50923e-15 12.5794 -8.94963
210 1 20.4415 1.57242 14.1518 -8.94963
211 1 22.0139 3.14484 12.5794 -8.94963
212 1 1.57242 4.71727 14.1518 -8.94969
213 1 3.14484 3.14485 12.5794 -8.94966
214 1 4.71717 4.71712 14.1519 -8.94933
215 1 6.28964 3.14472 12.5794 -8.94995
216 1 7.86214 4.71722 14.1518 -8.94993
217 1 9.43454 3.14479 12.5794 -8.94962
218 1 11.0069 4.71719 14.1518 -8.94963
219 1 12.5794 3.14474 12.5794 -8.94998
220 1 14.1519 4.71711 14.1519 -8.94973
221 1 15.7242 3.14484 12.5794 -8.94964
222 1 17.2966 4.71727 14.1518 -8.9497
223 1 18.8691 3.14484 12.5794 -8.94963
224 1 20.4415 4.71726 14.1518 -8.94963
225 1 -7.62187e-07 6.28969 12.5794 -8.94964
226 1 1.57233 7.86206 14.1518 -8.94972
227 1 3.1448 6.28967 12.5794 -8.95009
228 1 4.71593 7.86076 14.1531 -8.94154
229 1 6.28852 6.2877 12.5806 -8.94789
230 1 7.86188 7.86123 14.1534 -8.94943
231 1 9.43471 6.28912 12.5794 -8.95236
232 1 11.0067 7.86138 14.153 -8.94977
233 1 12.5799 6.28787 12.5799 -8.9532
234 1 14.1538 7.86004 14.1538 -8.93752
235 1 15.7242 6.28967 12.5794 -8.95005
236 1 17.2968 7.86205 14.1519 -8.94984
237 1 18.8691 6.28968 12.5794 -8.94962
238 1 20.4415 7.8621 14.1518 -8.94967
239 1 22.0138 9.43452 12.5794 -8.94987
240 1 3.14368 9.43419 12.5797 -8.95243
241 1 6.2742 9.41836 12.596 -8.85352
242 1 9.43044 9.42845 12.5838 -8.87702
243 1 12.6014 9.41135 12.6014 -8.8188
244 1 15.7258 9.43413 12.5798 -8.95404
245 1 18.8691 9.43452 12.5794 -8.94999
246 1 3.84729e-08 1.2934e-15 15.7242 -8.94963
247 1 1.57242 1.57242 17.2966 -8.94963
248 1 3.14484 1.05741e-15 15.7242 -8.94963
249 1 4.71726 1.57242 17.2966 -8.94964
250 1 6.28969 1.57466e-15 15.7242 -8.94963
251 1 7.86211 1.57242 17.2966 -8.94963
252 1 9.43453 1.48807e-15 15.7242 -8.94963
253 1 11.007 1.57242 17.2966 -8.94963
254 1 12.5794 9.91987e-16 15.7242 -8.94963
255 1 14.1518 1.57242 17.2966 -8.94963
256 1 15.7242 1.10968e-15 15.7242 -8.94963
257 1 17.2966 1.57242 17.2966 -8.94963
258 1 18.8691 1.60287e-15 15.7242 -8.94963
259 1 20.4415 1.57242 17.2966 -8.94963
260 1 4.62977e-08 3.14484 15.7242 -8.94964
261 1 1.57242 4.71726 17.2966 -8.9496
262 1 3.14484 3.14484 15.7242 -8.9496
263 1 4.71726 4.71726 17.2966 -8.94967
264 1 6.28969 3.14484 15.7242 -8.94967
265 1 7.86211 4.71727 17.2966 -8.94966
266 1 9.43453 3.14484 15.7242 -8.94963
267 1 11.007 4.71727 17.2966 -8.94966
268 1 12.5794 3.14484 15.7242 -8.94964
269 1 14.1518 4.71727 17.2966 -8.9497
270 1 15.7242 3.14483 15.7242 -8.94962
271 1 17.2966 4.71726 17.2966 -8.94958
272 1 18.8691 3.14484 15.7242 -8.94964
273 1 20.4415 4.71726 17.2966 -8.94963
274 1 22.0139 6.28968 15.7242 -8.94963
275 1 1.57242 7.86211 17.2966 -8.94968
276 1 3.14477 6.28961 15.7243 -8.94905
277 1 4.71723 7.86207 17.2967 -8.94975
278 1 6.28964 6.28964 15.7243 -8.94992
279 1 7.86209 7.86206 17.2968 -8.94979
280 1 9.43453 6.28962 15.7243 -8.94922
281 1 11.0069 7.86205 17.2967 -8.94958
282 1 12.5794 6.28967 15.7242 -8.95005
283 1 14.1519 7.86205 17.2968 -8.94984
284 1 15.7243 6.28956 15.7243 -8.94869
285 1 17.2966 7.86211 17.2966 -8.9497
286 1 18.8691 6.28968 15.7242 -8.94963
287 1 20.4415 7.86211 17.2966 -8.94963
288 1 6.82928e-07 9.43453 15.7242 -8.94963
289 1 3.14484 9.43453 15.7242 -8.94987
290 1 6.28939 9.43426 15.7253 -8.95269
291 1 9.43447 9.4341 15.7251 -8.94889
292 1 12.5798 9.43413 15.7258 -8.95404
293 1 15.7242 9.43452 15.7242 -8.94987
294 1 18.8691 9.43453 15.7242 -8.94962
295 1 22.0139 3.96047e-16 18.8691 -8.94963
296 1 1.57242 1.57242 20.4415 -8.94963
297 1 3.14484 1.04128e-15 18.8691 -8.94963
298 1 4.71726 1.57242 20.4415 -8.94963
299 1 6.28969 9.99278e-16 18.8691 -8.94963
300 1 7.86211 1.57242 20.4415 -8.94963
301 1 9.43453 3.32231e-16 18.8691 -8.94963
302 1 11.007 1.57242 20.4415 -8.94963
303 1 12.5794 1.50063e-15 18.8691 -8.94963
304 1 14.1518 1.57242 20.4415 -8.94963
305 1 15.7242 1.63021e-15 18.8691 -8.94963
306 1 17.2966 1.57242 20.4415 -8.94963
307 1 18.8691 1.55037e-15 18.8691 -8.94963
308 1 20.4415 1.57242 20.4415 -8.94963
309 1 22.0139 3.14484 18.8691 -8.94963
310 1 1.57242 4.71726 20.4415 -8.94963
311 1 3.14484 3.14484 18.8691 -8.94963
312 1 4.71726 4.71726 20.4415 -8.94963
313 1 6.28969 3.14484 18.8691 -8.94963
314 1 7.86211 4.71726 20.4415 -8.94963
315 1 9.43453 3.14484 18.8691 -8.94964
316 1 11.007 4.71726 20.4415 -8.94963
317 1 12.5794 3.14484 18.8691 -8.94963
318 1 14.1518 4.71726 20.4415 -8.94963
319 1 15.7242 3.14484 18.8691 -8.94964
320 1 17.2966 4.71726 20.4415 -8.94963
321 1 18.8691 3.14484 18.8691 -8.94963
322 1 20.4415 4.71726 20.4415 -8.94963
323 1 2.01647e-07 6.28969 18.8691 -8.94964
324 1 1.57242 7.86211 20.4415 -8.94963
325 1 3.14484 6.28968 18.8691 -8.94963
326 1 4.71726 7.86211 20.4415 -8.94965
327 1 6.28968 6.28968 18.8691 -8.94964
328 1 7.8621 7.8621 20.4415 -8.94967
329 1 9.43453 6.28968 18.8691 -8.94962
330 1 11.007 7.8621 20.4415 -8.94965
331 1 12.5794 6.28968 18.8691 -8.94962
332 1 14.1518 7.8621 20.4415 -8.94967
333 1 15.7242 6.28968 18.8691 -8.94963
334 1 17.2966 7.86211 20.4415 -8.94963
335 1 18.8691 6.28969 18.8691 -8.94964
1 1 22.0139 9.98519e-16 22.0139 -8.94963
5 1 6.28969 3.38054e-16 22.0139 -8.94963
9 1 12.5794 1.47406e-15 22.0139 -8.94963
13 1 18.8691 6.36442e-16 22.0139 -8.94963
17 1 3.14484 3.14484 22.0139 -8.94963
47 1 12.5794 9.43452 22.0138 -8.94987
23 1 12.5794 3.14484 22.0139 -8.94963
27 1 18.8691 3.14484 22.0139 -8.94963
29 1 22.0139 6.28969 22.0139 -8.94963
33 1 6.28968 6.28968 22.0139 -8.94965
39 1 15.7242 6.28968 22.0139 -8.94963
43 1 22.0139 9.43453 22.0139 -8.94963
45 1 6.28968 9.43453 22.0139 -8.94966
46 1 9.43452 9.43451 22.0139 -8.94975
7 1 9.43453 5.83e-16 22.0139 -8.94963
35 1 9.43453 6.28968 22.0139 -8.94964
344 1 1.57242 11.007 1.57242 -8.94964
345 1 4.71726 11.007 1.57242 -8.94961
346 1 7.86209 11.007 1.57237 -8.94961
347 1 11.0069 11.007 1.57186 -8.95097
348 1 14.1518 11.007 1.57236 -8.94955
349 1 17.2966 11.007 1.57242 -8.94967
350 1 20.4415 11.007 1.57242 -8.94963
688 3 10.3211 11.007 9.38036 2.83185
352 1 1.57242 14.1518 1.57242 -8.94964
353 1 3.14484 12.5794 2.22552e-07 -8.94963
354 1 4.71726 14.1518 1.57242 -8.94965
687 3 9.38036 11.007 10.3211 2.83185
356 1 7.86208 14.1518 1.57231 -8.94992
511 1 18.8691 18.8691 9.43453 -8.94964
358 1 11.0069 14.1518 1.57235 -8.94975
510 1 15.7242 18.8691 9.43453 -8.94963
360 1 14.1518 14.1518 1.57233 -8.94972
361 1 15.7242 12.5794 6.82928e-07 -8.94963
362 1 17.2966 14.1518 1.57242 -8.94968
509 1 12.5794 18.8691 9.43454 -8.94962
364 1 20.4415 14.1518 1.57242 -8.94963
508 1 9.43455 18.8696 9.43455 -8.95043
366 1 1.57242 17.2966 1.57242 -8.94964
367 1 3.14484 15.7242 3.42944e-07 -8.94963
368 1 4.71726 17.2966 1.57241 -8.94962
507 1 6.28964 18.8691 9.43454 -8.94958
370 1 7.86211 17.2966 1.57242 -8.94963
537 1 14.1518 20.4415 11.0069 -8.94964
372 1 11.007 17.2966 1.57242 -8.94964
373 1 12.5794 15.7242 -7.62187e-07 -8.94964
374 1 14.1518 17.2966 1.57242 -8.94969
506 1 3.14484 18.8691 9.43453 -8.94967
376 1 17.2966 17.2966 1.57242 -8.9496
377 1 18.8691 15.7242 2.01647e-07 -8.94964
378 1 20.4415 17.2966 1.57242 -8.94963
379 1 1.18137e-08 18.8691 1.18137e-08 -8.94963
380 1 1.57242 20.4415 1.57242 -8.94963
505 1 1.48972e-07 18.8691 9.43453 -8.94963
382 1 4.71726 20.4415 1.57242 -8.94964
383 1 6.28969 18.8691 3.56755e-07 -8.94963
384 1 7.86211 20.4415 1.57242 -8.94963
504 1 18.8691 15.7242 9.43453 -8.94962
386 1 11.007 20.4415 1.57242 -8.94963
503 1 15.7243 15.7243 9.43453 -8.94922
388 1 14.1518 20.4415 1.57242 -8.94964
389 1 15.7242 18.8691 4.62977e-08 -8.94964
390 1 17.2966 20.4415 1.57242 -8.94963
502 1 12.5794 15.7248 9.43471 -8.95236
392 1 20.4415 20.4415 1.57242 -8.94963
393 1 1.57242 11.007 4.71726 -8.94961
394 1 4.7172 11.007 4.7172 -8.94898
395 1 7.86201 11.007 4.71676 -8.94995
396 1 11.0078 11.007 4.71135 -8.99006
397 1 14.1525 11.007 4.71651 -8.95025
398 1 17.2967 11.007 4.71724 -8.94957
399 1 20.4415 11.007 4.71726 -8.94964
400 1 2.22552e-07 12.5794 3.14484 -8.94963
401 1 1.57242 14.1518 4.71726 -8.94965
402 1 3.14485 12.5794 3.14485 -8.94966
403 1 4.71722 14.1518 4.71722 -8.95006
404 1 6.28964 12.5794 3.14475 -8.94981
405 1 7.86148 14.1524 4.71546 -8.95232
406 1 9.43426 12.5796 3.14407 -8.95023
407 1 11.0069 14.1522 4.716 -8.95331
408 1 12.5797 12.5797 3.14368 -8.95243
409 1 14.1531 14.1531 4.71593 -8.94154
410 1 15.7242 12.5794 3.14484 -8.94987
411 1 17.2967 14.1518 4.71723 -8.94975
412 1 18.8691 12.5794 3.14484 -8.94963
413 1 20.4415 14.1518 4.71726 -8.94965
414 1 3.42944e-07 15.7242 3.14484 -8.94963
415 1 1.57241 17.2966 4.71726 -8.94962
416 1 3.14484 15.7242 3.14484 -8.94969
417 1 4.71714 17.2968 4.71714 -8.94874
418 1 6.28962 15.7243 3.1447 -8.9497
419 1 7.86211 17.2966 4.71726 -8.95001
420 1 9.43453 15.7243 3.14477 -8.94951
421 1 11.007 17.2967 4.71722 -8.94956
422 1 12.5794 15.7242 3.1448 -8.95009
423 1 14.1519 17.2968 4.71717 -8.94933
424 1 15.7243 15.7243 3.14477 -8.94905
425 1 17.2966 17.2966 4.71726 -8.94967
426 1 18.8691 15.7242 3.14484 -8.94963
427 1 20.4415 17.2966 4.71726 -8.94963
428 1 22.0139 18.8691 3.14484 -8.94963
429 1 1.57242 20.4415 4.71726 -8.94964
430 1 3.14484 18.8691 3.14484 -8.94958
431 1 4.71726 20.4415 4.71726 -8.94963
432 1 6.28969 18.8691 3.14485 -8.9497
433 1 7.86211 20.4415 4.71726 -8.94962
434 1 9.43453 18.8691 3.14484 -8.94967
435 1 11.007 20.4415 4.71726 -8.94962
436 1 12.5794 18.8691 3.14484 -8.94966
437 1 14.1518 20.4415 4.71726 -8.94964
438 1 15.7242 18.8691 3.14484 -8.9496
439 1 17.2966 20.4415 4.71726 -8.94964
440 1 18.8691 18.8691 3.14484 -8.94963
441 1 20.4415 20.4415 4.71726 -8.94963
442 1 1.57237 11.007 7.86209 -8.94961
443 1 4.71676 11.007 7.86201 -8.94995
444 1 7.86053 11.007 7.86053 -8.85484
445 1 11.0986 11.007 7.64352 -7.86388
446 1 14.1586 11.007 7.86104 -8.96845
447 1 17.2971 11.007 7.86211 -8.95112
448 1 20.4415 11.007 7.86211 -8.94974
449 1 22.0139 12.5794 6.28968 -8.94966
450 1 1.57231 14.1518 7.86208 -8.94992
451 1 3.14475 12.5794 6.28964 -8.94981
452 1 4.71546 14.1524 7.86148 -8.95232
453 1 6.28862 12.5792 6.28862 -8.94971
454 1 7.84057 14.1715 7.84057 -8.83734
455 1 9.42935 12.5858 6.28269 -8.93461
456 1 11.0201 14.1617 7.84808 -8.8845
457 1 12.596 12.5955 6.2742 -8.85352
458 1 14.1534 14.1527 7.86188 -8.94943
459 1 15.7253 12.5796 6.28939 -8.95269
460 1 17.2968 14.1518 7.86209 -8.94979
461 1 18.8691 12.5794 6.28968 -8.94987
462 1 20.4415 14.1518 7.8621 -8.94967
463 1 22.0139 15.7242 6.28968 -8.94965
464 1 1.57242 17.2966 7.86211 -8.94963
465 1 3.1447 15.7243 6.28962 -8.9497
466 1 4.71726 17.2966 7.86211 -8.95001
467 1 6.28774 15.7262 6.28774 -8.93845
468 1 7.86176 17.2981 7.86176 -8.9538
469 1 9.43477 15.7253 6.28898 -8.95134
470 1 11.0072 17.2976 7.86182 -8.95127
471 1 12.5806 15.7262 6.28852 -8.94789
472 1 14.1518 17.2967 7.86214 -8.94993
473 1 15.7243 15.7243 6.28964 -8.94992
474 1 17.2966 17.2966 7.86211 -8.94966
475 1 18.8691 15.7242 6.28968 -8.94964
476 1 20.4415 17.2966 7.86211 -8.94963
477 1 3.56755e-07 18.8691 6.28969 -8.94963
478 1 1.57242 20.4415 7.86211 -8.94963
479 1 3.14485 18.8691 6.28969 -8.9497
480 1 4.71726 20.4415 7.86211 -8.94962
481 1 6.28963 18.8692 6.28963 -8.94984
482 1 7.86209 20.4416 7.86209 -8.94997
483 1 9.43454 18.8691 6.28964 -8.94958
484 1 11.007 20.4415 7.86209 -8.94981
485 1 12.5794 18.8692 6.28964 -8.94995
486 1 14.1518 20.4415 7.86211 -8.94964
487 1 15.7242 18.8691 6.28969 -8.94967
488 1 17.2966 20.4415 7.86211 -8.94963
489 1 18.8691 18.8691 6.28969 -8.94963
490 1 20.4415 20.4415 7.86211 -8.94963
491 1 22.0139 12.5794 9.43452 -8.94975
492 1 3.14407 12.5796 9.43426 -8.95023
493 1 6.28269 12.5858 9.42935 -8.93461
494 1 9.38232 12.8154 9.38232 -7.5738
495 1 12.5838 12.5855 9.43044 -8.87702
496 1 15.7251 12.5798 9.43447 -8.94889
497 1 18.8691 12.5794 9.43452 -8.94972
498 1 22.0139 15.7242 9.43453 -8.94964
499 1 3.14477 15.7243 9.43453 -8.94951
500 1 6.28898 15.7253 9.43477 -8.95134
501 1 9.43406 15.7281 9.43406 -8.99667
512 1 1.57186 11.007 11.0069 -8.95097
517 1 17.2972 11.007 11.0069 -8.95082
519 1 1.57235 14.1518 11.0069 -8.94975
520 1 4.716 14.1522 11.0069 -8.95331
527 1 4.71722 17.2967 11.007 -8.94956
530 1 14.1518 17.2967 11.0069 -8.94963
531 1 17.2966 17.2966 11.007 -8.94966
532 1 20.4415 17.2966 11.007 -8.94963
534 1 4.71726 20.4415 11.007 -8.94962
518 1 20.4415 11.007 11.0069 -8.94989
523 1 14.153 14.1525 11.0067 -8.94977
385 1 9.43453 18.8691 1.48972e-07 -8.94963
686 1 20.4415 20.4415 20.4415 -8.94963
513 1 4.71135 11.007 11.0078 -8.99006
514 1 7.64352 11.007 11.0986 -7.86388
515 1 11.1941 11.007 11.1941 -7.41311
516 1 14.1575 11.007 11.0086 -8.98471
685 1 18.8691 18.8691 18.8691 -8.94963
391 1 18.8691 18.8691 22.0139 -8.94963
684 1 17.2966 20.4415 20.4415 -8.94963
683 1 15.7242 18.8691 18.8691 -8.94964
521 1 7.84808 14.1617 11.0201 -8.8845
522 1 11.0139 14.1543 11.0139 -8.91709
387 1 12.5794 18.8691 22.0139 -8.94963
524 1 17.2967 14.1518 11.0069 -8.94958
525 1 20.4415 14.1518 11.007 -8.94965
526 1 1.57242 17.2966 11.007 -8.94964
682 1 14.1518 20.4415 20.4415 -8.94963
528 1 7.86182 17.2976 11.0072 -8.95127
529 1 11.0072 17.2971 11.0072 -8.94928
681 1 12.5794 18.8691 18.8691 -8.94963
680 1 11.007 20.4415 20.4415 -8.94963
679 1 9.43453 18.8691 18.8691 -8.94964
533 1 1.57242 20.4415 11.007 -8.94963
678 1 7.86211 20.4415 20.4415 -8.94963
535 1 7.86209 20.4415 11.007 -8.94981
536 1 11.007 20.4415 11.007 -8.94968
677 1 6.28969 18.8691 18.8691 -8.94963
538 1 17.2966 20.4415 11.007 -8.94963
539 1 20.4415 20.4415 11.007 -8.94963
540 1 1.57236 11.007 14.1518 -8.94955
541 1 4.71651 11.007 14.1525 -8.95025
542 1 7.86104 11.007 14.1586 -8.96845
543 1 11.0086 11.007 14.1575 -8.98471
544 1 14.1529 11.007 14.1529 -8.9498
545 1 17.2967 11.007 14.1518 -8.94952
546 1 20.4415 11.007 14.1518 -8.94965
547 1 22.0138 12.5794 12.5794 -8.94987
548 1 1.57233 14.1518 14.1518 -8.94972
549 1 3.14368 12.5797 12.5797 -8.95243
550 1 4.71593 14.1531 14.1531 -8.94154
551 1 6.2742 12.5955 12.596 -8.85352
552 1 7.86188 14.1527 14.1534 -8.94943
553 1 9.43044 12.5855 12.5838 -8.87702
554 1 11.0067 14.1525 14.153 -8.94977
555 1 12.6014 12.6026 12.6014 -8.8188
556 1 14.1538 14.1539 14.1538 -8.93752
557 1 15.7258 12.5798 12.5798 -8.95404
558 1 17.2968 14.1519 14.1519 -8.94984
559 1 18.8691 12.5794 12.5794 -8.94999
560 1 20.4415 14.1518 14.1518 -8.94967
561 1 -7.62187e-07 15.7242 12.5794 -8.94964
562 1 1.57242 17.2966 14.1518 -8.94969
563 1 3.1448 15.7242 12.5794 -8.95009
564 1 4.71717 17.2968 14.1519 -8.94933
565 1 6.28852 15.7262 12.5806 -8.94789
566 1 7.86214 17.2967 14.1518 -8.94993
567 1 9.43471 15.7248 12.5794 -8.95236
568 1 11.0069 17.2967 14.1518 -8.94963
569 1 12.5799 15.726 12.5799 -8.9532
570 1 14.1519 17.2968 14.1519 -8.94973
571 1 15.7242 15.7242 12.5794 -8.95005
572 1 17.2966 17.2966 14.1518 -8.9497
573 1 18.8691 15.7242 12.5794 -8.94962
574 1 20.4415 17.2966 14.1518 -8.94963
575 1 22.0139 18.8691 12.5794 -8.94963
576 1 1.57242 20.4415 14.1518 -8.94964
577 1 3.14484 18.8691 12.5794 -8.94966
578 1 4.71726 20.4415 14.1518 -8.94964
579 1 6.28964 18.8692 12.5794 -8.94995
580 1 7.86211 20.4415 14.1518 -8.94964
581 1 9.43454 18.8691 12.5794 -8.94962
582 1 11.0069 20.4415 14.1518 -8.94964
583 1 12.5794 18.8692 12.5794 -8.94998
584 1 14.1518 20.4415 14.1518 -8.94965
585 1 15.7242 18.8691 12.5794 -8.94964
586 1 17.2966 20.4415 14.1518 -8.94963
587 1 18.8691 18.8691 12.5794 -8.94963
588 1 20.4415 20.4415 14.1518 -8.94963
589 1 1.57242 11.007 17.2966 -8.94967
590 1 4.71724 11.007 17.2967 -8.94957
591 1 7.86211 11.007 17.2971 -8.95112
592 1 11.0069 11.007 17.2972 -8.95082
593 1 14.1518 11.007 17.2967 -8.94952
594 1 17.2966 11.007 17.2966 -8.94968
595 1 20.4415 11.007 17.2966 -8.94964
596 1 6.82928e-07 12.5794 15.7242 -8.94963
597 1 1.57242 14.1518 17.2966 -8.94968
598 1 3.14484 12.5794 15.7242 -8.94987
599 1 4.71723 14.1518 17.2967 -8.94975
600 1 6.28939 12.5796 15.7253 -8.95269
601 1 7.86209 14.1518 17.2968 -8.94979
602 1 9.43447 12.5798 15.7251 -8.94889
603 1 11.0069 14.1518 17.2967 -8.94958
604 1 12.5798 12.5798 15.7258 -8.95404
605 1 14.1519 14.1519 17.2968 -8.94984
606 1 15.7242 12.5794 15.7242 -8.94987
607 1 17.2966 14.1518 17.2966 -8.9497
608 1 18.8691 12.5794 15.7242 -8.94962
609 1 20.4415 14.1518 17.2966 -8.94963
610 1 22.0139 15.7242 15.7242 -8.94963
611 1 1.57242 17.2966 17.2966 -8.9496
612 1 3.14477 15.7243 15.7243 -8.94905
613 1 4.71726 17.2966 17.2966 -8.94967
614 1 6.28964 15.7243 15.7243 -8.94992
615 1 7.86211 17.2966 17.2966 -8.94966
616 1 9.43453 15.7243 15.7243 -8.94922
617 1 11.007 17.2966 17.2966 -8.94966
618 1 12.5794 15.7242 15.7242 -8.95005
619 1 14.1518 17.2966 17.2966 -8.9497
620 1 15.7243 15.7243 15.7243 -8.94869
621 1 17.2966 17.2966 17.2966 -8.94958
622 1 18.8691 15.7242 15.7242 -8.94963
623 1 20.4415 17.2966 17.2966 -8.94963
624 1 4.62977e-08 18.8691 15.7242 -8.94964
625 1 1.57242 20.4415 17.2966 -8.94963
626 1 3.14484 18.8691 15.7242 -8.9496
627 1 4.71726 20.4415 17.2966 -8.94964
628 1 6.28969 18.8691 15.7242 -8.94967
629 1 7.86211 20.4415 17.2966 -8.94963
630 1 9.43453 18.8691 15.7242 -8.94963
631 1 11.007 20.4415 17.2966 -8.94963
632 1 12.5794 18.8691 15.7242 -8.94964
633 1 14.1518 20.4415 17.2966 -8.94963
634 1 15.7242 18.8691 15.7242 -8.94962
635 1 17.2966 20.4415 17.2966 -8.94963
636 1 18.8691 18.8691 15.7242 -8.94964
637 1 20.4415 20.4415 17.2966 -8.94963
638 1 1.57242 11.007 20.4415 -8.94963
639 1 4.71726 11.007 20.4415 -8.94964
640 1 7.86211 11.007 20.4415 -8.94974
641 1 11.0069 11.007 20.4415 -8.94989
642 1 14.1518 11.007 20.4415 -8.94965
643 1 17.2966 11.007 20.4415 -8.94964
644 1 20.4415 11.007 20.4415 -8.94963
645 1 22.0139 12.5794 18.8691 -8.94963
646 1 1.57242 14.1518 20.4415 -8.94963
647 1 3.14484 12.5794 18.8691 -8.94963
648 1 4.71726 14.1518 20.4415 -8.94965
649 1 6.28968 12.5794 18.8691 -8.94987
650 1 7.8621 14.1518 20.4415 -8.94967
651 1 9.43452 12.5794 18.8691 -8.94972
652 1 11.007 14.1518 20.4415 -8.94965
653 1 12.5794 12.5794 18.8691 -8.94999
654 1 14.1518 14.1518 20.4415 -8.94967
655 1 15.7242 12.5794 18.8691 -8.94962
656 1 17.2966 14.1518 20.4415 -8.94963
657 1 18.8691 12.5794 18.8691 -8.94963
658 1 20.4415 14.1518 20.4415 -8.94963
659 1 2.01647e-07 15.7242 18.8691 -8.94964
660 1 1.57242 17.2966 20.4415 -8.94963
661 1 3.14484 15.7242 18.8691 -8.94963
662 1 4.71726 17.2966 20.4415 -8.94963
663 1 6.28968 15.7242 18.8691 -8.94964
664 1 7.86211 17.2966 20.4415 -8.94963
665 1 9.43453 15.7242 18.8691 -8.94962
666 1 11.007 17.2966 20.4415 -8.94963
667 1 12.5794 15.7242 18.8691 -8.94962
668 1 14.1518 17.2966 20.4415 -8.94963
669 1 15.7242 15.7242 18.8691 -8.94963
670 1 17.2966 17.2966 20.4415 -8.94963
671 1 18.8691 15.7242 18.8691 -8.94964
672 1 20.4415 17.2966 20.4415 -8.94963
673 1 22.0139 18.8691 18.8691 -8.94963
674 1 1.57242 20.4415 20.4415 -8.94963
675 1 3.14484 18.8691 18.8691 -8.94963
676 1 4.71726 20.4415 20.4415 -8.94963
351 1 22.0139 12.5794 22.0139 -8.94963
355 1 6.28968 12.5794 22.0139 -8.94966
357 1 9.43452 12.5794 22.0139 -8.94975
359 1 12.5794 12.5794 22.0138 -8.94987
363 1 18.8691 12.5794 22.0139 -8.94963
365 1 22.0139 15.7242 22.0139 -8.94963
369 1 6.28968 15.7242 22.0139 -8.94965
375 1 15.7242 15.7242 22.0139 -8.94963
381 1 3.14484 18.8691 22.0139 -8.94963
371 1 9.43453 15.7242 22.0139 -8.94964
