ITEM: TIMESTEP
56
ITEM: NUMBER OF ATOMS
688
ITEM: BOX BOUNDS pp pp pp
0.0000000000000000e+00 2.2013900999999997e+01
0.0000000000000000e+00 2.2013900999999997e+01
0.0000000000000000e+00 2.2013900999999997e+01
ITEM: ATOMS id type x y z c_pot
175 1 18.8695 9.43441 9.43476 -8.94791
2 1 1.57209 1.57219 1.57209 -8.94923
3 1 3.14473 1.07431e-15 -0.000143245 -8.94964
4 1 4.71701 1.57209 1.57201 -8.94963
174 1 15.7227 9.43632 9.43505 -8.94764
6 1 7.86199 1.57204 1.57195 -8.94949
191 1 4.70277 7.85495 11.0082 -8.95289
8 1 11.007 1.57201 1.57192 -8.94953
173 1 12.5716 9.43227 9.40796 -8.83179
10 1 14.152 1.57201 1.57199 -8.9495
11 1 15.7243 1.57863e-15 -0.000166382 -8.94959
12 1 17.2971 1.57197 1.57198 -8.94937
172 1 9.38919 9.18129 9.38919 -7.70502
14 1 20.4415 1.57225 1.57229 -8.94954
15 1 -6.16722e-05 3.14466 -6.16722e-05 -8.94958
16 1 1.57207 4.71701 1.57207 -8.94991
171 1 6.27274 9.40653 9.41533 -8.90103
18 1 4.71613 4.71616 1.5708 -8.94921
19 1 6.2895 3.14441 -0.000368 -8.94944
20 1 7.86163 4.71611 1.57093 -8.94897
170 1 3.14021 9.43404 9.43403 -8.95208
22 1 11.007 4.71594 1.57084 -8.94918
169 1 22.0127 9.43446 9.43425 -8.94941
24 1 14.1525 4.7158 1.57077 -8.94967
25 1 15.7245 3.14436 -0.000420838 -8.94967
26 1 17.2981 4.71586 1.57108 -8.94786
168 1 18.8701 6.28865 9.43453 -8.94934
28 1 20.4418 4.71695 1.57211 -8.9496
167 1 15.7273 6.28689 9.43461 -8.94414
30 1 1.57213 7.86205 1.57213 -8.94939
31 1 3.1445 6.28953 4.08897e-05 -8.94993
32 1 4.71674 7.86228 1.57177 -8.94998
166 1 12.5788 6.28968 9.43337 -8.94962
34 1 7.86133 7.86146 1.56932 -8.95277
190 1 1.5683 7.86074 11.0066 -8.95108
36 1 11.0066 7.86074 1.5683 -8.95108
37 1 12.5795 6.28883 -0.0013448 -8.94974
38 1 14.154 7.86002 1.56759 -8.95178
165 1 9.43225 6.29903 9.43225 -9.01326
40 1 17.2981 7.86142 1.57107 -8.94911
41 1 18.8695 6.28942 -0.000291067 -8.94953
42 1 20.4419 7.86194 1.57205 -8.94948
164 1 6.28155 6.2785 9.43439 -8.94907
44 1 3.14436 9.43445 4.26642e-05 -8.94959
163 1 3.14027 6.28644 9.43369 -8.94714
162 1 22.0127 6.28877 9.43423 -8.94963
161 1 18.8694 3.14431 9.43454 -8.94955
48 1 15.7254 9.43417 -0.0012869 -8.94931
160 1 15.7251 3.14359 9.43463 -8.94935
50 1 -0.000143245 1.21304e-15 3.14473 -8.94964
51 1 1.57201 1.57209 4.71701 -8.94963
52 1 3.14438 8.95789e-16 3.14438 -8.94956
53 1 4.71648 1.57138 4.71648 -8.95001
54 1 6.28948 2.85877e-16 3.14436 -8.94958
55 1 7.86193 1.57134 4.71652 -8.94965
56 1 9.4345 6.83987e-16 3.14427 -8.94956
57 1 11.0072 1.57124 4.71644 -8.94954
58 1 12.5796 1.04567e-15 3.14432 -8.94948
59 1 14.1524 1.57112 4.71673 -8.95088
60 1 15.7247 1.41153e-15 3.14442 -8.95
61 1 17.297 1.57205 4.71719 -8.94973
62 1 18.8692 1.53774e-15 3.14477 -8.9497
63 1 20.4415 1.57227 4.71719 -8.94956
64 1 22.0135 3.14445 3.14449 -8.94945
65 1 1.5708 4.71616 4.71613 -8.94921
66 1 3.14364 3.14373 3.14364 -8.94815
67 1 4.71304 4.71312 4.71304 -8.94388
68 1 6.28905 3.14352 3.14365 -8.94956
69 1 7.86074 4.71317 4.7141 -8.94901
70 1 9.43439 3.14337 3.14358 -8.94933
71 1 11.0076 4.71289 4.71382 -8.94701
72 1 12.5798 3.14321 3.14365 -8.94904
73 1 14.156 4.71075 4.7132 -8.94874
74 1 15.7256 3.14284 3.14347 -8.94905
75 1 17.2983 4.71577 4.71653 -8.94987
76 1 18.8695 3.14433 3.14454 -8.9497
77 1 20.4415 4.71682 4.71699 -8.94992
78 1 4.08897e-05 6.28953 3.1445 -8.94993
79 1 1.57177 7.86228 4.71674 -8.94998
80 1 3.14373 6.28934 3.14373 -8.95081
81 1 4.7149 7.8622 4.7149 -8.95377
82 1 6.28641 6.28659 3.13958 -8.94915
83 1 7.85457 7.85374 4.70328 -8.9518
84 1 9.43369 6.28644 3.14027 -8.94714
85 1 11.0082 7.85495 4.70277 -8.95289
86 1 12.581 6.28594 3.13969 -8.94934
87 1 14.1693 7.84581 4.69972 -8.9223
88 1 15.7295 6.28459 3.13963 -8.94272
89 1 17.3018 7.85983 4.71491 -8.95113
90 1 18.8707 6.28876 3.1439 -8.94973
91 1 20.4425 7.86179 4.71679 -8.95024
92 1 4.26642e-05 9.43445 3.14436 -8.94959
93 1 3.14393 9.43456 3.14393 -8.94878
94 1 6.28901 9.43557 3.14358 -8.94949
95 1 9.43403 9.43404 3.14021 -8.95208
96 1 12.5839 9.43197 3.13219 -8.95961
97 1 15.7288 9.43301 3.14034 -8.94695
98 1 18.8707 9.43421 3.14381 -8.94926
99 1 22.0137 -1.37128e-17 6.2896 -8.94956
100 1 1.57195 1.57204 7.86199 -8.94949
101 1 3.14436 3.47104e-16 6.28948 -8.94958
102 1 4.71652 1.57134 7.86193 -8.94965
103 1 6.28935 1.13948e-15 6.28935 -8.95071
104 1 7.86212 1.5708 7.86212 -8.9517
105 1 9.4347 6.07501e-16 6.28929 -8.9504
106 1 11.007 1.57152 7.86237 -8.95001
107 1 12.5796 1.26784e-15 6.28964 -8.95093
108 1 14.1522 1.57169 7.86233 -8.94967
109 1 15.7246 1.42738e-15 6.28972 -8.94965
110 1 17.297 1.57204 7.86211 -8.94947
111 1 18.8692 1.2548e-15 6.28965 -8.94954
112 1 20.4415 1.57222 7.86206 -8.94958
113 1 -0.000368 3.14441 6.2895 -8.94944
114 1 1.57093 4.71611 7.86163 -8.94897
115 1 3.14365 3.14352 6.28905 -8.94956
116 1 4.7141 4.71317 7.86074 -8.94901
117 1 6.28817 3.14112 6.28817 -8.95162
118 1 7.86025 4.7086 7.86025 -8.96077
119 1 9.43483 3.14139 6.28827 -8.95046
120 1 11.007 4.71367 7.86119 -8.95438
121 1 12.5801 3.14121 6.28905 -8.9536
122 1 14.1533 4.71456 7.86268 -8.94982
123 1 15.725 3.14354 6.28973 -8.94979
124 1 17.2978 4.71608 7.86216 -8.94868
125 1 18.8694 3.14439 6.28963 -8.9494
126 1 20.4415 4.71666 7.86196 -8.9494
127 1 22.0129 6.28914 6.28919 -8.95052
128 1 1.56932 7.86146 7.86133 -8.95277
129 1 3.13958 6.28659 6.28641 -8.94915
130 1 4.70328 7.85374 7.85457 -8.9518
131 1 6.27614 6.27608 6.27614 -8.92611
132 1 7.82092 7.82055 7.82092 -8.8326
133 1 9.43439 6.2785 6.28155 -8.94907
134 1 11.0343 7.8453 7.82048 -8.87332
135 1 12.59 6.27306 6.27843 -8.95026
136 1 14.1635 7.85517 7.85959 -8.94795
137 1 15.7292 6.28592 6.28813 -8.95008
138 1 17.2997 7.86129 7.86301 -8.95197
139 1 18.8703 6.28901 6.28963 -8.9503
140 1 20.4416 7.86179 7.86211 -8.95034
141 1 22.0139 9.43459 6.28927 -8.94983
142 1 3.14358 9.43557 6.28901 -8.94949
143 1 6.28759 9.43871 6.28759 -8.96232
144 1 9.41533 9.40653 6.27274 -8.90103
145 1 12.6339 9.38874 6.23723 -8.82103
146 1 15.7379 9.43135 6.28477 -8.959
147 1 18.8722 9.43424 6.28927 -8.95209
148 1 22.0137 -3.19786e-16 9.43451 -8.94959
149 1 3.14427 1.06858e-15 9.4345 -8.94956
150 1 6.28929 1.05544e-15 9.4347 -8.9504
151 1 9.4347 1.11881e-15 9.4347 -8.94802
152 1 12.5796 5.71472e-16 9.43471 -8.94944
153 1 15.7246 1.03973e-15 9.43459 -8.94968
154 1 18.8692 6.33999e-17 9.43454 -8.94959
155 1 -0.000408588 3.14432 9.43446 -8.94952
156 1 3.14358 3.14337 9.43439 -8.94933
157 1 6.28827 3.14139 9.43483 -8.95046
158 1 9.43464 3.14488 9.43464 -8.94489
159 1 12.5796 3.14401 9.43478 -8.94877
177 1 4.71644 1.57124 11.0072 -8.94954
180 1 14.1522 1.57182 11.0069 -8.94947
184 1 4.71382 4.71289 11.0076 -8.94701
187 1 14.1529 4.71538 11.0061 -8.94835
188 1 17.2977 4.71609 11.007 -8.9488
189 1 20.4414 4.71662 11.007 -8.94946
194 1 14.158 7.85923 11.0027 -8.95113
21 1 9.43446 3.14432 -0.000408588 -8.94952
176 1 1.57192 1.57201 11.007 -8.94953
343 1 18.8695 9.43442 18.8695 -8.94951
178 1 7.86237 1.57152 11.007 -8.95001
179 1 11.0069 1.57214 11.0069 -8.94895
342 1 15.7253 9.43417 18.8703 -8.94919
181 1 17.297 1.57205 11.007 -8.94952
182 1 20.4415 1.57222 11.007 -8.94959
183 1 1.57084 4.71594 11.007 -8.94918
341 1 12.5794 9.43444 18.8709 -8.95283
185 1 7.86119 4.71367 11.007 -8.95438
186 1 11.0062 4.71763 11.0062 -8.94952
340 1 9.43476 9.43441 18.8695 -8.94791
339 1 6.28927 9.43424 18.8722 -8.95209
338 1 3.14381 9.43421 18.8707 -8.94926
337 1 22.0136 9.43443 18.8696 -8.94952
336 1 20.4416 7.86201 20.4416 -8.94957
192 1 7.82048 7.8453 11.0343 -8.87332
193 1 11.0283 7.86467 11.0283 -8.90052
49 1 18.8696 9.43443 22.0136 -8.94952
195 1 17.2988 7.8611 11.0061 -8.95001
196 1 20.4412 7.86158 11.0067 -8.95011
197 1 22.0137 4.53886e-16 12.5794 -8.94958
198 1 1.57199 1.57201 14.152 -8.9495
199 1 3.14432 1.21469e-15 12.5796 -8.94948
200 1 4.71673 1.57112 14.1524 -8.95088
201 1 6.28964 1.24026e-15 12.5796 -8.95093
202 1 7.86233 1.57169 14.1522 -8.94967
203 1 9.43471 9.35992e-16 12.5796 -8.94944
204 1 11.0069 1.57182 14.1522 -8.94947
205 1 12.5794 -6.27242e-16 12.5794 -8.95073
206 1 14.1521 1.57137 14.1521 -8.95097
207 1 15.7245 2.86666e-16 12.5794 -8.94951
208 1 17.2969 1.57213 14.1518 -8.94963
209 1 18.8692 8.55388e-16 12.5794 -8.94954
210 1 20.4414 1.57225 14.1519 -8.94953
211 1 22.0135 3.14433 12.5795 -8.94944
212 1 1.57077 4.7158 14.1525 -8.94967
213 1 3.14365 3.14321 12.5798 -8.94904
214 1 4.7132 4.71075 14.156 -8.94874
215 1 6.28905 3.14121 12.5801 -8.9536
216 1 7.86268 4.71456 14.1533 -8.94982
217 1 9.43478 3.14401 12.5796 -8.94877
218 1 11.0061 4.71538 14.1529 -8.94835
219 1 12.5795 3.14224 12.5795 -8.954
220 1 14.1548 4.71147 14.1548 -8.95094
221 1 15.7248 3.14386 12.5793 -8.94942
222 1 17.2977 4.71616 14.1521 -8.95023
223 1 18.8693 3.14439 12.5794 -8.94936
224 1 20.4414 4.71676 14.1519 -8.94966
225 1 -0.0013448 6.28883 12.5795 -8.94974
226 1 1.56759 7.86002 14.154 -8.95178
227 1 3.13969 6.28594 12.581 -8.94934
228 1 4.69972 7.84581 14.1693 -8.9223
229 1 6.27843 6.27306 12.59 -8.95026
230 1 7.85959 7.85517 14.1635 -8.94795
231 1 9.43337 6.28968 12.5788 -8.94962
232 1 11.0027 7.85923 14.158 -8.95113
233 1 12.5857 6.27525 12.5857 -8.96048
234 1 14.1708 7.84308 14.1708 -8.91177
235 1 15.7271 6.28735 12.5793 -8.95081
236 1 17.3014 7.85998 14.1538 -8.95278
237 1 18.8698 6.28901 12.5793 -8.94961
238 1 20.4414 7.86157 14.1523 -8.95108
239 1 22.0114 9.4343 12.5797 -8.95208
240 1 3.13219 9.43197 12.5839 -8.95961
241 1 6.23723 9.38874 12.6339 -8.82103
242 1 9.40796 9.43227 12.5716 -8.83179
243 1 12.6387 9.37381 12.6387 -8.74331
244 1 15.7359 9.43244 12.5825 -8.96501
245 1 18.8709 9.43444 12.5794 -8.95283
246 1 -0.000166382 1.52078e-15 15.7243 -8.94959
247 1 1.57198 1.57197 17.2971 -8.94937
248 1 3.14442 1.57266e-15 15.7247 -8.95
249 1 4.71719 1.57205 17.297 -8.94973
250 1 6.28972 1.57784e-15 15.7246 -8.94965
251 1 7.86211 1.57204 17.297 -8.94947
252 1 9.43459 1.23593e-15 15.7246 -8.94968
253 1 11.007 1.57205 17.297 -8.94952
254 1 12.5794 6.95599e-17 15.7245 -8.94951
255 1 14.1518 1.57213 17.2969 -8.94963
256 1 15.7245 1.33132e-15 15.7245 -8.95012
257 1 17.297 1.57198 17.297 -8.9495
258 1 18.8691 1.59825e-15 15.7243 -8.94967
259 1 20.4415 1.57225 17.2967 -8.94968
260 1 -0.000420838 3.14436 15.7245 -8.94967
261 1 1.57108 4.71586 17.2981 -8.94786
262 1 3.14347 3.14284 15.7256 -8.94905
263 1 4.71653 4.71577 17.2983 -8.94987
264 1 6.28973 3.14354 15.725 -8.94979
265 1 7.86216 4.71608 17.2978 -8.94868
266 1 9.43463 3.14359 15.7251 -8.94935
267 1 11.007 4.71609 17.2977 -8.9488
268 1 12.5793 3.14386 15.7248 -8.94942
269 1 14.1521 4.71616 17.2977 -8.95023
270 1 15.7253 3.14297 15.7253 -8.94956
271 1 17.2981 4.71569 17.2981 -8.94744
272 1 18.8693 3.14441 15.7244 -8.94982
273 1 20.4415 4.71669 17.2972 -8.94953
274 1 22.0126 6.28869 15.7252 -8.95006
275 1 1.57107 7.86142 17.2981 -8.94911
276 1 3.13963 6.28459 15.7295 -8.94272
277 1 4.71491 7.85983 17.3018 -8.95113
278 1 6.28813 6.28592 15.7292 -8.95008
279 1 7.86301 7.86129 17.2997 -8.95197
280 1 9.43461 6.28689 15.7273 -8.94414
281 1 11.0061 7.8611 17.2988 -8.95001
282 1 12.5793 6.28735 15.7271 -8.95081
283 1 14.1538 7.85998 17.3014 -8.95278
284 1 15.7297 6.284 15.7297 -8.94071
285 1 17.2979 7.86143 17.2979 -8.94918
286 1 18.8704 6.28863 15.7252 -8.95015
287 1 20.4415 7.86183 17.2972 -8.94936
288 1 -0.0012869 9.43417 15.7254 -8.94931
289 1 3.14034 9.43301 15.7288 -8.94695
290 1 6.28477 9.43135 15.7379 -8.959
291 1 9.43505 9.43632 15.7227 -8.94764
292 1 12.5825 9.43244 15.7359 -8.96501
293 1 15.7283 9.43315 15.7283 -8.94664
294 1 18.8703 9.43417 15.7253 -8.94919
295 1 22.0137 1.55373e-15 18.8692 -8.94939
296 1 1.57229 1.57225 20.4415 -8.94954
297 1 3.14477 1.34262e-15 18.8692 -8.9497
298 1 4.71719 1.57227 20.4415 -8.94956
299 1 6.28965 1.38279e-15 18.8692 -8.94954
300 1 7.86206 1.57222 20.4415 -8.94958
301 1 9.43454 3.0097e-16 18.8692 -8.94959
302 1 11.007 1.57222 20.4415 -8.94959
303 1 12.5794 9.99465e-16 18.8692 -8.94954
304 1 14.1519 1.57225 20.4414 -8.94953
305 1 15.7243 1.88367e-15 18.8691 -8.94967
306 1 17.2967 1.57225 20.4415 -8.94968
307 1 18.8692 1.67814e-15 18.8692 -8.94948
308 1 20.4415 1.57228 20.4415 -8.94924
309 1 22.0137 3.14446 18.8694 -8.94915
310 1 1.57211 4.71695 20.4418 -8.9496
311 1 3.14454 3.14433 18.8695 -8.9497
312 1 4.71699 4.71682 20.4415 -8.94992
313 1 6.28963 3.14439 18.8694 -8.9494
314 1 7.86196 4.71666 20.4415 -8.9494
315 1 9.43454 3.14431 18.8694 -8.94955
316 1 11.007 4.71662 20.4414 -8.94946
317 1 12.5794 3.14439 18.8693 -8.94936
318 1 14.1519 4.71676 20.4414 -8.94966
319 1 15.7244 3.14441 18.8693 -8.94982
320 1 17.2972 4.71669 20.4415 -8.94953
321 1 18.8694 3.14438 18.8694 -8.94902
322 1 20.4416 4.71711 20.4416 -8.94963
323 1 -0.000291067 6.28942 18.8695 -8.94953
324 1 1.57205 7.86194 20.4419 -8.94948
325 1 3.1439 6.28876 18.8707 -8.94973
326 1 4.71679 7.86179 20.4425 -8.95024
327 1 6.28963 6.28901 18.8703 -8.9503
328 1 7.86211 7.86179 20.4416 -8.95034
329 1 9.43453 6.28865 18.8701 -8.94934
330 1 11.0067 7.86158 20.4412 -8.95011
331 1 12.5793 6.28901 18.8698 -8.94961
332 1 14.1523 7.86157 20.4414 -8.95108
333 1 15.7252 6.28863 18.8704 -8.95015
334 1 17.2972 7.86183 20.4415 -8.94936
335 1 18.8694 6.28939 18.8694 -8.94956
1 1 22.0138 1.81251e-15 22.0138 -8.94941
5 1 6.2896 5.94426e-17 22.0137 -8.94956
9 1 12.5794 1.30794e-15 22.0137 -8.94958
13 1 18.8692 1.59699e-15 22.0137 -8.94939
17 1 3.14449 3.14445 22.0135 -8.94945
47 1 12.5797 9.4343 22.0114 -8.95208
23 1 12.5795 3.14433 22.0135 -8.94944
27 1 18.8694 3.14446 22.0137 -8.94915
29 1 22.0139 6.28959 22.0139 -8.94953
33 1 6.28919 6.28914 22.0129 -8.95052
39 1 15.7252 6.28869 22.0126 -8.95006
43 1 22.0138 9.43448 22.0138 -8.94958
45 1 6.28927 9.43459 22.0139 -8.94983
46 1 9.43425 9.43446 22.0127 -8.94941
7 1 9.43451 -1.88213e-16 22.0137 -8.94959
35 1 9.43423 6.28877 22.0127 -8.94963
344 1 1.57207 11.007 1.57207 -8.94959
345 1 4.71643 11.007 1.57168 -8.94971
346 1 7.86155 11.007 1.57175 -8.94713
347 1 11.007 11.007 1.56876 -8.94888
348 1 14.1545 11.007 1.56755 -8.94923
349 1 17.2982 11.007 1.57102 -8.94932
350 1 20.4419 11.007 1.57201 -8.94954
688 3 10.4256 11.007 9.38874 2.36998
352 1 1.57213 14.1519 1.57213 -8.94939
353 1 3.14436 12.5795 4.26642e-05 -8.94959
354 1 4.71674 14.1516 1.57177 -8.94998
687 3 9.38874 11.007 10.4256 2.36998
356 1 7.86133 14.1524 1.56932 -8.95277
511 1 18.8694 18.8696 9.43454 -8.94955
358 1 11.0066 14.1532 1.5683 -8.95108
510 1 15.7251 18.8703 9.43463 -8.94935
360 1 14.154 14.1539 1.56759 -8.95178
361 1 15.7254 12.5797 -0.0012869 -8.94931
362 1 17.2981 14.1525 1.57107 -8.94911
509 1 12.5796 18.8699 9.43478 -8.94877
364 1 20.4419 14.152 1.57205 -8.94948
508 1 9.43464 18.869 9.43464 -8.94489
366 1 1.57207 17.2969 1.57207 -8.94991
367 1 3.1445 15.7244 4.08897e-05 -8.94993
368 1 4.71613 17.2977 1.5708 -8.94921
507 1 6.28827 18.8725 9.43483 -8.95046
370 1 7.86163 17.2978 1.57093 -8.94897
537 1 14.1522 20.4421 11.0069 -8.94947
372 1 11.007 17.298 1.57084 -8.94918
373 1 12.5795 15.7251 -0.0013448 -8.94974
374 1 14.1525 17.2981 1.57077 -8.94967
506 1 3.14358 18.8705 9.43439 -8.94933
376 1 17.2981 17.298 1.57108 -8.94786
377 1 18.8695 15.7245 -0.000291067 -8.94953
378 1 20.4418 17.2969 1.57211 -8.9496
379 1 -6.16722e-05 18.8692 -6.16722e-05 -8.94958
380 1 1.57209 20.4417 1.57209 -8.94923
505 1 -0.000408588 18.8696 9.43446 -8.94952
382 1 4.71701 20.4418 1.57201 -8.94963
383 1 6.2895 18.8695 -0.000368 -8.94944
384 1 7.86199 20.4419 1.57195 -8.94949
504 1 18.8701 15.7253 9.43453 -8.94934
386 1 11.007 20.4419 1.57192 -8.94953
503 1 15.7273 15.727 9.43461 -8.94414
388 1 14.152 20.4419 1.57199 -8.9495
389 1 15.7245 18.8695 -0.000420838 -8.94967
390 1 17.2971 20.4419 1.57198 -8.94937
502 1 12.5788 15.7242 9.43337 -8.94962
392 1 20.4415 20.4417 1.57229 -8.94954
393 1 1.57168 11.007 4.71643 -8.94971
394 1 4.71516 11.007 4.71516 -8.94524
395 1 7.86382 11.007 4.71999 -8.93526
396 1 11.0144 11.007 4.70788 -9.01618
397 1 14.1653 11.007 4.70336 -8.93962
398 1 17.3018 11.007 4.71455 -8.94875
399 1 20.4426 11.007 4.71661 -8.94996
400 1 4.26642e-05 12.5795 3.14436 -8.94959
401 1 1.57177 14.1516 4.71674 -8.94998
402 1 3.14393 12.5793 3.14393 -8.94878
403 1 4.7149 14.1517 4.7149 -8.95377
404 1 6.28901 12.5783 3.14358 -8.94949
405 1 7.85457 14.1602 4.70328 -8.9518
406 1 9.43403 12.5799 3.14021 -8.95208
407 1 11.0082 14.1589 4.70277 -8.95289
408 1 12.5839 12.5819 3.13219 -8.95961
409 1 14.1693 14.1681 4.69972 -8.9223
410 1 15.7288 12.5809 3.14034 -8.94695
411 1 17.3018 14.1541 4.71491 -8.95113
412 1 18.8707 12.5797 3.14381 -8.94926
413 1 20.4425 14.1521 4.71679 -8.95024
414 1 4.08897e-05 15.7244 3.1445 -8.94993
415 1 1.5708 17.2977 4.71613 -8.94921
416 1 3.14373 15.7246 3.14373 -8.95081
417 1 4.71304 17.3008 4.71304 -8.94388
418 1 6.28641 15.7273 3.13958 -8.94915
419 1 7.86074 17.3007 4.7141 -8.94901
420 1 9.43369 15.7275 3.14027 -8.94714
421 1 11.0076 17.301 4.71382 -8.94701
422 1 12.581 15.728 3.13969 -8.94934
423 1 14.156 17.3031 4.7132 -8.94874
424 1 15.7295 15.7293 3.13963 -8.94272
425 1 17.2983 17.2981 4.71653 -8.94987
426 1 18.8707 15.7251 3.1439 -8.94973
427 1 20.4415 17.2971 4.71699 -8.94992
428 1 22.0135 18.8694 3.14449 -8.94945
429 1 1.57201 20.4418 4.71701 -8.94963
430 1 3.14364 18.8702 3.14364 -8.94815
431 1 4.71648 20.4425 4.71648 -8.95001
432 1 6.28905 18.8704 3.14365 -8.94956
433 1 7.86193 20.4426 4.71652 -8.94965
434 1 9.43439 18.8705 3.14358 -8.94933
435 1 11.0072 20.4427 4.71644 -8.94954
436 1 12.5798 18.8707 3.14365 -8.94904
437 1 14.1524 20.4428 4.71673 -8.95088
438 1 15.7256 18.8711 3.14347 -8.94905
439 1 17.297 20.4418 4.71719 -8.94973
440 1 18.8695 18.8696 3.14454 -8.9497
441 1 20.4415 20.4416 4.71719 -8.94956
442 1 1.57175 11.007 7.86155 -8.94713
443 1 4.71999 11.007 7.86382 -8.93526
444 1 7.89088 11.007 7.89088 -8.87549
445 1 11.1004 11.007 7.54914 -7.95105
446 1 14.1636 11.007 7.84787 -8.96656
447 1 17.3005 11.007 7.86229 -8.95087
448 1 20.4422 11.007 7.8621 -8.9496
449 1 22.0139 12.5793 6.28927 -8.94983
450 1 1.56932 14.1524 7.86133 -8.95277
451 1 3.14358 12.5783 6.28901 -8.94949
452 1 4.70328 14.1602 7.85457 -8.9518
453 1 6.28759 12.5752 6.28759 -8.96232
454 1 7.82092 14.1933 7.82092 -8.8326
455 1 9.41533 12.6074 6.27274 -8.90103
456 1 11.0343 14.1686 7.82048 -8.87332
457 1 12.6339 12.6252 6.23723 -8.82103
458 1 14.1635 14.1587 7.85959 -8.94795
459 1 15.7379 12.5826 6.28477 -8.959
460 1 17.2997 14.1526 7.86301 -8.95197
461 1 18.8722 12.5797 6.28927 -8.95209
462 1 20.4416 14.1521 7.86211 -8.95034
463 1 22.0129 15.7248 6.28919 -8.95052
464 1 1.57093 17.2978 7.86163 -8.94897
465 1 3.13958 15.7273 6.28641 -8.94915
466 1 4.7141 17.3007 7.86074 -8.94901
467 1 6.27614 15.7378 6.27614 -8.92611
468 1 7.86025 17.3053 7.86025 -8.96077
469 1 9.43439 15.7354 6.28155 -8.94907
470 1 11.007 17.3002 7.86119 -8.95438
471 1 12.59 15.7408 6.27843 -8.95026
472 1 14.1533 17.2993 7.86268 -8.94982
473 1 15.7292 15.728 6.28813 -8.95008
474 1 17.2978 17.2978 7.86216 -8.94868
475 1 18.8703 15.7249 6.28963 -8.9503
476 1 20.4415 17.2972 7.86196 -8.9494
477 1 -0.000368 18.8695 6.2895 -8.94944
478 1 1.57195 20.4419 7.86199 -8.94949
479 1 3.14365 18.8704 6.28905 -8.94956
480 1 4.71652 20.4426 7.86193 -8.94965
481 1 6.28817 18.8728 6.28817 -8.95162
482 1 7.86212 20.4431 7.86212 -8.9517
483 1 9.43483 18.8725 6.28827 -8.95046
484 1 11.007 20.4424 7.86237 -8.95001
485 1 12.5801 18.8727 6.28905 -8.9536
486 1 14.1522 20.4422 7.86233 -8.94967
487 1 15.725 18.8704 6.28973 -8.94979
488 1 17.297 20.4419 7.86211 -8.94947
489 1 18.8694 18.8695 6.28963 -8.9494
490 1 20.4415 20.4417 7.86206 -8.94958
491 1 22.0127 12.5794 9.43425 -8.94941
492 1 3.14021 12.5799 9.43403 -8.95208
493 1 6.27274 12.6074 9.41533 -8.90103
494 1 9.38919 12.8326 9.38919 -7.70502
495 1 12.5716 12.5816 9.40796 -8.83179
496 1 15.7227 12.5776 9.43505 -8.94764
497 1 18.8695 12.5795 9.43476 -8.94791
498 1 22.0127 15.7251 9.43423 -8.94963
499 1 3.14027 15.7275 9.43369 -8.94714
500 1 6.28155 15.7354 9.43439 -8.94907
501 1 9.43225 15.7149 9.43225 -9.01326
512 1 1.56876 11.007 11.007 -8.94888
517 1 17.2967 11.007 11.0065 -8.94407
519 1 1.5683 14.1532 11.0066 -8.95108
520 1 4.70277 14.1589 11.0082 -8.95289
527 1 4.71382 17.301 11.0076 -8.94701
530 1 14.1529 17.2985 11.0061 -8.94835
531 1 17.2977 17.2978 11.007 -8.9488
532 1 20.4414 17.2973 11.007 -8.94946
534 1 4.71644 20.4427 11.0072 -8.94954
518 1 20.4409 11.007 11.0066 -8.94867
523 1 14.158 14.1547 11.0027 -8.95113
385 1 9.43446 18.8696 -0.000408588 -8.94952
686 1 20.4415 20.4416 20.4415 -8.94924
513 1 4.70788 11.007 11.0144 -9.01618
514 1 7.54914 11.007 11.1004 -7.95105
515 1 11.2539 11.007 11.2539 -7.38804
516 1 14.1412 11.007 11.0164 -9.00698
685 1 18.8694 18.8695 18.8694 -8.94902
391 1 18.8694 18.8694 22.0137 -8.94915
684 1 17.2967 20.4417 20.4415 -8.94968
683 1 15.7244 18.8695 18.8693 -8.94982
521 1 7.82048 14.1686 11.0343 -8.87332
522 1 11.0283 14.1492 11.0283 -8.90052
387 1 12.5795 18.8696 22.0135 -8.94944
524 1 17.2988 14.1528 11.0061 -8.95001
525 1 20.4412 14.1523 11.0067 -8.95011
526 1 1.57084 17.298 11.007 -8.94918
682 1 14.1519 20.4417 20.4414 -8.94953
528 1 7.86119 17.3002 11.007 -8.95438
529 1 11.0062 17.2963 11.0062 -8.94952
681 1 12.5794 18.8695 18.8693 -8.94936
680 1 11.007 20.4417 20.4415 -8.94959
679 1 9.43454 18.8696 18.8694 -8.94955
533 1 1.57192 20.4419 11.007 -8.94953
678 1 7.86206 20.4417 20.4415 -8.94958
535 1 7.86237 20.4424 11.007 -8.95001
536 1 11.0069 20.4418 11.0069 -8.94895
677 1 6.28963 18.8695 18.8694 -8.9494
538 1 17.297 20.4419 11.007 -8.94952
539 1 20.4415 20.4417 11.007 -8.94959
540 1 1.56755 11.007 14.1545 -8.94923
541 1 4.70336 11.007 14.1653 -8.93962
542 1 7.84787 11.007 14.1636 -8.96656
543 1 11.0164 11.007 14.1412 -9.00698
544 1 14.1638 11.007 14.1638 -8.93948
545 1 17.3012 11.007 14.1544 -8.94879
546 1 20.4414 11.007 14.1526 -8.95038
547 1 22.0114 12.5796 12.5797 -8.95208
548 1 1.56759 14.1539 14.154 -8.95178
549 1 3.13219 12.5819 12.5839 -8.95961
550 1 4.69972 14.1681 14.1693 -8.9223
551 1 6.23723 12.6252 12.6339 -8.82103
552 1 7.85959 14.1587 14.1635 -8.94795
553 1 9.40796 12.5816 12.5716 -8.83179
554 1 11.0027 14.1547 14.158 -8.95113
555 1 12.6387 12.6401 12.6387 -8.74331
556 1 14.1708 14.1708 14.1708 -8.91177
557 1 15.7359 12.5815 12.5825 -8.96501
558 1 17.3014 14.1539 14.1538 -8.95278
559 1 18.8709 12.5795 12.5794 -8.95283
560 1 20.4414 14.1523 14.1523 -8.95108
561 1 -0.0013448 15.7251 12.5795 -8.94974
562 1 1.57077 17.2981 14.1525 -8.94967
563 1 3.13969 15.728 12.581 -8.94934
564 1 4.7132 17.3031 14.156 -8.94874
565 1 6.27843 15.7408 12.59 -8.95026
566 1 7.86268 17.2993 14.1533 -8.94982
567 1 9.43337 15.7242 12.5788 -8.94962
568 1 11.0061 17.2985 14.1529 -8.94835
569 1 12.5857 15.7387 12.5857 -8.96048
570 1 14.1548 17.3024 14.1548 -8.95094
571 1 15.7271 15.7266 12.5793 -8.95081
572 1 17.2977 17.2977 14.1521 -8.95023
573 1 18.8698 15.7249 12.5793 -8.94961
574 1 20.4414 17.2971 14.1519 -8.94966
575 1 22.0135 18.8696 12.5795 -8.94944
576 1 1.57199 20.4419 14.152 -8.9495
577 1 3.14365 18.8707 12.5798 -8.94904
578 1 4.71673 20.4428 14.1524 -8.95088
579 1 6.28905 18.8727 12.5801 -8.9536
580 1 7.86233 20.4422 14.1522 -8.94967
581 1 9.43478 18.8699 12.5796 -8.94877
582 1 11.0069 20.4421 14.1522 -8.94947
583 1 12.5795 18.8717 12.5795 -8.954
584 1 14.1521 20.4425 14.1521 -8.95097
585 1 15.7248 18.87 12.5793 -8.94942
586 1 17.2969 20.4418 14.1518 -8.94963
587 1 18.8693 18.8695 12.5794 -8.94936
588 1 20.4414 20.4417 14.1519 -8.94953
589 1 1.57102 11.007 17.2982 -8.94932
590 1 4.71455 11.007 17.3018 -8.94875
591 1 7.86229 11.007 17.3005 -8.95087
592 1 11.0065 11.007 17.2967 -8.94407
593 1 14.1544 11.007 17.3012 -8.94879
594 1 17.298 11.007 17.298 -8.94944
595 1 20.4415 11.007 17.2973 -8.94949
596 1 -0.0012869 12.5797 15.7254 -8.94931
597 1 1.57107 14.1525 17.2981 -8.94911
598 1 3.14034 12.5809 15.7288 -8.94695
599 1 4.71491 14.1541 17.3018 -8.95113
600 1 6.28477 12.5826 15.7379 -8.959
601 1 7.86301 14.1526 17.2997 -8.95197
602 1 9.43505 12.5776 15.7227 -8.94764
603 1 11.0061 14.1528 17.2988 -8.95001
604 1 12.5825 12.5815 15.7359 -8.96501
605 1 14.1538 14.1539 17.3014 -8.95278
606 1 15.7283 12.5807 15.7283 -8.94664
607 1 17.2979 14.1525 17.2979 -8.94918
608 1 18.8703 12.5797 15.7253 -8.94919
609 1 20.4415 14.1521 17.2972 -8.94936
610 1 22.0126 15.7252 15.7252 -8.95006
611 1 1.57108 17.298 17.2981 -8.94786
612 1 3.13963 15.7293 15.7295 -8.94272
613 1 4.71653 17.2981 17.2983 -8.94987
614 1 6.28813 15.728 15.7292 -8.95008
615 1 7.86216 17.2978 17.2978 -8.94868
616 1 9.43461 15.727 15.7273 -8.94414
617 1 11.007 17.2978 17.2977 -8.9488
618 1 12.5793 15.7266 15.7271 -8.95081
619 1 14.1521 17.2977 17.2977 -8.95023
620 1 15.7297 15.7299 15.7297 -8.94071
621 1 17.2981 17.2982 17.2981 -8.94744
622 1 18.8704 15.7253 15.7252 -8.95015
623 1 20.4415 17.2972 17.2972 -8.94953
624 1 -0.000420838 18.8695 15.7245 -8.94967
625 1 1.57198 20.4419 17.2971 -8.94937
626 1 3.14347 18.8711 15.7256 -8.94905
627 1 4.71719 20.4418 17.297 -8.94973
628 1 6.28973 18.8704 15.725 -8.94979
629 1 7.86211 20.4419 17.297 -8.94947
630 1 9.43463 18.8703 15.7251 -8.94935
631 1 11.007 20.4419 17.297 -8.94952
632 1 12.5793 18.87 15.7248 -8.94942
633 1 14.1518 20.4418 17.2969 -8.94963
634 1 15.7253 18.8709 15.7253 -8.94956
635 1 17.297 20.4419 17.297 -8.9495
636 1 18.8693 18.8695 15.7244 -8.94982
637 1 20.4415 20.4417 17.2967 -8.94968
638 1 1.57201 11.007 20.4419 -8.94954
639 1 4.71661 11.007 20.4426 -8.94996
640 1 7.8621 11.007 20.4422 -8.9496
641 1 11.0066 11.007 20.4409 -8.94867
642 1 14.1526 11.007 20.4414 -8.95038
643 1 17.2973 11.007 20.4415 -8.94949
644 1 20.4416 11.007 20.4416 -8.94959
645 1 22.0136 12.5795 18.8696 -8.94952
646 1 1.57205 14.152 20.4419 -8.94948
647 1 3.14381 12.5797 18.8707 -8.94926
648 1 4.71679 14.1521 20.4425 -8.95024
649 1 6.28927 12.5797 18.8722 -8.95209
650 1 7.86211 14.1521 20.4416 -8.95034
651 1 9.43476 12.5795 18.8695 -8.94791
652 1 11.0067 14.1523 20.4412 -8.95011
653 1 12.5794 12.5795 18.8709 -8.95283
654 1 14.1523 14.1523 20.4414 -8.95108
655 1 15.7253 12.5797 18.8703 -8.94919
656 1 17.2972 14.1521 20.4415 -8.94936
657 1 18.8695 12.5795 18.8695 -8.94951
658 1 20.4416 14.1519 20.4416 -8.94957
659 1 -0.000291067 15.7245 18.8695 -8.94953
660 1 1.57211 17.2969 20.4418 -8.9496
661 1 3.1439 15.7251 18.8707 -8.94973
662 1 4.71699 17.2971 20.4415 -8.94992
663 1 6.28963 15.7249 18.8703 -8.9503
664 1 7.86196 17.2972 20.4415 -8.9494
665 1 9.43453 15.7253 18.8701 -8.94934
666 1 11.007 17.2973 20.4414 -8.94946
667 1 12.5793 15.7249 18.8698 -8.94961
668 1 14.1519 17.2971 20.4414 -8.94966
669 1 15.7252 15.7253 18.8704 -8.95015
670 1 17.2972 17.2972 20.4415 -8.94953
671 1 18.8694 15.7245 18.8694 -8.94956
672 1 20.4416 17.2968 20.4416 -8.94963
673 1 22.0137 18.8694 18.8694 -8.94915
674 1 1.57229 20.4417 20.4415 -8.94954
675 1 3.14454 18.8696 18.8695 -8.9497
676 1 4.71719 20.4416 20.4415 -8.94956
351 1 22.0138 12.5794 22.0138 -8.94958
355 1 6.28927 12.5793 22.0139 -8.94983
357 1 9.43425 12.5794 22.0127 -8.94941
359 1 12.5797 12.5796 22.0114 -8.95208
363 1 18.8696 12.5795 22.0136 -8.94952
365 1 22.0139 15.7243 22.0139 -8.94953
369 1 6.28919 15.7248 22.0129 -8.95052
375 1 15.7252 15.7252 22.0126 -8.95006
381 1 3.14449 18.8694 22.0135 -8.94945
371 1 9.43423 15.7251 22.0127 -8.94963
