ITEM: TIMESTEP
61
ITEM: NUMBER OF ATOMS
688
ITEM: BOX BOUNDS pp pp pp
0.0000000000000000e+00 2.2013900999999997e+01
0.0000000000000000e+00 2.2013900999999997e+01
0.0000000000000000e+00 2.2013900999999997e+01
ITEM: ATOMS id type x y z c_pot
175 1 18.8694 9.43442 9.43476 -8.94786
2 1 1.57205 1.57216 1.57205 -8.94922
3 1 3.1447 1.09322e-15 -0.000165757 -8.94963
4 1 4.71697 1.57206 1.57196 -8.94962
174 1 15.7225 9.43639 9.43497 -8.94766
6 1 7.86197 1.572 1.5719 -8.94948
191 1 4.70243 7.85477 11.0083 -8.95286
8 1 11.007 1.57196 1.57186 -8.94952
173 1 12.5715 9.43236 9.40752 -8.8306
10 1 14.152 1.57196 1.57193 -8.94949
11 1 15.7243 1.73415e-15 -0.000195443 -8.94958
12 1 17.2971 1.57192 1.57193 -8.94936
172 1 9.38929 9.18208 9.38929 -7.70793
14 1 20.4415 1.57222 1.57227 -8.94953
15 1 -7.07176e-05 3.14462 -7.07176e-05 -8.94957
16 1 1.57203 4.71697 1.57203 -8.94993
171 1 6.27239 9.40624 9.41518 -8.90065
18 1 4.71605 4.71609 1.5707 -8.94919
19 1 6.28947 3.14436 -0.000406944 -8.94943
20 1 7.86158 4.71602 1.57083 -8.94896
170 1 3.14007 9.43397 9.43405 -8.95212
22 1 11.007 4.71583 1.57073 -8.94916
169 1 22.0126 9.43445 9.43424 -8.94939
24 1 14.1526 4.71567 1.57064 -8.94966
25 1 15.7245 3.14429 -0.000470122 -8.94966
26 1 17.2982 4.71574 1.57098 -8.94782
168 1 18.8701 6.28859 9.43452 -8.94934
28 1 20.4419 4.71691 1.57207 -8.9496
167 1 15.7274 6.28683 9.43456 -8.94406
30 1 1.57211 7.86204 1.57211 -8.94938
31 1 3.14446 6.2895 4.74316e-05 -8.94994
32 1 4.7167 7.86227 1.57174 -8.95
166 1 12.5788 6.28981 9.43326 -8.94963
34 1 7.8613 7.86141 1.56923 -8.9528
190 1 1.56812 7.86066 11.0066 -8.9511
36 1 11.0066 7.86066 1.56812 -8.9511
37 1 12.5795 6.28876 -0.00144731 -8.94975
38 1 14.1542 7.85989 1.56738 -8.95179
165 1 9.43223 6.29935 9.43223 -9.0132
40 1 17.2983 7.86134 1.57095 -8.94908
41 1 18.8696 6.28938 -0.00032614 -8.94951
42 1 20.4419 7.86191 1.572 -8.94946
164 1 6.28133 6.2783 9.43436 -8.94906
44 1 3.14431 9.43444 6.62521e-05 -8.94959
163 1 3.14009 6.28629 9.43366 -8.94712
162 1 22.0126 6.28871 9.43421 -8.94963
161 1 18.8694 3.14425 9.43454 -8.94954
48 1 15.7255 9.43413 -0.0013899 -8.94931
160 1 15.7252 3.14353 9.43463 -8.94934
50 1 -0.000165757 1.24252e-15 3.1447 -8.94963
51 1 1.57196 1.57206 4.71697 -8.94962
52 1 3.14433 7.62606e-16 3.14433 -8.94956
53 1 4.71642 1.57133 4.71642 -8.95002
54 1 6.28945 1.41887e-16 3.14431 -8.94958
55 1 7.86191 1.57128 4.71646 -8.94967
56 1 9.4345 8.09916e-16 3.14421 -8.94955
57 1 11.0072 1.57117 4.71639 -8.94955
58 1 12.5796 1.05329e-15 3.14426 -8.94948
59 1 14.1525 1.57105 4.7167 -8.95092
60 1 15.7247 1.49524e-15 3.14438 -8.95003
61 1 17.297 1.57201 4.71717 -8.94973
62 1 18.8692 1.26981e-15 3.14476 -8.9497
63 1 20.4415 1.57224 4.71718 -8.94955
64 1 22.0135 3.14441 3.14445 -8.94945
65 1 1.5707 4.71609 4.71605 -8.94919
66 1 3.14356 3.14366 3.14356 -8.94814
67 1 4.71291 4.713 4.71291 -8.94387
68 1 6.28898 3.14342 3.14355 -8.94955
69 1 7.86065 4.71298 4.71395 -8.949
70 1 9.43438 3.14327 3.14349 -8.94932
71 1 11.0077 4.71272 4.71366 -8.94698
72 1 12.5798 3.14309 3.14355 -8.94903
73 1 14.1562 4.71054 4.71304 -8.94875
74 1 15.7257 3.1427 3.14338 -8.94905
75 1 17.2984 4.71564 4.71646 -8.94987
76 1 18.8695 3.14427 3.1445 -8.9497
77 1 20.4416 4.71677 4.71696 -8.94993
78 1 4.74316e-05 6.2895 3.14446 -8.94994
79 1 1.57174 7.86227 4.7167 -8.95
80 1 3.14366 6.2893 3.14366 -8.95086
81 1 4.71482 7.86215 4.71482 -8.95387
82 1 6.28628 6.28645 3.13942 -8.9491
83 1 7.85443 7.8535 4.70307 -8.95167
84 1 9.43366 6.28629 3.14009 -8.94712
85 1 11.0083 7.85477 4.70243 -8.95286
86 1 12.5811 6.28576 3.13945 -8.94931
87 1 14.1696 7.84557 4.69938 -8.92236
88 1 15.7297 6.28438 3.13942 -8.94268
89 1 17.3021 7.85971 4.71478 -8.95112
90 1 18.8708 6.28868 3.14383 -8.94973
91 1 20.4425 7.86176 4.71675 -8.95025
92 1 6.62521e-05 9.43444 3.14431 -8.94959
93 1 3.1439 9.43456 3.1439 -8.94877
94 1 6.289 9.43556 3.14357 -8.94947
95 1 9.43405 9.43397 3.14007 -8.95212
96 1 12.5841 9.43188 3.13187 -8.95961
97 1 15.7291 9.43292 3.14009 -8.94691
98 1 18.8709 9.43418 3.14372 -8.94926
99 1 22.0137 -2.54423e-16 6.28959 -8.94955
100 1 1.5719 1.572 7.86197 -8.94948
101 1 3.14431 3.4353e-16 6.28945 -8.94958
102 1 4.71646 1.57128 7.86191 -8.94967
103 1 6.28932 1.13095e-15 6.28932 -8.95073
104 1 7.86212 1.57077 7.86212 -8.95172
105 1 9.4347 9.01019e-16 6.28927 -8.95042
106 1 11.007 1.57152 7.86238 -8.94999
107 1 12.5796 1.20429e-15 6.28965 -8.95094
108 1 14.1522 1.57166 7.86234 -8.94968
109 1 15.7246 1.30837e-15 6.28973 -8.94966
110 1 17.2971 1.57201 7.86211 -8.94946
111 1 18.8692 9.96825e-16 6.28964 -8.94952
112 1 20.4415 1.57219 7.86205 -8.94957
113 1 -0.000406944 3.14436 6.28947 -8.94943
114 1 1.57083 4.71602 7.86158 -8.94896
115 1 3.14355 3.14342 6.28898 -8.94955
116 1 4.71395 4.71298 7.86065 -8.949
117 1 6.28811 3.14101 6.28811 -8.95163
118 1 7.86021 4.70854 7.86021 -8.96082
119 1 9.43482 3.14129 6.2882 -8.9505
120 1 11.007 4.71371 7.86112 -8.95441
121 1 12.5801 3.14112 6.28901 -8.95364
122 1 14.1534 4.71449 7.86264 -8.94985
123 1 15.7251 3.14345 6.28971 -8.9498
124 1 17.2979 4.71601 7.86215 -8.94865
125 1 18.8694 3.14434 6.28962 -8.94939
126 1 20.4415 4.7166 7.86194 -8.94939
127 1 22.0129 6.2891 6.28915 -8.95054
128 1 1.56923 7.86141 7.8613 -8.9528
129 1 3.13942 6.28645 6.28628 -8.9491
130 1 4.70307 7.8535 7.85443 -8.95167
131 1 6.27601 6.27591 6.27601 -8.9261
132 1 7.82089 7.82043 7.82089 -8.83306
133 1 9.43436 6.2783 6.28133 -8.94906
134 1 11.0342 7.84536 7.82012 -8.87355
135 1 12.5902 6.27291 6.27816 -8.95025
136 1 14.1636 7.85507 7.85931 -8.94796
137 1 15.7294 6.28575 6.288 -8.95007
138 1 17.2998 7.86127 7.863 -8.95201
139 1 18.8703 6.28896 6.28961 -8.95033
140 1 20.4416 7.86177 7.8621 -8.95035
141 1 22.0139 9.43459 6.28925 -8.94983
142 1 3.14357 9.43556 6.289 -8.94947
143 1 6.28763 9.4387 6.28763 -8.96255
144 1 9.41518 9.40624 6.27239 -8.90065
145 1 12.634 9.38876 6.23681 -8.8215
146 1 15.7382 9.43126 6.28452 -8.95896
147 1 18.8723 9.43423 6.28923 -8.95211
148 1 22.0137 -4.12941e-16 9.4345 -8.94958
149 1 3.14421 1.23584e-15 9.4345 -8.94955
150 1 6.28927 1.38239e-15 9.4347 -8.95042
151 1 9.43471 1.24799e-15 9.43471 -8.94794
152 1 12.5796 5.5115e-16 9.43473 -8.94942
153 1 15.7247 9.3072e-16 9.4346 -8.94968
154 1 18.8692 -1.05078e-16 9.43454 -8.94959
155 1 -0.000451761 3.14426 9.43445 -8.9495
156 1 3.14349 3.14327 9.43438 -8.94932
157 1 6.2882 3.14129 9.43482 -8.9505
158 1 9.43463 3.14498 9.43463 -8.94481
159 1 12.5796 3.14404 9.43478 -8.94875
177 1 4.71639 1.57117 11.0072 -8.94955
180 1 14.1522 1.5718 11.0069 -8.94947
184 1 4.71366 4.71272 11.0077 -8.94698
187 1 14.153 4.71534 11.0061 -8.94834
188 1 17.2978 4.71603 11.007 -8.94878
189 1 20.4414 4.71655 11.007 -8.94945
194 1 14.158 7.85918 11.0026 -8.95102
21 1 9.43445 3.14426 -0.000451761 -8.9495
176 1 1.57186 1.57196 11.007 -8.94952
343 1 18.8695 9.4344 18.8695 -8.94949
178 1 7.86238 1.57152 11.007 -8.94999
179 1 11.0068 1.57217 11.0068 -8.94891
342 1 15.7254 9.43414 18.8704 -8.94918
181 1 17.297 1.57202 11.007 -8.94951
182 1 20.4415 1.57219 11.007 -8.94958
183 1 1.57073 4.71583 11.007 -8.94916
341 1 12.5794 9.43443 18.871 -8.9529
185 1 7.86112 4.71371 11.007 -8.95441
186 1 11.0062 4.71779 11.0062 -8.94947
340 1 9.43476 9.43442 18.8694 -8.94786
339 1 6.28923 9.43423 18.8723 -8.95211
338 1 3.14372 9.43418 18.8709 -8.94926
337 1 22.0135 9.43441 18.8696 -8.9495
336 1 20.4416 7.86199 20.4416 -8.94956
192 1 7.82012 7.84536 11.0342 -8.87355
193 1 11.0284 7.865 11.0284 -8.90053
49 1 18.8696 9.43441 22.0135 -8.9495
195 1 17.2989 7.86108 11.0061 -8.95005
196 1 20.4412 7.86155 11.0067 -8.95011
197 1 22.0137 5.95902e-16 12.5794 -8.94957
198 1 1.57193 1.57196 14.152 -8.94949
199 1 3.14426 1.1955e-15 12.5796 -8.94948
200 1 4.7167 1.57105 14.1525 -8.95092
201 1 6.28965 1.21344e-15 12.5796 -8.95094
202 1 7.86234 1.57166 14.1522 -8.94968
203 1 9.43473 9.49585e-16 12.5796 -8.94942
204 1 11.0069 1.5718 14.1522 -8.94947
205 1 12.5794 -7.35223e-16 12.5794 -8.95077
206 1 14.1521 1.57132 14.1521 -8.95103
207 1 15.7245 4.09605e-16 12.5794 -8.94951
208 1 17.2969 1.57209 14.1518 -8.94963
209 1 18.8692 6.5753e-16 12.5794 -8.94953
210 1 20.4414 1.57222 14.1519 -8.94952
211 1 22.0134 3.14427 12.5795 -8.94942
212 1 1.57064 4.71567 14.1526 -8.94966
213 1 3.14355 3.14309 12.5798 -8.94903
214 1 4.71304 4.71054 14.1562 -8.94875
215 1 6.28901 3.14112 12.5801 -8.95364
216 1 7.86264 4.71449 14.1534 -8.94985
217 1 9.43478 3.14404 12.5796 -8.94875
218 1 11.0061 4.71534 14.153 -8.94834
219 1 12.5795 3.14218 12.5795 -8.9541
220 1 14.1549 4.71128 14.1549 -8.95098
221 1 15.7248 3.1438 12.5793 -8.94942
222 1 17.2978 4.71606 14.1521 -8.95024
223 1 18.8693 3.14434 12.5794 -8.94934
224 1 20.4413 4.71669 14.152 -8.94966
225 1 -0.00144731 6.28876 12.5795 -8.94975
226 1 1.56738 7.85989 14.1542 -8.95179
227 1 3.13945 6.28576 12.5811 -8.94931
228 1 4.69938 7.84557 14.1696 -8.92236
229 1 6.27816 6.27291 12.5902 -8.95025
230 1 7.85931 7.85507 14.1636 -8.94796
231 1 9.43326 6.28981 12.5788 -8.94963
232 1 11.0026 7.85918 14.158 -8.95102
233 1 12.5858 6.27503 12.5858 -8.96066
234 1 14.1713 7.84268 14.1713 -8.91118
235 1 15.7272 6.28724 12.5794 -8.95082
236 1 17.3016 7.85988 14.1539 -8.95284
237 1 18.8698 6.28896 12.5793 -8.94963
238 1 20.4414 7.86152 14.1523 -8.95112
239 1 22.0113 9.43427 12.5797 -8.95212
240 1 3.13187 9.43188 12.5841 -8.95961
241 1 6.23681 9.38876 12.634 -8.8215
242 1 9.40752 9.43236 12.5715 -8.8306
243 1 12.6395 9.37302 12.6395 -8.74112
244 1 15.7361 9.43238 12.5826 -8.96515
245 1 18.871 9.43443 12.5794 -8.9529
246 1 -0.000195443 1.78427e-15 15.7243 -8.94958
247 1 1.57193 1.57192 17.2971 -8.94936
248 1 3.14438 1.63066e-15 15.7247 -8.95003
249 1 4.71717 1.57201 17.297 -8.94973
250 1 6.28973 1.50508e-15 15.7246 -8.94966
251 1 7.86211 1.57201 17.2971 -8.94946
252 1 9.4346 1.06652e-15 15.7247 -8.94968
253 1 11.007 1.57202 17.297 -8.94951
254 1 12.5794 8.25157e-18 15.7245 -8.94951
255 1 14.1518 1.57209 17.2969 -8.94963
256 1 15.7246 1.42782e-15 15.7246 -8.95015
257 1 17.297 1.57193 17.297 -8.94949
258 1 18.8692 1.73679e-15 15.7243 -8.94967
259 1 20.4415 1.57222 17.2968 -8.94968
260 1 -0.000470122 3.14429 15.7245 -8.94966
261 1 1.57098 4.71574 17.2982 -8.94782
262 1 3.14338 3.1427 15.7257 -8.94905
263 1 4.71646 4.71564 17.2984 -8.94987
264 1 6.28971 3.14345 15.7251 -8.9498
265 1 7.86215 4.71601 17.2979 -8.94865
266 1 9.43463 3.14353 15.7252 -8.94934
267 1 11.007 4.71603 17.2978 -8.94878
268 1 12.5793 3.1438 15.7248 -8.94942
269 1 14.1521 4.71606 17.2978 -8.95024
270 1 15.7254 3.14285 15.7254 -8.94957
271 1 17.2982 4.71557 17.2982 -8.94738
272 1 18.8694 3.14435 15.7244 -8.94983
273 1 20.4415 4.71662 17.2972 -8.94952
274 1 22.0125 6.2886 15.7253 -8.95008
275 1 1.57095 7.86134 17.2983 -8.94908
276 1 3.13942 6.28438 15.7297 -8.94268
277 1 4.71478 7.85971 17.3021 -8.95112
278 1 6.288 6.28575 15.7294 -8.95007
279 1 7.863 7.86127 17.2998 -8.95201
280 1 9.43456 6.28683 15.7274 -8.94406
281 1 11.0061 7.86108 17.2989 -8.95005
282 1 12.5794 6.28724 15.7272 -8.95082
283 1 14.1539 7.85988 17.3016 -8.95284
284 1 15.7299 6.28376 15.7299 -8.94054
285 1 17.298 7.86136 17.298 -8.94915
286 1 18.8705 6.28855 15.7253 -8.95017
287 1 20.4415 7.86178 17.2973 -8.94934
288 1 -0.0013899 9.43413 15.7255 -8.94931
289 1 3.14009 9.43292 15.7291 -8.94691
290 1 6.28452 9.43126 15.7382 -8.95896
291 1 9.43497 9.43639 15.7225 -8.94766
292 1 12.5826 9.43238 15.7361 -8.96515
293 1 15.7285 9.43308 15.7285 -8.94658
294 1 18.8704 9.43414 15.7254 -8.94918
295 1 22.0137 1.72712e-15 18.8692 -8.94937
296 1 1.57227 1.57222 20.4415 -8.94953
297 1 3.14476 1.21642e-15 18.8692 -8.9497
298 1 4.71718 1.57224 20.4415 -8.94955
299 1 6.28964 1.04874e-15 18.8692 -8.94952
300 1 7.86205 1.57219 20.4415 -8.94957
301 1 9.43454 -1.76648e-16 18.8692 -8.94959
302 1 11.007 1.57219 20.4415 -8.94958
303 1 12.5794 7.28901e-16 18.8692 -8.94953
304 1 14.1519 1.57222 20.4414 -8.94952
305 1 15.7243 1.72861e-15 18.8692 -8.94967
306 1 17.2968 1.57222 20.4415 -8.94968
307 1 18.8692 1.69468e-15 18.8692 -8.94947
308 1 20.4415 1.57226 20.4415 -8.9492
309 1 22.0136 3.1444 18.8695 -8.94913
310 1 1.57207 4.71691 20.4419 -8.9496
311 1 3.1445 3.14427 18.8695 -8.9497
312 1 4.71696 4.71677 20.4416 -8.94993
313 1 6.28962 3.14434 18.8694 -8.94939
314 1 7.86194 4.7166 20.4415 -8.94939
315 1 9.43454 3.14425 18.8694 -8.94954
316 1 11.007 4.71655 20.4414 -8.94945
317 1 12.5794 3.14434 18.8693 -8.94934
318 1 14.152 4.71669 20.4413 -8.94966
319 1 15.7244 3.14435 18.8694 -8.94983
320 1 17.2972 4.71662 20.4415 -8.94952
321 1 18.8694 3.14432 18.8694 -8.94899
322 1 20.4416 4.71707 20.4416 -8.94962
323 1 -0.00032614 6.28938 18.8696 -8.94951
324 1 1.572 7.86191 20.4419 -8.94946
325 1 3.14383 6.28868 18.8708 -8.94973
326 1 4.71675 7.86176 20.4425 -8.95025
327 1 6.28961 6.28896 18.8703 -8.95033
328 1 7.8621 7.86177 20.4416 -8.95035
329 1 9.43452 6.28859 18.8701 -8.94934
330 1 11.0067 7.86155 20.4412 -8.95011
331 1 12.5793 6.28896 18.8698 -8.94963
332 1 14.1523 7.86152 20.4414 -8.95112
333 1 15.7253 6.28855 18.8705 -8.95017
334 1 17.2973 7.86178 20.4415 -8.94934
335 1 18.8695 6.28934 18.8695 -8.94954
1 1 22.0138 1.71372e-15 22.0138 -8.94939
5 1 6.28959 -1.34859e-16 22.0137 -8.94955
9 1 12.5794 1.41127e-15 22.0137 -8.94957
13 1 18.8692 1.47769e-15 22.0137 -8.94937
17 1 3.14445 3.14441 22.0135 -8.94945
47 1 12.5797 9.43427 22.0113 -8.95212
23 1 12.5795 3.14427 22.0134 -8.94942
27 1 18.8695 3.1444 22.0136 -8.94913
29 1 22.0139 6.28956 22.0139 -8.94952
33 1 6.28915 6.2891 22.0129 -8.95054
39 1 15.7253 6.2886 22.0125 -8.95008
43 1 22.0138 9.43448 22.0138 -8.94957
45 1 6.28925 9.43459 22.0139 -8.94983
46 1 9.43424 9.43445 22.0126 -8.94939
7 1 9.4345 -2.547e-16 22.0137 -8.94958
35 1 9.43421 6.28871 22.0126 -8.94963
344 1 1.57205 11.007 1.57205 -8.94959
345 1 4.7164 11.007 1.57168 -8.94972
346 1 7.86155 11.007 1.57175 -8.94708
347 1 11.007 11.007 1.56861 -8.9489
348 1 14.1547 11.007 1.56732 -8.94924
349 1 17.2983 11.007 1.5709 -8.9493
350 1 20.4419 11.007 1.57197 -8.94953
688 3 10.4289 11.007 9.3906 2.36677
352 1 1.57211 14.1519 1.57211 -8.94938
353 1 3.14431 12.5795 6.62521e-05 -8.94959
354 1 4.7167 14.1516 1.57174 -8.95
687 3 9.3906 11.007 10.4289 2.36677
356 1 7.8613 14.1525 1.56923 -8.9528
511 1 18.8694 18.8696 9.43454 -8.94954
358 1 11.0066 14.1532 1.56812 -8.9511
510 1 15.7252 18.8704 9.43463 -8.94934
360 1 14.1542 14.154 1.56738 -8.95179
361 1 15.7255 12.5798 -0.0013899 -8.94931
362 1 17.2983 14.1526 1.57095 -8.94908
509 1 12.5796 18.8699 9.43478 -8.94875
364 1 20.4419 14.152 1.572 -8.94946
508 1 9.43463 18.8689 9.43463 -8.94481
366 1 1.57203 17.2969 1.57203 -8.94993
367 1 3.14446 15.7244 4.74316e-05 -8.94994
368 1 4.71605 17.2978 1.5707 -8.94919
507 1 6.2882 18.8726 9.43482 -8.9505
370 1 7.86158 17.2979 1.57083 -8.94896
537 1 14.1522 20.4421 11.0069 -8.94947
372 1 11.007 17.2981 1.57073 -8.94916
373 1 12.5795 15.7251 -0.00144731 -8.94975
374 1 14.1526 17.2982 1.57064 -8.94966
506 1 3.14349 18.8706 9.43438 -8.94932
376 1 17.2982 17.2982 1.57098 -8.94782
377 1 18.8696 15.7245 -0.00032614 -8.94951
378 1 20.4419 17.297 1.57207 -8.9496
379 1 -7.07176e-05 18.8693 -7.07176e-05 -8.94957
380 1 1.57205 20.4417 1.57205 -8.94922
505 1 -0.000451761 18.8696 9.43445 -8.9495
382 1 4.71697 20.4418 1.57196 -8.94962
383 1 6.28947 18.8695 -0.000406944 -8.94943
384 1 7.86197 20.4419 1.5719 -8.94948
504 1 18.8701 15.7253 9.43452 -8.94934
386 1 11.007 20.4419 1.57186 -8.94952
503 1 15.7274 15.7271 9.43456 -8.94406
388 1 14.152 20.4419 1.57193 -8.94949
389 1 15.7245 18.8696 -0.000470122 -8.94966
390 1 17.2971 20.442 1.57193 -8.94936
502 1 12.5788 15.7241 9.43326 -8.94963
392 1 20.4415 20.4417 1.57227 -8.94953
393 1 1.57168 11.007 4.7164 -8.94972
394 1 4.71516 11.007 4.71516 -8.94523
395 1 7.86386 11.007 4.72002 -8.93495
396 1 11.0146 11.007 4.70758 -9.01619
397 1 14.1656 11.007 4.70293 -8.93959
398 1 17.3021 11.007 4.7144 -8.94875
399 1 20.4427 11.007 4.71656 -8.94997
400 1 6.62521e-05 12.5795 3.14431 -8.94959
401 1 1.57174 14.1516 4.7167 -8.95
402 1 3.1439 12.5793 3.1439 -8.94877
403 1 4.71482 14.1518 4.71482 -8.95387
404 1 6.289 12.5783 3.14357 -8.94947
405 1 7.85443 14.1604 4.70307 -8.95167
406 1 9.43405 12.5799 3.14007 -8.95212
407 1 11.0083 14.1591 4.70243 -8.95286
408 1 12.5841 12.582 3.13187 -8.95961
409 1 14.1696 14.1683 4.69938 -8.92236
410 1 15.7291 12.581 3.14009 -8.94691
411 1 17.3021 14.1542 4.71478 -8.95112
412 1 18.8709 12.5797 3.14372 -8.94926
413 1 20.4425 14.1521 4.71675 -8.95025
414 1 4.74316e-05 15.7244 3.14446 -8.94994
415 1 1.5707 17.2978 4.71605 -8.94919
416 1 3.14366 15.7246 3.14366 -8.95086
417 1 4.71291 17.3009 4.71291 -8.94387
418 1 6.28628 15.7274 3.13942 -8.9491
419 1 7.86065 17.3009 4.71395 -8.949
420 1 9.43366 15.7276 3.14009 -8.94712
421 1 11.0077 17.3012 4.71366 -8.94698
422 1 12.5811 15.7281 3.13945 -8.94931
423 1 14.1562 17.3034 4.71304 -8.94875
424 1 15.7297 15.7295 3.13942 -8.94268
425 1 17.2984 17.2983 4.71646 -8.94987
426 1 18.8708 15.7252 3.14383 -8.94973
427 1 20.4416 17.2971 4.71696 -8.94993
428 1 22.0135 18.8695 3.14445 -8.94945
429 1 1.57196 20.4418 4.71697 -8.94962
430 1 3.14356 18.8702 3.14356 -8.94814
431 1 4.71642 20.4426 4.71642 -8.95002
432 1 6.28898 18.8705 3.14355 -8.94955
433 1 7.86191 20.4426 4.71646 -8.94967
434 1 9.43438 18.8706 3.14349 -8.94932
435 1 11.0072 20.4427 4.71639 -8.94955
436 1 12.5798 18.8708 3.14355 -8.94903
437 1 14.1525 20.4428 4.7167 -8.95092
438 1 15.7257 18.8712 3.14338 -8.94905
439 1 17.297 20.4419 4.71717 -8.94973
440 1 18.8695 18.8696 3.1445 -8.9497
441 1 20.4415 20.4417 4.71718 -8.94955
442 1 1.57175 11.007 7.86155 -8.94708
443 1 4.72002 11.007 7.86386 -8.93495
444 1 7.89135 11.007 7.89135 -8.87722
445 1 11.0996 11.007 7.54865 -7.9532
446 1 14.1636 11.007 7.84741 -8.96627
447 1 17.3005 11.007 7.86222 -8.95087
448 1 20.4422 11.007 7.86209 -8.94958
449 1 22.0139 12.5793 6.28925 -8.94983
450 1 1.56923 14.1525 7.8613 -8.9528
451 1 3.14357 12.5783 6.289 -8.94947
452 1 4.70307 14.1604 7.85443 -8.95167
453 1 6.28763 12.5752 6.28763 -8.96255
454 1 7.82089 14.1935 7.82089 -8.83306
455 1 9.41518 12.6077 6.27239 -8.90065
456 1 11.0342 14.1685 7.82012 -8.87355
457 1 12.634 12.6251 6.23681 -8.8215
458 1 14.1636 14.1588 7.85931 -8.94796
459 1 15.7382 12.5826 6.28452 -8.95896
460 1 17.2998 14.1526 7.863 -8.95201
461 1 18.8723 12.5797 6.28923 -8.95211
462 1 20.4416 14.1521 7.8621 -8.95035
463 1 22.0129 15.7248 6.28915 -8.95054
464 1 1.57083 17.2979 7.86158 -8.94896
465 1 3.13942 15.7274 6.28628 -8.9491
466 1 4.71395 17.3009 7.86065 -8.949
467 1 6.27601 15.738 6.27601 -8.9261
468 1 7.86021 17.3054 7.86021 -8.96082
469 1 9.43436 15.7356 6.28133 -8.94906
470 1 11.007 17.3002 7.86112 -8.95441
471 1 12.5902 15.741 6.27816 -8.95025
472 1 14.1534 17.2994 7.86264 -8.94985
473 1 15.7294 15.7281 6.288 -8.95007
474 1 17.2979 17.2979 7.86215 -8.94865
475 1 18.8703 15.7249 6.28961 -8.95033
476 1 20.4415 17.2973 7.86194 -8.94939
477 1 -0.000406944 18.8695 6.28947 -8.94943
478 1 1.5719 20.4419 7.86197 -8.94948
479 1 3.14355 18.8705 6.28898 -8.94955
480 1 4.71646 20.4426 7.86191 -8.94967
481 1 6.28811 18.8729 6.28811 -8.95163
482 1 7.86212 20.4431 7.86212 -8.95172
483 1 9.43482 18.8726 6.2882 -8.9505
484 1 11.007 20.4424 7.86238 -8.94999
485 1 12.5801 18.8728 6.28901 -8.95364
486 1 14.1522 20.4422 7.86234 -8.94968
487 1 15.7251 18.8705 6.28971 -8.9498
488 1 17.2971 20.4419 7.86211 -8.94946
489 1 18.8694 18.8696 6.28962 -8.94939
490 1 20.4415 20.4417 7.86205 -8.94957
491 1 22.0126 12.5795 9.43424 -8.94939
492 1 3.14007 12.5799 9.43405 -8.95212
493 1 6.27239 12.6077 9.41518 -8.90065
494 1 9.38929 12.8318 9.38929 -7.70793
495 1 12.5715 12.5815 9.40752 -8.8306
496 1 15.7225 12.5775 9.43497 -8.94766
497 1 18.8694 12.5795 9.43476 -8.94786
498 1 22.0126 15.7252 9.43421 -8.94963
499 1 3.14009 15.7276 9.43366 -8.94712
500 1 6.28133 15.7356 9.43436 -8.94906
501 1 9.43223 15.7146 9.43223 -9.0132
512 1 1.56861 11.007 11.007 -8.9489
517 1 17.2966 11.007 11.0065 -8.944
519 1 1.56812 14.1532 11.0066 -8.9511
520 1 4.70243 14.1591 11.0083 -8.95286
527 1 4.71366 17.3012 11.0077 -8.94698
530 1 14.153 17.2986 11.0061 -8.94834
531 1 17.2978 17.2979 11.007 -8.94878
532 1 20.4414 17.2973 11.007 -8.94945
534 1 4.71639 20.4427 11.0072 -8.94955
518 1 20.4409 11.007 11.0066 -8.94863
523 1 14.158 14.1547 11.0026 -8.95102
385 1 9.43445 18.8696 -0.000451761 -8.9495
686 1 20.4415 20.4416 20.4415 -8.9492
513 1 4.70758 11.007 11.0146 -9.01619
514 1 7.54865 11.007 11.0996 -7.9532
515 1 11.2556 11.007 11.2556 -7.38392
516 1 14.141 11.007 11.0166 -9.00738
685 1 18.8694 18.8696 18.8694 -8.94899
391 1 18.8695 18.8695 22.0136 -8.94913
684 1 17.2968 20.4417 20.4415 -8.94968
683 1 15.7244 18.8696 18.8694 -8.94983
521 1 7.82012 14.1685 11.0342 -8.87355
522 1 11.0284 14.1489 11.0284 -8.90053
387 1 12.5795 18.8696 22.0134 -8.94942
524 1 17.2989 14.1528 11.0061 -8.95005
525 1 20.4412 14.1524 11.0067 -8.95011
526 1 1.57073 17.2981 11.007 -8.94916
682 1 14.1519 20.4417 20.4414 -8.94952
528 1 7.86112 17.3002 11.007 -8.95441
529 1 11.0062 17.2961 11.0062 -8.94947
681 1 12.5794 18.8696 18.8693 -8.94934
680 1 11.007 20.4417 20.4415 -8.94958
679 1 9.43454 18.8696 18.8694 -8.94954
533 1 1.57186 20.4419 11.007 -8.94952
678 1 7.86205 20.4417 20.4415 -8.94957
535 1 7.86238 20.4424 11.007 -8.94999
536 1 11.0068 20.4417 11.0068 -8.94891
677 1 6.28962 18.8696 18.8694 -8.94939
538 1 17.297 20.4419 11.007 -8.94951
539 1 20.4415 20.4417 11.007 -8.94958
540 1 1.56732 11.007 14.1547 -8.94924
541 1 4.70293 11.007 14.1656 -8.93959
542 1 7.84741 11.007 14.1636 -8.96627
543 1 11.0166 11.007 14.141 -9.00738
544 1 14.1641 11.007 14.1641 -8.9393
545 1 17.3013 11.007 14.1545 -8.94879
546 1 20.4414 11.007 14.1527 -8.95041
547 1 22.0113 12.5796 12.5797 -8.95212
548 1 1.56738 14.154 14.1542 -8.95179
549 1 3.13187 12.582 12.5841 -8.95961
550 1 4.69938 14.1683 14.1696 -8.92236
551 1 6.23681 12.6251 12.634 -8.8215
552 1 7.85931 14.1588 14.1636 -8.94796
553 1 9.40752 12.5815 12.5715 -8.8306
554 1 11.0026 14.1547 14.158 -8.95102
555 1 12.6395 12.6409 12.6395 -8.74112
556 1 14.1713 14.1712 14.1713 -8.91118
557 1 15.7361 12.5815 12.5826 -8.96515
558 1 17.3016 14.154 14.1539 -8.95284
559 1 18.871 12.5795 12.5794 -8.9529
560 1 20.4414 14.1524 14.1523 -8.95112
561 1 -0.00144731 15.7251 12.5795 -8.94975
562 1 1.57064 17.2982 14.1526 -8.94966
563 1 3.13945 15.7281 12.5811 -8.94931
564 1 4.71304 17.3034 14.1562 -8.94875
565 1 6.27816 15.741 12.5902 -8.95025
566 1 7.86264 17.2994 14.1534 -8.94985
567 1 9.43326 15.7241 12.5788 -8.94963
568 1 11.0061 17.2986 14.153 -8.94834
569 1 12.5858 15.7389 12.5858 -8.96066
570 1 14.1549 17.3026 14.1549 -8.95098
571 1 15.7272 15.7267 12.5794 -8.95082
572 1 17.2978 17.2978 14.1521 -8.95024
573 1 18.8698 15.7249 12.5793 -8.94963
574 1 20.4413 17.2972 14.152 -8.94966
575 1 22.0134 18.8696 12.5795 -8.94942
576 1 1.57193 20.4419 14.152 -8.94949
577 1 3.14355 18.8708 12.5798 -8.94903
578 1 4.7167 20.4428 14.1525 -8.95092
579 1 6.28901 18.8728 12.5801 -8.95364
580 1 7.86234 20.4422 14.1522 -8.94968
581 1 9.43478 18.8699 12.5796 -8.94875
582 1 11.0069 20.4421 14.1522 -8.94947
583 1 12.5795 18.8717 12.5795 -8.9541
584 1 14.1521 20.4426 14.1521 -8.95103
585 1 15.7248 18.8701 12.5793 -8.94942
586 1 17.2969 20.4418 14.1518 -8.94963
587 1 18.8693 18.8696 12.5794 -8.94934
588 1 20.4414 20.4417 14.1519 -8.94952
589 1 1.5709 11.007 17.2983 -8.9493
590 1 4.7144 11.007 17.3021 -8.94875
591 1 7.86222 11.007 17.3005 -8.95087
592 1 11.0065 11.007 17.2966 -8.944
593 1 14.1545 11.007 17.3013 -8.94879
594 1 17.2981 11.007 17.2981 -8.94942
595 1 20.4415 11.007 17.2974 -8.94947
596 1 -0.0013899 12.5798 15.7255 -8.94931
597 1 1.57095 14.1526 17.2983 -8.94908
598 1 3.14009 12.581 15.7291 -8.94691
599 1 4.71478 14.1542 17.3021 -8.95112
600 1 6.28452 12.5826 15.7382 -8.95896
601 1 7.863 14.1526 17.2998 -8.95201
602 1 9.43497 12.5775 15.7225 -8.94766
603 1 11.0061 14.1528 17.2989 -8.95005
604 1 12.5826 12.5815 15.7361 -8.96515
605 1 14.1539 14.154 17.3016 -8.95284
606 1 15.7285 12.5808 15.7285 -8.94658
607 1 17.298 14.1525 17.298 -8.94915
608 1 18.8704 12.5798 15.7254 -8.94918
609 1 20.4415 14.1521 17.2973 -8.94934
610 1 22.0125 15.7253 15.7253 -8.95008
611 1 1.57098 17.2982 17.2982 -8.94782
612 1 3.13942 15.7295 15.7297 -8.94268
613 1 4.71646 17.2983 17.2984 -8.94987
614 1 6.288 15.7281 15.7294 -8.95007
615 1 7.86215 17.2979 17.2979 -8.94865
616 1 9.43456 15.7271 15.7274 -8.94406
617 1 11.007 17.2979 17.2978 -8.94878
618 1 12.5794 15.7267 15.7272 -8.95082
619 1 14.1521 17.2978 17.2978 -8.95024
620 1 15.7299 15.7301 15.7299 -8.94054
621 1 17.2982 17.2983 17.2982 -8.94738
622 1 18.8705 15.7254 15.7253 -8.95017
623 1 20.4415 17.2973 17.2972 -8.94952
624 1 -0.000470122 18.8696 15.7245 -8.94966
625 1 1.57193 20.442 17.2971 -8.94936
626 1 3.14338 18.8712 15.7257 -8.94905
627 1 4.71717 20.4419 17.297 -8.94973
628 1 6.28971 18.8705 15.7251 -8.9498
629 1 7.86211 20.4419 17.2971 -8.94946
630 1 9.43463 18.8704 15.7252 -8.94934
631 1 11.007 20.4419 17.297 -8.94951
632 1 12.5793 18.8701 15.7248 -8.94942
633 1 14.1518 20.4418 17.2969 -8.94963
634 1 15.7254 18.871 15.7254 -8.94957
635 1 17.297 20.442 17.297 -8.94949
636 1 18.8694 18.8696 15.7244 -8.94983
637 1 20.4415 20.4417 17.2968 -8.94968
638 1 1.57197 11.007 20.4419 -8.94953
639 1 4.71656 11.007 20.4427 -8.94997
640 1 7.86209 11.007 20.4422 -8.94958
641 1 11.0066 11.007 20.4409 -8.94863
642 1 14.1527 11.007 20.4414 -8.95041
643 1 17.2974 11.007 20.4415 -8.94947
644 1 20.4416 11.007 20.4416 -8.94957
645 1 22.0135 12.5795 18.8696 -8.9495
646 1 1.572 14.152 20.4419 -8.94946
647 1 3.14372 12.5797 18.8709 -8.94926
648 1 4.71675 14.1521 20.4425 -8.95025
649 1 6.28923 12.5797 18.8723 -8.95211
650 1 7.8621 14.1521 20.4416 -8.95035
651 1 9.43476 12.5795 18.8694 -8.94786
652 1 11.0067 14.1524 20.4412 -8.95011
653 1 12.5794 12.5795 18.871 -8.9529
654 1 14.1523 14.1524 20.4414 -8.95112
655 1 15.7254 12.5798 18.8704 -8.94918
656 1 17.2973 14.1521 20.4415 -8.94934
657 1 18.8695 12.5795 18.8695 -8.94949
658 1 20.4416 14.1519 20.4416 -8.94956
659 1 -0.00032614 15.7245 18.8696 -8.94951
660 1 1.57207 17.297 20.4419 -8.9496
661 1 3.14383 15.7252 18.8708 -8.94973
662 1 4.71696 17.2971 20.4416 -8.94993
663 1 6.28961 15.7249 18.8703 -8.95033
664 1 7.86194 17.2973 20.4415 -8.94939
665 1 9.43452 15.7253 18.8701 -8.94934
666 1 11.007 17.2973 20.4414 -8.94945
667 1 12.5793 15.7249 18.8698 -8.94963
668 1 14.152 17.2972 20.4413 -8.94966
669 1 15.7253 15.7254 18.8705 -8.95017
670 1 17.2972 17.2973 20.4415 -8.94952
671 1 18.8695 15.7246 18.8695 -8.94954
672 1 20.4416 17.2968 20.4416 -8.94962
673 1 22.0136 18.8695 18.8695 -8.94913
674 1 1.57227 20.4417 20.4415 -8.94953
675 1 3.1445 18.8696 18.8695 -8.9497
676 1 4.71718 20.4417 20.4415 -8.94955
351 1 22.0138 12.5794 22.0138 -8.94957
355 1 6.28925 12.5793 22.0139 -8.94983
357 1 9.43424 12.5795 22.0126 -8.94939
359 1 12.5797 12.5796 22.0113 -8.95212
363 1 18.8696 12.5795 22.0135 -8.9495
365 1 22.0139 15.7243 22.0139 -8.94952
369 1 6.28915 15.7248 22.0129 -8.95054
375 1 15.7253 15.7253 22.0125 -8.95008
381 1 3.14445 18.8695 22.0135 -8.94945
371 1 9.43421 15.7252 22.0126 -8.94963
