ITEM: TIMESTEP
12
ITEM: NUMBER OF ATOMS
688
ITEM: BOX BOUNDS pp pp pp
0.0000000000000000e+00 2.2013900999999997e+01
0.0000000000000000e+00 2.2013900999999997e+01
0.0000000000000000e+00 2.2013900999999997e+01
ITEM: ATOMS id type x y z c_pot
175 1 18.8691 9.43452 9.43453 -8.9497
2 1 1.57242 1.57242 1.57242 -8.94963
3 1 3.14484 5.65888e-16 4.31178e-10 -8.94963
4 1 4.71726 1.57242 1.57242 -8.94963
174 1 15.7247 9.43434 9.43446 -8.94971
6 1 7.86211 1.57242 1.57242 -8.94963
7 1 9.43453 6.63738e-16 1.1888e-09 -8.94963
8 1 11.007 1.57242 1.57242 -8.94963
173 1 12.585 9.42888 9.43284 -8.88582
10 1 14.1518 1.57242 1.57242 -8.94963
11 1 15.7242 7.62128e-16 6.52854e-10 -8.94963
12 1 17.2966 1.57242 1.57242 -8.94963
172 1 9.38443 9.22382 9.38443 -7.52944
14 1 20.4415 1.57242 1.57242 -8.94963
15 1 1.07036e-10 3.14484 1.07036e-10 -8.94963
16 1 1.57242 4.71726 1.57242 -8.94963
171 1 6.28565 9.43169 9.43216 -8.94213
18 1 4.71726 4.71726 1.57242 -8.94963
19 1 6.28969 3.14484 2.39859e-08 -8.94963
20 1 7.86211 4.71726 1.57242 -8.94964
170 1 3.14459 9.43441 9.43441 -8.94971
22 1 11.007 4.71726 1.57242 -8.94963
169 1 22.0139 9.43453 9.43453 -8.94967
24 1 14.1518 4.71726 1.57242 -8.94965
25 1 15.7242 3.14484 6.53118e-09 -8.94963
26 1 17.2966 4.71726 1.57242 -8.94963
168 1 18.8691 6.28969 9.43453 -8.94963
28 1 20.4415 4.71726 1.57242 -8.94963
167 1 15.7242 6.2897 9.43453 -8.94967
30 1 1.57242 7.86211 1.57242 -8.94963
31 1 3.14484 6.28969 6.28899e-09 -8.94963
32 1 4.71726 7.86211 1.57242 -8.94964
166 1 12.5793 6.28951 9.43458 -8.95271
34 1 7.8621 7.8621 1.57241 -8.94968
35 1 9.43453 6.28969 2.92772e-07 -8.94964
36 1 11.0069 7.86211 1.57242 -8.94968
37 1 12.5794 6.28969 3.66031e-07 -8.94964
38 1 14.1518 7.8621 1.57241 -8.94962
165 1 9.43439 6.28525 9.43439 -8.98754
40 1 17.2966 7.86211 1.57242 -8.94965
41 1 18.8691 6.28969 1.08848e-08 -8.94963
42 1 20.4415 7.86211 1.57242 -8.94963
164 1 6.28959 6.2895 9.43459 -8.95237
44 1 3.14484 9.43453 4.00421e-08 -8.94963
163 1 3.14484 6.28969 9.43453 -8.94968
162 1 2.92772e-07 6.28969 9.43453 -8.94964
161 1 18.8691 3.14484 9.43453 -8.94963
48 1 15.7242 9.43453 5.08396e-07 -8.94963
160 1 15.7242 3.14484 9.43453 -8.94963
50 1 4.31178e-10 5.29611e-16 3.14484 -8.94963
51 1 1.57242 1.57242 4.71726 -8.94963
52 1 3.14484 1.21145e-15 3.14484 -8.94963
53 1 4.71726 1.57242 4.71726 -8.94963
54 1 6.28969 6.86253e-16 3.14484 -8.94963
55 1 7.86211 1.57242 4.71726 -8.94963
56 1 9.43453 6.30223e-16 3.14484 -8.94963
57 1 11.007 1.57242 4.71726 -8.94963
58 1 12.5794 6.5042e-16 3.14484 -8.94963
59 1 14.1518 1.57242 4.71726 -8.94963
60 1 15.7242 5.38421e-16 3.14484 -8.94963
61 1 17.2966 1.57242 4.71726 -8.94963
62 1 18.8691 5.57779e-16 3.14484 -8.94963
63 1 20.4415 1.57242 4.71726 -8.94963
64 1 22.0139 3.14484 3.14484 -8.94963
65 1 1.57242 4.71726 4.71726 -8.94963
66 1 3.14484 3.14484 3.14484 -8.94963
67 1 4.71725 4.71725 4.71725 -8.94941
68 1 6.28969 3.14484 3.14484 -8.94965
69 1 7.86211 4.71728 4.71728 -8.94994
70 1 9.43453 3.14484 3.14484 -8.94964
71 1 11.0069 4.71727 4.71727 -8.94973
72 1 12.5794 3.14484 3.14484 -8.94964
73 1 14.1518 4.71725 4.71725 -8.94954
74 1 15.7242 3.14484 3.14484 -8.94963
75 1 17.2966 4.71726 4.71726 -8.94964
76 1 18.8691 3.14484 3.14484 -8.94963
77 1 20.4415 4.71726 4.71726 -8.94963
78 1 6.28899e-09 6.28969 3.14484 -8.94963
79 1 1.57242 7.86211 4.71726 -8.94964
80 1 3.14484 6.28969 3.14484 -8.94965
81 1 4.71726 7.86209 4.71726 -8.94981
82 1 6.28968 6.28968 3.14483 -8.94965
83 1 7.86195 7.86197 4.71679 -8.9512
84 1 9.43453 6.28969 3.14484 -8.94968
85 1 11.0069 7.8621 4.71704 -8.95272
86 1 12.5794 6.28969 3.14485 -8.94988
87 1 14.1521 7.86181 4.71698 -8.94627
88 1 15.7242 6.28968 3.14484 -8.94951
89 1 17.2966 7.8621 4.71726 -8.94966
90 1 18.8691 6.28969 3.14484 -8.94963
91 1 20.4415 7.86211 4.71726 -8.94963
92 1 4.00421e-08 9.43453 3.14484 -8.94963
93 1 3.14484 9.43453 3.14484 -8.94966
94 1 6.28968 9.43453 3.14483 -8.94975
95 1 9.43441 9.43441 3.14459 -8.94971
96 1 12.5795 9.4344 3.14453 -8.9505
97 1 15.7242 9.43453 3.14485 -8.94984
98 1 18.8691 9.43453 3.14484 -8.94963
99 1 22.0139 4.40802e-16 6.28969 -8.94963
100 1 1.57242 1.57242 7.86211 -8.94963
101 1 3.14484 6.78091e-16 6.28969 -8.94963
102 1 4.71726 1.57242 7.86211 -8.94963
103 1 6.28969 7.24694e-16 6.28969 -8.94964
104 1 7.8621 1.57241 7.8621 -8.94972
105 1 9.43453 8.18143e-16 6.28969 -8.94963
106 1 11.007 1.57241 7.8621 -8.94968
107 1 12.5794 8.27137e-16 6.28969 -8.94964
108 1 14.1518 1.57242 7.86211 -8.94964
109 1 15.7242 8.20855e-16 6.28969 -8.94963
110 1 17.2966 1.57242 7.86211 -8.94963
111 1 18.8691 5.70533e-16 6.28969 -8.94963
112 1 20.4415 1.57242 7.86211 -8.94963
113 1 2.39859e-08 3.14484 6.28969 -8.94963
114 1 1.57242 4.71726 7.86211 -8.94964
115 1 3.14484 3.14484 6.28969 -8.94965
116 1 4.71728 4.71728 7.86211 -8.94994
117 1 6.28968 3.14482 6.28968 -8.94965
118 1 7.86195 4.71679 7.86195 -8.95155
119 1 9.43453 3.14484 6.28968 -8.94962
120 1 11.0071 4.71693 7.86196 -8.95027
121 1 12.5794 3.14483 6.28968 -8.94967
122 1 14.1518 4.71726 7.86211 -8.94985
123 1 15.7242 3.14484 6.28969 -8.94965
124 1 17.2966 4.71727 7.86211 -8.94965
125 1 18.8691 3.14484 6.28969 -8.94963
126 1 20.4415 4.71726 7.86211 -8.94963
127 1 22.0139 6.28969 6.28969 -8.94963
128 1 1.57241 7.8621 7.8621 -8.94968
129 1 3.14483 6.28968 6.28968 -8.94965
130 1 4.71679 7.86197 7.86195 -8.9512
131 1 6.28919 6.28919 6.28919 -8.94401
132 1 7.85051 7.85146 7.85051 -8.84884
133 1 9.43459 6.2895 6.28959 -8.95237
134 1 11.0142 7.85638 7.85481 -8.89416
135 1 12.5797 6.28919 6.28938 -8.94834
136 1 14.1523 7.86182 7.86189 -8.94937
137 1 15.7242 6.28968 6.28967 -8.94975
138 1 17.2967 7.8621 7.8621 -8.94967
139 1 18.8691 6.28969 6.28969 -8.94963
140 1 20.4415 7.86211 7.86211 -8.94964
141 1 22.0139 9.43453 6.28969 -8.94964
142 1 3.14483 9.43453 6.28968 -8.94975
143 1 6.28923 9.43431 6.28923 -8.94858
144 1 9.43216 9.43169 6.28565 -8.94213
145 1 12.5867 9.42713 6.28274 -8.87876
146 1 15.7245 9.43446 6.28962 -8.95093
147 1 18.8691 9.43453 6.28969 -8.94969
148 1 1.1888e-09 6.53366e-16 9.43453 -8.94963
149 1 3.14484 6.53714e-16 9.43453 -8.94963
150 1 6.28969 7.23369e-16 9.43453 -8.94963
151 1 9.43453 7.77873e-16 9.43453 -8.94976
152 1 12.5794 5.16209e-16 9.43453 -8.94964
153 1 15.7242 1.07297e-15 9.43453 -8.94963
154 1 18.8691 4.69583e-16 9.43453 -8.94963
155 1 22.0139 3.14484 9.43453 -8.94963
156 1 3.14484 3.14484 9.43453 -8.94964
157 1 6.28968 3.14484 9.43453 -8.94962
158 1 9.43453 3.14459 9.43453 -8.95077
159 1 12.5794 3.14484 9.43453 -8.94966
177 1 4.71726 1.57242 11.007 -8.94963
180 1 14.1518 1.57242 11.007 -8.94964
184 1 4.71727 4.71727 11.0069 -8.94973
187 1 14.1518 4.71726 11.0069 -8.94971
188 1 17.2966 4.71727 11.007 -8.94965
189 1 20.4415 4.71726 11.007 -8.94963
190 1 1.57242 7.86211 11.0069 -8.94968
191 1 4.71704 7.8621 11.0069 -8.95272
176 1 1.57242 1.57242 11.007 -8.94963
343 1 18.8691 9.43453 18.8691 -8.94963
178 1 7.8621 1.57241 11.007 -8.94968
179 1 11.007 1.57241 11.007 -8.94965
342 1 15.7242 9.43453 18.8691 -8.94963
181 1 17.2966 1.57242 11.007 -8.94963
182 1 20.4415 1.57242 11.007 -8.94963
183 1 1.57242 4.71726 11.007 -8.94963
341 1 12.5794 9.43453 18.8691 -8.94972
185 1 7.86196 4.71693 11.0071 -8.95027
186 1 11.0071 4.71705 11.0071 -8.94924
340 1 9.43453 9.43452 18.8691 -8.9497
339 1 6.28969 9.43453 18.8691 -8.94969
338 1 3.14484 9.43453 18.8691 -8.94963
337 1 22.0139 9.43453 18.8691 -8.94963
336 1 20.4415 7.86211 20.4415 -8.94963
192 1 7.85481 7.85638 11.0142 -8.89416
193 1 11.0107 7.86025 11.0107 -8.92417
194 1 14.1521 7.86188 11.007 -8.94992
195 1 17.2967 7.8621 11.007 -8.94964
196 1 20.4415 7.86211 11.007 -8.94964
197 1 22.0139 1.11833e-15 12.5794 -8.94963
198 1 1.57242 1.57242 14.1518 -8.94963
199 1 3.14484 6.57461e-16 12.5794 -8.94963
200 1 4.71726 1.57242 14.1518 -8.94963
201 1 6.28969 8.12301e-16 12.5794 -8.94964
202 1 7.86211 1.57242 14.1518 -8.94964
203 1 9.43453 5.33536e-16 12.5794 -8.94964
204 1 11.007 1.57242 14.1518 -8.94964
205 1 12.5794 9.1122e-16 12.5794 -8.94964
206 1 14.1518 1.57242 14.1518 -8.94963
207 1 15.7242 6.11722e-16 12.5794 -8.94963
208 1 17.2966 1.57242 14.1518 -8.94963
209 1 18.8691 9.05699e-16 12.5794 -8.94963
210 1 20.4415 1.57242 14.1518 -8.94963
211 1 22.0139 3.14484 12.5794 -8.94963
212 1 1.57242 4.71726 14.1518 -8.94965
213 1 3.14484 3.14484 12.5794 -8.94964
214 1 4.71725 4.71725 14.1518 -8.94954
215 1 6.28968 3.14483 12.5794 -8.94967
216 1 7.86211 4.71726 14.1518 -8.94985
217 1 9.43453 3.14484 12.5794 -8.94966
218 1 11.0069 4.71726 14.1518 -8.94971
219 1 12.5794 3.14483 12.5794 -8.94969
220 1 14.1518 4.71725 14.1518 -8.94965
221 1 15.7242 3.14484 12.5794 -8.94964
222 1 17.2966 4.71727 14.1518 -8.94965
223 1 18.8691 3.14484 12.5794 -8.94963
224 1 20.4415 4.71726 14.1518 -8.94963
225 1 3.66031e-07 6.28969 12.5794 -8.94964
226 1 1.57241 7.8621 14.1518 -8.94962
227 1 3.14485 6.28969 12.5794 -8.94988
228 1 4.71698 7.86181 14.1521 -8.94627
229 1 6.28938 6.28919 12.5797 -8.94834
230 1 7.86189 7.86182 14.1523 -8.94937
231 1 9.43458 6.28951 12.5793 -8.95271
232 1 11.007 7.86188 14.1521 -8.94992
233 1 12.5795 6.28921 12.5795 -8.95134
234 1 14.1523 7.8616 14.1523 -8.94389
235 1 15.7242 6.28969 12.5794 -8.94988
236 1 17.2967 7.8621 14.1518 -8.94966
237 1 18.8691 6.28969 12.5794 -8.94963
238 1 20.4415 7.86211 14.1518 -8.94964
239 1 22.0139 9.43453 12.5794 -8.94969
240 1 3.14453 9.4344 12.5795 -8.9505
241 1 6.28274 9.42713 12.5867 -8.87876
242 1 9.43284 9.42888 12.585 -8.88582
243 1 12.5906 9.42258 12.5906 -8.84058
244 1 15.7247 9.43438 12.5795 -8.95156
245 1 18.8691 9.43453 12.5794 -8.94972
246 1 6.52854e-10 7.39168e-16 15.7242 -8.94963
247 1 1.57242 1.57242 17.2966 -8.94963
248 1 3.14484 5.40056e-16 15.7242 -8.94963
249 1 4.71726 1.57242 17.2966 -8.94963
250 1 6.28969 8.62947e-16 15.7242 -8.94963
251 1 7.86211 1.57242 17.2966 -8.94963
252 1 9.43453 1.08429e-15 15.7242 -8.94963
253 1 11.007 1.57242 17.2966 -8.94963
254 1 12.5794 6.0396e-16 15.7242 -8.94963
255 1 14.1518 1.57242 17.2966 -8.94963
256 1 15.7242 7.86918e-16 15.7242 -8.94963
257 1 17.2966 1.57242 17.2966 -8.94963
258 1 18.8691 8.65323e-16 15.7242 -8.94963
259 1 20.4415 1.57242 17.2966 -8.94963
260 1 6.53118e-09 3.14484 15.7242 -8.94963
261 1 1.57242 4.71726 17.2966 -8.94963
262 1 3.14484 3.14484 15.7242 -8.94963
263 1 4.71726 4.71726 17.2966 -8.94964
264 1 6.28969 3.14484 15.7242 -8.94965
265 1 7.86211 4.71727 17.2966 -8.94965
266 1 9.43453 3.14484 15.7242 -8.94963
267 1 11.007 4.71727 17.2966 -8.94965
268 1 12.5794 3.14484 15.7242 -8.94964
269 1 14.1518 4.71727 17.2966 -8.94965
270 1 15.7242 3.14484 15.7242 -8.94963
271 1 17.2966 4.71726 17.2966 -8.94963
272 1 18.8691 3.14484 15.7242 -8.94963
273 1 20.4415 4.71726 17.2966 -8.94963
274 1 22.0139 6.28969 15.7242 -8.94963
275 1 1.57242 7.86211 17.2966 -8.94965
276 1 3.14484 6.28968 15.7242 -8.94951
277 1 4.71726 7.8621 17.2966 -8.94966
278 1 6.28967 6.28968 15.7242 -8.94975
279 1 7.8621 7.8621 17.2967 -8.94967
280 1 9.43453 6.2897 15.7242 -8.94967
281 1 11.007 7.8621 17.2967 -8.94964
282 1 12.5794 6.28969 15.7242 -8.94988
283 1 14.1518 7.8621 17.2967 -8.94966
284 1 15.7242 6.28967 15.7242 -8.94941
285 1 17.2966 7.86211 17.2966 -8.94965
286 1 18.8691 6.28969 15.7242 -8.94963
287 1 20.4415 7.86211 17.2966 -8.94963
288 1 5.08396e-07 9.43453 15.7242 -8.94963
289 1 3.14485 9.43453 15.7242 -8.94984
290 1 6.28962 9.43446 15.7245 -8.95093
291 1 9.43446 9.43434 15.7247 -8.94971
292 1 12.5795 9.43438 15.7247 -8.95156
293 1 15.7242 9.43453 15.7242 -8.9499
294 1 18.8691 9.43453 15.7242 -8.94963
295 1 22.0139 4.20724e-16 18.8691 -8.94963
296 1 1.57242 1.57242 20.4415 -8.94963
297 1 3.14484 5.80708e-16 18.8691 -8.94963
298 1 4.71726 1.57242 20.4415 -8.94963
299 1 6.28969 6.00076e-16 18.8691 -8.94963
300 1 7.86211 1.57242 20.4415 -8.94963
301 1 9.43453 4.84987e-16 18.8691 -8.94963
302 1 11.007 1.57242 20.4415 -8.94963
303 1 12.5794 8.96899e-16 18.8691 -8.94963
304 1 14.1518 1.57242 20.4415 -8.94963
305 1 15.7242 8.84909e-16 18.8691 -8.94963
306 1 17.2966 1.57242 20.4415 -8.94963
307 1 18.8691 1.02145e-15 18.8691 -8.94963
308 1 20.4415 1.57242 20.4415 -8.94963
309 1 22.0139 3.14484 18.8691 -8.94963
310 1 1.57242 4.71726 20.4415 -8.94963
311 1 3.14484 3.14484 18.8691 -8.94963
312 1 4.71726 4.71726 20.4415 -8.94963
313 1 6.28969 3.14484 18.8691 -8.94963
314 1 7.86211 4.71726 20.4415 -8.94963
315 1 9.43453 3.14484 18.8691 -8.94963
316 1 11.007 4.71726 20.4415 -8.94963
317 1 12.5794 3.14484 18.8691 -8.94963
318 1 14.1518 4.71726 20.4415 -8.94963
319 1 15.7242 3.14484 18.8691 -8.94963
320 1 17.2966 4.71726 20.4415 -8.94963
321 1 18.8691 3.14484 18.8691 -8.94963
322 1 20.4415 4.71726 20.4415 -8.94963
323 1 1.08848e-08 6.28969 18.8691 -8.94963
324 1 1.57242 7.86211 20.4415 -8.94963
325 1 3.14484 6.28969 18.8691 -8.94963
326 1 4.71726 7.86211 20.4415 -8.94963
327 1 6.28969 6.28969 18.8691 -8.94963
328 1 7.86211 7.86211 20.4415 -8.94964
329 1 9.43453 6.28969 18.8691 -8.94963
330 1 11.007 7.86211 20.4415 -8.94964
331 1 12.5794 6.28969 18.8691 -8.94963
332 1 14.1518 7.86211 20.4415 -8.94964
333 1 15.7242 6.28969 18.8691 -8.94963
334 1 17.2966 7.86211 20.4415 -8.94963
335 1 18.8691 6.28969 18.8691 -8.94963
1 1 22.0139 6.74384e-16 22.0139 -8.94963
5 1 6.28969 4.63106e-16 22.0139 -8.94963
9 1 12.5794 1.0839e-15 22.0139 -8.94963
13 1 18.8691 4.2339e-16 22.0139 -8.94963
17 1 3.14484 3.14484 22.0139 -8.94963
21 1 9.43453 3.14484 22.0139 -8.94963
23 1 12.5794 3.14484 22.0139 -8.94963
27 1 18.8691 3.14484 22.0139 -8.94963
29 1 22.0139 6.28969 22.0139 -8.94963
33 1 6.28969 6.28969 22.0139 -8.94963
39 1 15.7242 6.28969 22.0139 -8.94963
43 1 22.0139 9.43453 22.0139 -8.94963
45 1 6.28969 9.43453 22.0139 -8.94964
46 1 9.43453 9.43453 22.0139 -8.94967
47 1 12.5794 9.43453 22.0139 -8.94969
49 1 18.8691 9.43453 22.0139 -8.94963
344 1 1.57242 11.007 1.57242 -8.94963
345 1 4.71726 11.007 1.57242 -8.94962
346 1 7.86211 11.007 1.57241 -8.94972
347 1 11.0069 11.007 1.5722 -8.95101
348 1 14.1518 11.007 1.57242 -8.94962
349 1 17.2966 11.007 1.57242 -8.94964
350 1 20.4415 11.007 1.57242 -8.94963
688 3 10.3016 11.007 9.38304 3.1436
352 1 1.57242 14.1518 1.57242 -8.94963
353 1 3.14484 12.5794 4.00421e-08 -8.94963
354 1 4.71726 14.1518 1.57242 -8.94964
687 3 9.38304 11.007 10.3016 3.1436
356 1 7.8621 14.1518 1.57241 -8.94968
511 1 18.8691 18.8691 9.43453 -8.94963
358 1 11.0069 14.1518 1.57242 -8.94968
510 1 15.7242 18.8691 9.43453 -8.94963
360 1 14.1518 14.1518 1.57241 -8.94962
361 1 15.7242 12.5794 5.08396e-07 -8.94963
362 1 17.2966 14.1518 1.57242 -8.94965
509 1 12.5794 18.8691 9.43453 -8.94966
364 1 20.4415 14.1518 1.57242 -8.94963
508 1 9.43453 18.8693 9.43453 -8.95077
366 1 1.57242 17.2966 1.57242 -8.94963
367 1 3.14484 15.7242 6.28899e-09 -8.94963
368 1 4.71726 17.2966 1.57242 -8.94963
507 1 6.28968 18.8691 9.43453 -8.94962
370 1 7.86211 17.2966 1.57242 -8.94964
371 1 9.43453 15.7242 2.92772e-07 -8.94964
372 1 11.007 17.2966 1.57242 -8.94963
373 1 12.5794 15.7242 3.66031e-07 -8.94964
374 1 14.1518 17.2966 1.57242 -8.94965
506 1 3.14484 18.8691 9.43453 -8.94964
376 1 17.2966 17.2966 1.57242 -8.94963
377 1 18.8691 15.7242 1.08848e-08 -8.94963
378 1 20.4415 17.2966 1.57242 -8.94963
379 1 1.07036e-10 18.8691 1.07036e-10 -8.94963
380 1 1.57242 20.4415 1.57242 -8.94963
505 1 22.0139 18.8691 9.43453 -8.94963
382 1 4.71726 20.4415 1.57242 -8.94963
383 1 6.28969 18.8691 2.39859e-08 -8.94963
384 1 7.86211 20.4415 1.57242 -8.94963
504 1 18.8691 15.7242 9.43453 -8.94963
386 1 11.007 20.4415 1.57242 -8.94963
503 1 15.7242 15.7242 9.43453 -8.94967
388 1 14.1518 20.4415 1.57242 -8.94963
389 1 15.7242 18.8691 6.53118e-09 -8.94963
390 1 17.2966 20.4415 1.57242 -8.94963
502 1 12.5793 15.7244 9.43458 -8.95271
392 1 20.4415 20.4415 1.57242 -8.94963
393 1 1.57242 11.007 4.71726 -8.94962
394 1 4.71729 11.007 4.71729 -8.94959
395 1 7.8621 11.007 4.71693 -8.95154
396 1 11.0072 11.007 4.71187 -8.9785
397 1 14.1518 11.007 4.71722 -8.95203
398 1 17.2966 11.007 4.71726 -8.94962
399 1 20.4415 11.007 4.71726 -8.94963
400 1 4.00421e-08 12.5794 3.14484 -8.94963
401 1 1.57242 14.1518 4.71726 -8.94964
402 1 3.14484 12.5794 3.14484 -8.94966
403 1 4.71726 14.1518 4.71726 -8.94981
404 1 6.28968 12.5794 3.14483 -8.94975
405 1 7.86195 14.1519 4.71679 -8.9512
406 1 9.43441 12.5795 3.14459 -8.94971
407 1 11.0069 14.1518 4.71704 -8.95272
408 1 12.5795 12.5795 3.14453 -8.9505
409 1 14.1521 14.1521 4.71698 -8.94627
410 1 15.7242 12.5794 3.14485 -8.94984
411 1 17.2966 14.1518 4.71726 -8.94966
412 1 18.8691 12.5794 3.14484 -8.94963
413 1 20.4415 14.1518 4.71726 -8.94963
414 1 6.28899e-09 15.7242 3.14484 -8.94963
415 1 1.57242 17.2966 4.71726 -8.94963
416 1 3.14484 15.7242 3.14484 -8.94965
417 1 4.71725 17.2967 4.71725 -8.94941
418 1 6.28968 15.7242 3.14483 -8.94965
419 1 7.86211 17.2966 4.71728 -8.94994
420 1 9.43453 15.7242 3.14484 -8.94968
421 1 11.0069 17.2966 4.71727 -8.94973
422 1 12.5794 15.7242 3.14485 -8.94988
423 1 14.1518 17.2967 4.71725 -8.94954
424 1 15.7242 15.7242 3.14484 -8.94951
425 1 17.2966 17.2966 4.71726 -8.94964
426 1 18.8691 15.7242 3.14484 -8.94963
427 1 20.4415 17.2966 4.71726 -8.94963
428 1 22.0139 18.8691 3.14484 -8.94963
429 1 1.57242 20.4415 4.71726 -8.94963
430 1 3.14484 18.8691 3.14484 -8.94963
431 1 4.71726 20.4415 4.71726 -8.94963
432 1 6.28969 18.8691 3.14484 -8.94965
433 1 7.86211 20.4415 4.71726 -8.94963
434 1 9.43453 18.8691 3.14484 -8.94964
435 1 11.007 20.4415 4.71726 -8.94963
436 1 12.5794 18.8691 3.14484 -8.94964
437 1 14.1518 20.4415 4.71726 -8.94963
438 1 15.7242 18.8691 3.14484 -8.94963
439 1 17.2966 20.4415 4.71726 -8.94963
440 1 18.8691 18.8691 3.14484 -8.94963
441 1 20.4415 20.4415 4.71726 -8.94963
442 1 1.57241 11.007 7.86211 -8.94972
443 1 4.71693 11.007 7.8621 -8.95154
444 1 7.85638 11.007 7.85638 -8.8641
445 1 11.0841 11.007 7.69092 -7.81528
446 1 14.1557 11.007 7.86174 -8.96502
447 1 17.2968 11.007 7.86211 -8.95056
448 1 20.4415 11.007 7.86211 -8.94966
449 1 22.0139 12.5794 6.28969 -8.94964
450 1 1.57241 14.1518 7.8621 -8.94968
451 1 3.14483 12.5794 6.28968 -8.94975
452 1 4.71679 14.1519 7.86195 -8.9512
453 1 6.28923 12.5796 6.28923 -8.94858
454 1 7.85051 14.1624 7.85051 -8.84884
455 1 9.43216 12.5822 6.28565 -8.94213
456 1 11.0142 14.1575 7.85481 -8.89416
457 1 12.5867 12.5868 6.28274 -8.87876
458 1 14.1523 14.1521 7.86189 -8.94937
459 1 15.7245 12.5794 6.28962 -8.95093
460 1 17.2967 14.1518 7.8621 -8.94967
461 1 18.8691 12.5794 6.28969 -8.94969
462 1 20.4415 14.1518 7.86211 -8.94964
463 1 22.0139 15.7242 6.28969 -8.94963
464 1 1.57242 17.2966 7.86211 -8.94964
465 1 3.14483 15.7242 6.28968 -8.94965
466 1 4.71728 17.2966 7.86211 -8.94994
467 1 6.28919 15.7247 6.28919 -8.94401
468 1 7.86195 17.2971 7.86195 -8.95155
469 1 9.43459 15.7244 6.28959 -8.95237
470 1 11.0071 17.297 7.86196 -8.95027
471 1 12.5797 15.7247 6.28938 -8.94834
472 1 14.1518 17.2966 7.86211 -8.94985
473 1 15.7242 15.7242 6.28967 -8.94975
474 1 17.2966 17.2966 7.86211 -8.94965
475 1 18.8691 15.7242 6.28969 -8.94963
476 1 20.4415 17.2966 7.86211 -8.94963
477 1 2.39859e-08 18.8691 6.28969 -8.94963
478 1 1.57242 20.4415 7.86211 -8.94963
479 1 3.14484 18.8691 6.28969 -8.94965
480 1 4.71726 20.4415 7.86211 -8.94963
481 1 6.28968 18.8691 6.28968 -8.94965
482 1 7.8621 20.4415 7.8621 -8.94972
483 1 9.43453 18.8691 6.28968 -8.94962
484 1 11.007 20.4415 7.8621 -8.94968
485 1 12.5794 18.8691 6.28968 -8.94967
486 1 14.1518 20.4415 7.86211 -8.94964
487 1 15.7242 18.8691 6.28969 -8.94965
488 1 17.2966 20.4415 7.86211 -8.94963
489 1 18.8691 18.8691 6.28969 -8.94963
490 1 20.4415 20.4415 7.86211 -8.94963
491 1 22.0139 12.5794 9.43453 -8.94967
492 1 3.14459 12.5795 9.43441 -8.94971
493 1 6.28565 12.5822 9.43216 -8.94213
494 1 9.38443 12.7901 9.38443 -7.52944
495 1 12.585 12.585 9.43284 -8.88582
496 1 15.7247 12.5796 9.43446 -8.94971
497 1 18.8691 12.5794 9.43453 -8.9497
498 1 2.92772e-07 15.7242 9.43453 -8.94964
499 1 3.14484 15.7242 9.43453 -8.94968
500 1 6.28959 15.7244 9.43459 -8.95237
501 1 9.43439 15.7287 9.43439 -8.98754
512 1 1.5722 11.007 11.0069 -8.95101
517 1 17.2969 11.007 11.0069 -8.95098
519 1 1.57242 14.1518 11.0069 -8.94968
520 1 4.71704 14.1518 11.0069 -8.95272
527 1 4.71727 17.2966 11.0069 -8.94973
530 1 14.1518 17.2966 11.0069 -8.94971
531 1 17.2966 17.2966 11.007 -8.94965
532 1 20.4415 17.2966 11.007 -8.94963
534 1 4.71726 20.4415 11.007 -8.94963
537 1 14.1518 20.4415 11.007 -8.94964
686 1 20.4415 20.4415 20.4415 -8.94963
513 1 4.71187 11.007 11.0072 -8.9785
514 1 7.69092 11.007 11.0841 -7.81528
515 1 11.1707 11.007 11.1707 -7.4087
516 1 14.1572 11.007 11.0075 -8.97716
685 1 18.8691 18.8691 18.8691 -8.94963
518 1 20.4415 11.007 11.007 -8.94975
684 1 17.2966 20.4415 20.4415 -8.94963
683 1 15.7242 18.8691 18.8691 -8.94963
521 1 7.85481 14.1575 11.0142 -8.89416
522 1 11.0107 14.1536 11.0107 -8.92417
523 1 14.1521 14.152 11.007 -8.94992
524 1 17.2967 14.1518 11.007 -8.94964
525 1 20.4415 14.1518 11.007 -8.94964
526 1 1.57242 17.2966 11.007 -8.94963
682 1 14.1518 20.4415 20.4415 -8.94963
528 1 7.86196 17.297 11.0071 -8.95027
529 1 11.0071 17.2969 11.0071 -8.94924
681 1 12.5794 18.8691 18.8691 -8.94963
680 1 11.007 20.4415 20.4415 -8.94963
679 1 9.43453 18.8691 18.8691 -8.94963
533 1 1.57242 20.4415 11.007 -8.94963
678 1 7.86211 20.4415 20.4415 -8.94963
535 1 7.8621 20.4415 11.007 -8.94968
536 1 11.007 20.4415 11.007 -8.94965
677 1 6.28969 18.8691 18.8691 -8.94963
538 1 17.2966 20.4415 11.007 -8.94963
539 1 20.4415 20.4415 11.007 -8.94963
540 1 1.57242 11.007 14.1518 -8.94962
541 1 4.71722 11.007 14.1518 -8.95203
542 1 7.86174 11.007 14.1557 -8.96502
543 1 11.0075 11.007 14.1572 -8.97716
544 1 14.152 11.007 14.152 -8.95218
545 1 17.2966 11.007 14.1518 -8.94963
546 1 20.4415 11.007 14.1518 -8.94963
547 1 22.0139 12.5794 12.5794 -8.94969
548 1 1.57241 14.1518 14.1518 -8.94962
549 1 3.14453 12.5795 12.5795 -8.9505
550 1 4.71698 14.1521 14.1521 -8.94627
551 1 6.28274 12.5868 12.5867 -8.87876
552 1 7.86189 14.1521 14.1523 -8.94937
553 1 9.43284 12.585 12.585 -8.88582
554 1 11.007 14.152 14.1521 -8.94992
555 1 12.5906 12.5913 12.5906 -8.84058
556 1 14.1523 14.1523 14.1523 -8.94389
557 1 15.7247 12.5795 12.5795 -8.95156
558 1 17.2967 14.1518 14.1518 -8.94966
559 1 18.8691 12.5794 12.5794 -8.94972
560 1 20.4415 14.1518 14.1518 -8.94964
561 1 3.66031e-07 15.7242 12.5794 -8.94964
562 1 1.57242 17.2966 14.1518 -8.94965
563 1 3.14485 15.7242 12.5794 -8.94988
564 1 4.71725 17.2967 14.1518 -8.94954
565 1 6.28938 15.7247 12.5797 -8.94834
566 1 7.86211 17.2966 14.1518 -8.94985
567 1 9.43458 15.7244 12.5793 -8.95271
568 1 11.0069 17.2966 14.1518 -8.94971
569 1 12.5795 15.7247 12.5795 -8.95134
570 1 14.1518 17.2967 14.1518 -8.94965
571 1 15.7242 15.7242 12.5794 -8.94988
572 1 17.2966 17.2966 14.1518 -8.94965
573 1 18.8691 15.7242 12.5794 -8.94963
574 1 20.4415 17.2966 14.1518 -8.94963
575 1 22.0139 18.8691 12.5794 -8.94963
576 1 1.57242 20.4415 14.1518 -8.94963
577 1 3.14484 18.8691 12.5794 -8.94964
578 1 4.71726 20.4415 14.1518 -8.94963
579 1 6.28968 18.8691 12.5794 -8.94967
580 1 7.86211 20.4415 14.1518 -8.94964
581 1 9.43453 18.8691 12.5794 -8.94966
582 1 11.007 20.4415 14.1518 -8.94964
583 1 12.5794 18.8691 12.5794 -8.94969
584 1 14.1518 20.4415 14.1518 -8.94963
585 1 15.7242 18.8691 12.5794 -8.94964
586 1 17.2966 20.4415 14.1518 -8.94963
587 1 18.8691 18.8691 12.5794 -8.94963
588 1 20.4415 20.4415 14.1518 -8.94963
589 1 1.57242 11.007 17.2966 -8.94964
590 1 4.71726 11.007 17.2966 -8.94962
591 1 7.86211 11.007 17.2968 -8.95056
592 1 11.0069 11.007 17.2969 -8.95098
593 1 14.1518 11.007 17.2966 -8.94963
594 1 17.2966 11.007 17.2966 -8.94965
595 1 20.4415 11.007 17.2966 -8.94963
596 1 5.08396e-07 12.5794 15.7242 -8.94963
597 1 1.57242 14.1518 17.2966 -8.94965
598 1 3.14485 12.5794 15.7242 -8.94984
599 1 4.71726 14.1518 17.2966 -8.94966
600 1 6.28962 12.5794 15.7245 -8.95093
601 1 7.8621 14.1518 17.2967 -8.94967
602 1 9.43446 12.5796 15.7247 -8.94971
603 1 11.007 14.1518 17.2967 -8.94964
604 1 12.5795 12.5795 15.7247 -8.95156
605 1 14.1518 14.1518 17.2967 -8.94966
606 1 15.7242 12.5794 15.7242 -8.9499
607 1 17.2966 14.1518 17.2966 -8.94965
608 1 18.8691 12.5794 15.7242 -8.94963
609 1 20.4415 14.1518 17.2966 -8.94963
610 1 22.0139 15.7242 15.7242 -8.94963
611 1 1.57242 17.2966 17.2966 -8.94963
612 1 3.14484 15.7242 15.7242 -8.94951
613 1 4.71726 17.2966 17.2966 -8.94964
614 1 6.28967 15.7242 15.7242 -8.94975
615 1 7.86211 17.2966 17.2966 -8.94965
616 1 9.43453 15.7242 15.7242 -8.94967
617 1 11.007 17.2966 17.2966 -8.94965
618 1 12.5794 15.7242 15.7242 -8.94988
619 1 14.1518 17.2966 17.2966 -8.94965
620 1 15.7242 15.7242 15.7242 -8.94941
621 1 17.2966 17.2966 17.2966 -8.94963
622 1 18.8691 15.7242 15.7242 -8.94963
623 1 20.4415 17.2966 17.2966 -8.94963
624 1 6.53118e-09 18.8691 15.7242 -8.94963
625 1 1.57242 20.4415 17.2966 -8.94963
626 1 3.14484 18.8691 15.7242 -8.94963
627 1 4.71726 20.4415 17.2966 -8.94963
628 1 6.28969 18.8691 15.7242 -8.94965
629 1 7.86211 20.4415 17.2966 -8.94963
630 1 9.43453 18.8691 15.7242 -8.94963
631 1 11.007 20.4415 17.2966 -8.94963
632 1 12.5794 18.8691 15.7242 -8.94964
633 1 14.1518 20.4415 17.2966 -8.94963
634 1 15.7242 18.8691 15.7242 -8.94963
635 1 17.2966 20.4415 17.2966 -8.94963
636 1 18.8691 18.8691 15.7242 -8.94963
637 1 20.4415 20.4415 17.2966 -8.94963
638 1 1.57242 11.007 20.4415 -8.94963
639 1 4.71726 11.007 20.4415 -8.94963
640 1 7.86211 11.007 20.4415 -8.94966
641 1 11.007 11.007 20.4415 -8.94975
642 1 14.1518 11.007 20.4415 -8.94963
643 1 17.2966 11.007 20.4415 -8.94963
644 1 20.4415 11.007 20.4415 -8.94963
645 1 22.0139 12.5794 18.8691 -8.94963
646 1 1.57242 14.1518 20.4415 -8.94963
647 1 3.14484 12.5794 18.8691 -8.94963
648 1 4.71726 14.1518 20.4415 -8.94963
649 1 6.28969 12.5794 18.8691 -8.94969
650 1 7.86211 14.1518 20.4415 -8.94964
651 1 9.43453 12.5794 18.8691 -8.9497
652 1 11.007 14.1518 20.4415 -8.94964
653 1 12.5794 12.5794 18.8691 -8.94972
654 1 14.1518 14.1518 20.4415 -8.94964
655 1 15.7242 12.5794 18.8691 -8.94963
656 1 17.2966 14.1518 20.4415 -8.94963
657 1 18.8691 12.5794 18.8691 -8.94963
658 1 20.4415 14.1518 20.4415 -8.94963
659 1 1.08848e-08 15.7242 18.8691 -8.94963
660 1 1.57242 17.2966 20.4415 -8.94963
661 1 3.14484 15.7242 18.8691 -8.94963
662 1 4.71726 17.2966 20.4415 -8.94963
663 1 6.28969 15.7242 18.8691 -8.94963
664 1 7.86211 17.2966 20.4415 -8.94963
665 1 9.43453 15.7242 18.8691 -8.94963
666 1 11.007 17.2966 20.4415 -8.94963
667 1 12.5794 15.7242 18.8691 -8.94963
668 1 14.1518 17.2966 20.4415 -8.94963
669 1 15.7242 15.7242 18.8691 -8.94963
670 1 17.2966 17.2966 20.4415 -8.94963
671 1 18.8691 15.7242 18.8691 -8.94963
672 1 20.4415 17.2966 20.4415 -8.94963
673 1 22.0139 18.8691 18.8691 -8.94963
674 1 1.57242 20.4415 20.4415 -8.94963
675 1 3.14484 18.8691 18.8691 -8.94963
676 1 4.71726 20.4415 20.4415 -8.94963
351 1 22.0139 12.5794 22.0139 -8.94963
355 1 6.28969 12.5794 22.0139 -8.94964
357 1 9.43453 12.5794 22.0139 -8.94967
359 1 12.5794 12.5794 22.0139 -8.94969
363 1 18.8691 12.5794 22.0139 -8.94963
365 1 22.0139 15.7242 22.0139 -8.94963
369 1 6.28969 15.7242 22.0139 -8.94963
375 1 15.7242 15.7242 22.0139 -8.94963
381 1 3.14484 18.8691 22.0139 -8.94963
385 1 9.43453 18.8691 22.0139 -8.94963
387 1 12.5794 18.8691 22.0139 -8.94963
391 1 18.8691 18.8691 22.0139 -8.94963
