ITEM: TIMESTEP
77
ITEM: NUMBER OF ATOMS
688
ITEM: BOX BOUNDS pp pp pp
0.0000000000000000e+00 2.2013900999999997e+01
0.0000000000000000e+00 2.2013900999999997e+01
0.0000000000000000e+00 2.2013900999999997e+01
ITEM: ATOMS id type x y z c_pot
175 1 18.8692 9.43443 9.43474 -8.94772
2 1 1.57192 1.57207 1.57192 -8.94918
3 1 3.14461 1.0329e-15 -0.000250783 -8.94959
4 1 4.71681 1.57193 1.57177 -8.94958
174 1 15.722 9.43656 9.43463 -8.94773
6 1 7.86189 1.57186 1.57171 -8.94944
191 1 4.70133 7.85422 11.0087 -8.95274
8 1 11.007 1.57181 1.57166 -8.94948
173 1 12.5712 9.4327 9.40631 -8.82693
10 1 14.1521 1.57178 1.57173 -8.94945
11 1 15.7244 1.7626e-15 -0.000311371 -8.94954
12 1 17.2973 1.57175 1.57175 -8.94934
172 1 9.38989 9.18592 9.38989 -7.71663
14 1 20.4415 1.57211 1.57219 -8.94948
15 1 -0.000102836 3.14449 -0.000102836 -8.94953
16 1 1.5719 4.71682 1.5719 -8.94997
171 1 6.27127 9.40539 9.41471 -8.89961
18 1 4.71579 4.71582 1.57041 -8.94914
19 1 6.28935 3.14417 -0.000543874 -8.94939
20 1 7.86142 4.7157 1.57049 -8.94892
170 1 3.13958 9.43372 9.43411 -8.95222
22 1 11.007 4.71547 1.57033 -8.94912
169 1 22.0124 9.4344 9.43423 -8.94935
24 1 14.1529 4.71523 1.5702 -8.94961
25 1 15.7247 3.14404 -0.00065198 -8.94963
26 1 17.2986 4.71534 1.57065 -8.94773
168 1 18.8702 6.28841 9.43449 -8.94934
28 1 20.442 4.71673 1.57194 -8.94959
167 1 15.7275 6.28666 9.43433 -8.94385
30 1 1.57205 7.86199 1.57205 -8.94937
31 1 3.14433 6.2894 7.80105e-05 -8.94999
32 1 4.71658 7.86223 1.57167 -8.95006
166 1 12.5787 6.29028 9.43289 -8.94964
34 1 7.86118 7.86121 1.56891 -8.95286
190 1 1.56754 7.86038 11.0067 -8.95117
36 1 11.0067 7.86038 1.56754 -8.95117
37 1 12.5796 6.28849 -0.00180878 -8.94977
38 1 14.1547 7.85949 1.56667 -8.9518
165 1 9.43218 6.30048 9.43218 -9.01264
40 1 17.2988 7.86104 1.57054 -8.94899
41 1 18.8698 6.28918 -0.00045194 -8.94944
42 1 20.4421 7.86181 1.57186 -8.94943
164 1 6.28061 6.27773 9.43425 -8.9491
44 1 3.14418 9.43441 0.000172219 -8.94959
163 1 3.13948 6.28579 9.43359 -8.94708
162 1 22.0124 6.28847 9.43415 -8.94965
161 1 18.8695 3.14407 9.43454 -8.9495
48 1 15.7258 9.43399 -0.00174792 -8.9493
160 1 15.7253 3.14336 9.43461 -8.94931
50 1 -0.000250783 8.66647e-16 3.14461 -8.94959
51 1 1.57177 1.57193 4.71681 -8.94958
52 1 3.14415 1.36687e-15 3.14415 -8.94954
53 1 4.71622 1.57114 4.71622 -8.95004
54 1 6.28933 7.44986e-16 3.14411 -8.94958
55 1 7.86183 1.57106 4.71627 -8.94972
56 1 9.43449 7.92357e-16 3.14401 -8.94954
57 1 11.0073 1.57097 4.71621 -8.94958
58 1 12.5797 1.01836e-15 3.14408 -8.94948
59 1 14.1526 1.57082 4.71659 -8.95103
60 1 15.7249 1.63088e-15 3.14423 -8.9501
61 1 17.2972 1.57185 4.71711 -8.94975
62 1 18.8693 1.81051e-15 3.14468 -8.94969
63 1 20.4415 1.57214 4.71711 -8.94952
64 1 22.0134 3.14424 3.1443 -8.94942
65 1 1.57041 4.71582 4.71579 -8.94914
66 1 3.1433 3.14342 3.1433 -8.94811
67 1 4.71252 4.71259 4.71252 -8.94388
68 1 6.28873 3.14308 3.14323 -8.94952
69 1 7.86037 4.7124 4.71348 -8.94899
70 1 9.43433 3.14293 3.14318 -8.9493
71 1 11.0078 4.7122 4.71311 -8.94691
72 1 12.58 3.14269 3.14322 -8.949
73 1 14.1567 4.7099 4.71252 -8.94879
74 1 15.7261 3.14226 3.14307 -8.94906
75 1 17.2989 4.71522 4.7162 -8.94986
76 1 18.8697 3.14403 3.14434 -8.94968
77 1 20.4416 4.71657 4.71683 -8.94998
78 1 7.80105e-05 6.2894 3.14433 -8.94999
79 1 1.57167 7.86223 4.71658 -8.95006
80 1 3.14342 6.28914 3.14342 -8.95101
81 1 4.71459 7.86198 4.71459 -8.95415
82 1 6.28588 6.286 3.13892 -8.94896
83 1 7.85403 7.85275 4.70244 -8.9512
84 1 9.43359 6.28579 3.13948 -8.94708
85 1 11.0087 7.85422 4.70133 -8.95274
86 1 12.5816 6.28514 3.13864 -8.94923
87 1 14.1705 7.84496 4.69832 -8.92266
88 1 15.7305 6.28371 3.13873 -8.94261
89 1 17.3028 7.85933 4.71432 -8.95108
90 1 18.8712 6.2884 3.14356 -8.94972
91 1 20.4428 7.86166 4.71661 -8.9503
92 1 0.000172219 9.43441 3.14418 -8.94959
93 1 3.14382 9.43456 3.14382 -8.94875
94 1 6.28898 9.4355 3.14355 -8.94939
95 1 9.43411 9.43372 3.13958 -8.95222
96 1 12.5847 9.4316 3.13083 -8.95957
97 1 15.7299 9.43261 3.13925 -8.94681
98 1 18.8714 9.43405 3.14342 -8.94924
99 1 22.0136 -2.55859e-16 6.28952 -8.94951
100 1 1.57171 1.57186 7.86189 -8.94944
101 1 3.14411 1.33909e-15 6.28933 -8.94958
102 1 4.71627 1.57106 7.86183 -8.94972
103 1 6.28924 1.372e-15 6.28924 -8.95076
104 1 7.86209 1.5707 7.86209 -8.95175
105 1 9.43472 1.61728e-15 6.2892 -8.95049
106 1 11.0069 1.57154 7.86241 -8.94995
107 1 12.5796 1.7308e-15 6.28966 -8.95099
108 1 14.1523 1.57158 7.86238 -8.94971
109 1 15.7247 1.50562e-15 6.28974 -8.94969
110 1 17.2972 1.57189 7.86212 -8.94942
111 1 18.8693 1.50085e-15 6.28962 -8.94948
112 1 20.4415 1.57209 7.86202 -8.94953
113 1 -0.000543874 3.14417 6.28935 -8.94939
114 1 1.57049 4.7157 7.86142 -8.94892
115 1 3.14323 3.14308 6.28873 -8.94952
116 1 4.71348 4.7124 7.86037 -8.94899
117 1 6.2879 3.14067 6.2879 -8.95165
118 1 7.86006 4.70841 7.86006 -8.96096
119 1 9.43481 3.14101 6.28799 -8.95063
120 1 11.0069 4.71391 7.86085 -8.9545
121 1 12.5802 3.14087 6.28885 -8.95372
122 1 14.1535 4.71431 7.86243 -8.94994
123 1 15.7253 3.14314 6.28963 -8.94984
124 1 17.2981 4.71575 7.8621 -8.94855
125 1 18.8695 3.14415 6.28957 -8.94934
126 1 20.4415 4.71638 7.86188 -8.94936
127 1 22.0127 6.28893 6.28902 -8.95061
128 1 1.56891 7.86121 7.86118 -8.95286
129 1 3.13892 6.286 6.28588 -8.94896
130 1 4.70244 7.85275 7.85403 -8.9512
131 1 6.27568 6.27546 6.27568 -8.92629
132 1 7.82113 7.82036 7.82113 -8.83535
133 1 9.43425 6.27773 6.28061 -8.9491
134 1 11.0339 7.84569 7.8192 -8.87479
135 1 12.5906 6.27255 6.27732 -8.95026
136 1 14.1639 7.85485 7.85834 -8.948
137 1 15.73 6.28524 6.28752 -8.95007
138 1 17.2999 7.86119 7.86289 -8.95212
139 1 18.8706 6.28877 6.28954 -8.95043
140 1 20.4416 7.8617 7.86208 -8.95037
141 1 22.014 9.43458 6.28919 -8.94982
142 1 3.14355 9.4355 6.28898 -8.94939
143 1 6.28776 9.43863 6.28776 -8.96331
144 1 9.41471 9.40539 6.27127 -8.89961
145 1 12.6342 9.38902 6.23561 -8.82347
146 1 15.7389 9.43102 6.28367 -8.9588
147 1 18.8727 9.43416 6.28907 -8.95217
148 1 22.0136 -1.03375e-15 9.43448 -8.94954
149 1 3.14401 1.48358e-15 9.43449 -8.94954
150 1 6.2892 1.77137e-15 9.43472 -8.95049
151 1 9.43471 1.4287e-15 9.43471 -8.94771
152 1 12.5796 1.76122e-15 9.43477 -8.94933
153 1 15.7248 4.11824e-16 9.43462 -8.94968
154 1 18.8693 -2.05215e-16 9.43455 -8.94955
155 1 -0.000608509 3.14405 9.43442 -8.94946
156 1 3.14318 3.14293 9.43433 -8.9493
157 1 6.28799 3.14101 9.43481 -8.95063
158 1 9.43458 3.14533 9.43458 -8.94456
159 1 12.5796 3.14419 9.43474 -8.94869
177 1 4.71621 1.57097 11.0073 -8.94958
180 1 14.1522 1.57175 11.0069 -8.94947
184 1 4.71311 4.7122 11.0078 -8.94691
187 1 14.153 4.71524 11.0059 -8.94832
188 1 17.2979 4.71582 11.007 -8.94872
189 1 20.4413 4.71632 11.007 -8.94943
194 1 14.1583 7.85897 11.0023 -8.95056
21 1 9.43442 3.14405 -0.000608509 -8.94946
176 1 1.57166 1.57181 11.007 -8.94948
343 1 18.8697 9.43432 18.8697 -8.94943
178 1 7.86241 1.57154 11.0069 -8.94995
179 1 11.0068 1.5723 11.0068 -8.94877
342 1 15.7257 9.43401 18.8706 -8.94917
181 1 17.2971 1.57192 11.007 -8.94948
182 1 20.4414 1.57208 11.007 -8.94954
183 1 1.57033 4.71547 11.007 -8.94912
341 1 12.5795 9.43439 18.871 -8.95311
185 1 7.86085 4.71391 11.0069 -8.9545
186 1 11.0061 4.71834 11.0061 -8.94929
340 1 9.43474 9.43443 18.8692 -8.94772
339 1 6.28907 9.43416 18.8727 -8.95217
338 1 3.14342 9.43405 18.8714 -8.94924
337 1 22.0134 9.43434 18.8699 -8.94944
336 1 20.4417 7.86189 20.4417 -8.94951
192 1 7.8192 7.84569 11.0339 -8.87479
193 1 11.0287 7.8661 11.0287 -8.9008
49 1 18.8699 9.43434 22.0134 -8.94944
195 1 17.2989 7.86101 11.006 -8.95015
196 1 20.441 7.86144 11.0067 -8.95015
197 1 22.0136 8.22436e-16 12.5795 -8.94952
198 1 1.57173 1.57178 14.1521 -8.94945
199 1 3.14408 1.22538e-15 12.5797 -8.94948
200 1 4.71659 1.57082 14.1526 -8.95103
201 1 6.28966 1.78641e-15 12.5796 -8.95099
202 1 7.86238 1.57158 14.1523 -8.94971
203 1 9.43477 1.80356e-15 12.5796 -8.94933
204 1 11.0069 1.57175 14.1522 -8.94947
205 1 12.5793 -5.97134e-16 12.5793 -8.95087
206 1 14.1522 1.57114 14.1522 -8.9512
207 1 15.7246 -3.47061e-17 12.5794 -8.94951
208 1 17.297 1.57197 14.1519 -8.94963
209 1 18.8692 5.42128e-16 12.5795 -8.94949
210 1 20.4414 1.57212 14.1519 -8.94948
211 1 22.0133 3.14404 12.5795 -8.94937
212 1 1.5702 4.71523 14.1529 -8.94961
213 1 3.14322 3.14269 12.58 -8.949
214 1 4.71252 4.7099 14.1567 -8.94879
215 1 6.28885 3.14087 12.5802 -8.95372
216 1 7.86243 4.71431 14.1535 -8.94994
217 1 9.43474 3.14419 12.5796 -8.94869
218 1 11.0059 4.71524 14.153 -8.94832
219 1 12.5794 3.14205 12.5794 -8.95439
220 1 14.1552 4.71064 14.1552 -8.95114
221 1 15.7249 3.1436 12.5793 -8.94942
222 1 17.298 4.71574 14.1523 -8.95029
223 1 18.8694 3.14416 12.5795 -8.94929
224 1 20.4412 4.71645 14.152 -8.94967
225 1 -0.00180878 6.28849 12.5796 -8.94977
226 1 1.56667 7.85949 14.1547 -8.9518
227 1 3.13864 6.28514 12.5816 -8.94923
228 1 4.69832 7.84496 14.1705 -8.92266
229 1 6.27732 6.27255 12.5906 -8.95026
230 1 7.85834 7.85485 14.1639 -8.948
231 1 9.43289 6.29028 12.5787 -8.94964
232 1 11.0023 7.85897 14.1583 -8.95056
233 1 12.5861 6.27436 12.5861 -8.96128
234 1 14.1726 7.84135 14.1726 -8.90916
235 1 15.7275 6.28688 12.5795 -8.95082
236 1 17.3021 7.85954 14.1542 -8.95305
237 1 18.8699 6.28877 12.5793 -8.94967
238 1 20.4413 7.86134 14.1525 -8.95123
239 1 22.0108 9.43418 12.5799 -8.95221
240 1 3.13083 9.4316 12.5847 -8.95957
241 1 6.23561 9.38902 12.6342 -8.82347
242 1 9.40631 9.4327 12.5712 -8.82693
243 1 12.6419 9.37032 12.6419 -8.7333
244 1 15.7368 9.43215 12.583 -8.96556
245 1 18.871 9.43439 12.5795 -8.95311
246 1 -0.000311371 1.45194e-15 15.7244 -8.94954
247 1 1.57175 1.57175 17.2973 -8.94934
248 1 3.14423 1.58625e-15 15.7249 -8.9501
249 1 4.71711 1.57185 17.2972 -8.94975
250 1 6.28974 1.76297e-15 15.7247 -8.94969
251 1 7.86212 1.57189 17.2972 -8.94942
252 1 9.43462 6.51736e-16 15.7248 -8.94968
253 1 11.007 1.57192 17.2971 -8.94948
254 1 12.5794 -5.33502e-16 15.7246 -8.94951
255 1 14.1519 1.57197 17.297 -8.94963
256 1 15.7247 1.43553e-15 15.7247 -8.95025
257 1 17.2972 1.57177 17.2972 -8.94948
258 1 18.8692 1.8465e-15 15.7243 -8.94967
259 1 20.4414 1.5721 17.2969 -8.94965
260 1 -0.00065198 3.14404 15.7247 -8.94963
261 1 1.57065 4.71534 17.2986 -8.94773
262 1 3.14307 3.14226 15.7261 -8.94906
263 1 4.7162 4.71522 17.2989 -8.94986
264 1 6.28963 3.14314 15.7253 -8.94984
265 1 7.8621 4.71575 17.2981 -8.94855
266 1 9.43461 3.14336 15.7253 -8.94931
267 1 11.007 4.71582 17.2979 -8.94872
268 1 12.5793 3.1436 15.7249 -8.94942
269 1 14.1523 4.71574 17.298 -8.95029
270 1 15.7256 3.14245 15.7256 -8.94961
271 1 17.2985 4.71514 17.2985 -8.94718
272 1 18.8694 3.14412 15.7245 -8.94984
273 1 20.4415 4.71635 17.2975 -8.9495
274 1 22.0122 6.28827 15.7256 -8.95011
275 1 1.57054 7.86104 17.2988 -8.94899
276 1 3.13873 6.28371 15.7305 -8.94261
277 1 4.71432 7.85933 17.3028 -8.95108
278 1 6.28752 6.28524 15.73 -8.95007
279 1 7.86289 7.86119 17.2999 -8.95212
280 1 9.43433 6.28666 15.7275 -8.94385
281 1 11.006 7.86101 17.2989 -8.95015
282 1 12.5795 6.28688 15.7275 -8.95082
283 1 14.1542 7.85954 17.3021 -8.95305
284 1 15.7306 6.28298 15.7306 -8.93996
285 1 17.2984 7.86109 17.2984 -8.94908
286 1 18.8707 6.28823 15.7255 -8.95024
287 1 20.4415 7.86161 17.2976 -8.94929
288 1 -0.00174792 9.43399 15.7258 -8.9493
289 1 3.13925 9.43261 15.7299 -8.94681
290 1 6.28367 9.43102 15.7389 -8.9588
291 1 9.43463 9.43656 15.722 -8.94773
292 1 12.583 9.43215 15.7368 -8.96556
293 1 15.7291 9.43283 15.7291 -8.94637
294 1 18.8706 9.43401 15.7257 -8.94917
295 1 22.0136 1.60358e-15 18.8693 -8.94928
296 1 1.57219 1.57211 20.4415 -8.94948
297 1 3.14468 1.68639e-15 18.8693 -8.94969
298 1 4.71711 1.57214 20.4415 -8.94952
299 1 6.28962 1.48171e-15 18.8693 -8.94948
300 1 7.86202 1.57209 20.4415 -8.94953
301 1 9.43455 -4.91828e-16 18.8693 -8.94955
302 1 11.007 1.57208 20.4414 -8.94954
303 1 12.5795 6.66263e-16 18.8692 -8.94949
304 1 14.1519 1.57212 20.4414 -8.94948
305 1 15.7243 1.8963e-15 18.8692 -8.94967
306 1 17.2969 1.5721 20.4414 -8.94965
307 1 18.8693 1.63251e-15 18.8693 -8.9494
308 1 20.4416 1.57216 20.4416 -8.94906
309 1 22.0135 3.1442 18.8697 -8.94904
310 1 1.57194 4.71673 20.442 -8.94959
311 1 3.14434 3.14403 18.8697 -8.94968
312 1 4.71683 4.71657 20.4416 -8.94998
313 1 6.28957 3.14415 18.8695 -8.94934
314 1 7.86188 4.71638 20.4415 -8.94936
315 1 9.43454 3.14407 18.8695 -8.9495
316 1 11.007 4.71632 20.4413 -8.94943
317 1 12.5795 3.14416 18.8694 -8.94929
318 1 14.152 4.71645 20.4412 -8.94967
319 1 15.7245 3.14412 18.8694 -8.94984
320 1 17.2975 4.71635 20.4415 -8.9495
321 1 18.8695 3.1441 18.8695 -8.94887
322 1 20.4416 4.71692 20.4416 -8.94957
323 1 -0.00045194 6.28918 18.8698 -8.94944
324 1 1.57186 7.86181 20.4421 -8.94943
325 1 3.14356 6.2884 18.8712 -8.94972
326 1 4.71661 7.86166 20.4428 -8.9503
327 1 6.28954 6.28877 18.8706 -8.95043
328 1 7.86208 7.8617 20.4416 -8.95037
329 1 9.43449 6.28841 18.8702 -8.94934
330 1 11.0067 7.86144 20.441 -8.95015
331 1 12.5793 6.28877 18.8699 -8.94967
332 1 14.1525 7.86134 20.4413 -8.95123
333 1 15.7255 6.28823 18.8707 -8.95024
334 1 17.2976 7.86161 20.4415 -8.94929
335 1 18.8696 6.28913 18.8696 -8.94948
1 1 22.0138 6.60951e-16 22.0138 -8.9493
5 1 6.28952 -1.21229e-16 22.0136 -8.94951
9 1 12.5795 1.04288e-15 22.0136 -8.94952
13 1 18.8693 1.74987e-15 22.0136 -8.94928
17 1 3.1443 3.14424 22.0134 -8.94942
47 1 12.5799 9.43418 22.0108 -8.95221
23 1 12.5795 3.14404 22.0133 -8.94937
27 1 18.8697 3.1442 22.0135 -8.94904
29 1 22.0139 6.28946 22.0139 -8.94948
33 1 6.28902 6.28893 22.0127 -8.95061
39 1 15.7256 6.28827 22.0122 -8.95011
43 1 22.0138 9.43444 22.0138 -8.94953
45 1 6.28919 9.43458 22.014 -8.94982
46 1 9.43423 9.4344 22.0124 -8.94935
7 1 9.43448 -6.58349e-16 22.0136 -8.94954
35 1 9.43415 6.28847 22.0124 -8.94965
344 1 1.572 11.007 1.572 -8.94957
345 1 4.71632 11.007 1.57171 -8.94974
346 1 7.86157 11.007 1.57171 -8.94694
347 1 11.0072 11.007 1.56812 -8.94895
348 1 14.1553 11.007 1.56654 -8.94927
349 1 17.2989 11.007 1.57047 -8.94923
350 1 20.4421 11.007 1.57181 -8.9495
688 3 10.4399 11.007 9.39561 2.35906
352 1 1.57205 14.1519 1.57205 -8.94937
353 1 3.14418 12.5795 0.000172219 -8.94959
354 1 4.71658 14.1517 1.57167 -8.95006
687 3 9.39561 11.007 10.4399 2.35906
356 1 7.86118 14.1527 1.56891 -8.95286
511 1 18.8695 18.8698 9.43454 -8.9495
358 1 11.0067 14.1535 1.56754 -8.95117
510 1 15.7253 18.8705 9.43461 -8.94931
360 1 14.1547 14.1544 1.56667 -8.9518
361 1 15.7258 12.5799 -0.00174792 -8.9493
362 1 17.2988 14.1529 1.57054 -8.94899
509 1 12.5796 18.8697 9.43474 -8.94869
364 1 20.4421 14.1521 1.57186 -8.94943
508 1 9.43458 18.8686 9.43458 -8.94456
366 1 1.5719 17.2971 1.5719 -8.94997
367 1 3.14433 15.7245 7.80105e-05 -8.94999
368 1 4.71579 17.2981 1.57041 -8.94914
507 1 6.28799 18.8729 9.43481 -8.95063
370 1 7.86142 17.2982 1.57049 -8.94892
537 1 14.1522 20.4422 11.0069 -8.94947
372 1 11.007 17.2984 1.57033 -8.94912
373 1 12.5796 15.7254 -0.00180878 -8.94977
374 1 14.1529 17.2987 1.5702 -8.94961
506 1 3.14318 18.871 9.43433 -8.9493
376 1 17.2986 17.2986 1.57065 -8.94773
377 1 18.8698 15.7247 -0.00045194 -8.94944
378 1 20.442 17.2972 1.57194 -8.94959
379 1 -0.000102836 18.8694 -0.000102836 -8.94953
380 1 1.57192 20.4418 1.57192 -8.94918
505 1 -0.000608509 18.8699 9.43442 -8.94946
382 1 4.71681 20.442 1.57177 -8.94958
383 1 6.28935 18.8697 -0.000543874 -8.94939
384 1 7.86189 20.442 1.57171 -8.94944
504 1 18.8702 15.7255 9.43449 -8.94934
386 1 11.007 20.4421 1.57166 -8.94948
503 1 15.7275 15.7272 9.43433 -8.94385
388 1 14.1521 20.4421 1.57173 -8.94945
389 1 15.7247 18.8699 -0.00065198 -8.94963
390 1 17.2973 20.4421 1.57175 -8.94934
502 1 12.5787 15.7236 9.43289 -8.94964
392 1 20.4415 20.4418 1.57219 -8.94948
393 1 1.57171 11.007 4.71632 -8.94974
394 1 4.71516 11.007 4.71516 -8.94524
395 1 7.86397 11.007 4.72003 -8.93403
396 1 11.015 11.007 4.7066 -9.01612
397 1 14.1666 11.007 4.70157 -8.93956
398 1 17.3028 11.007 4.71385 -8.94873
399 1 20.443 11.007 4.71639 -8.95
400 1 0.000172219 12.5795 3.14418 -8.94959
401 1 1.57167 14.1517 4.71658 -8.95006
402 1 3.14382 12.5793 3.14382 -8.94875
403 1 4.71459 14.1519 4.71459 -8.95415
404 1 6.28898 12.5784 3.14355 -8.94939
405 1 7.85403 14.1612 4.70244 -8.9512
406 1 9.43411 12.5802 3.13958 -8.95222
407 1 11.0087 14.1597 4.70133 -8.95274
408 1 12.5847 12.5823 3.13083 -8.95957
409 1 14.1705 14.1689 4.69832 -8.92266
410 1 15.7299 12.5813 3.13925 -8.94681
411 1 17.3028 14.1546 4.71432 -8.95108
412 1 18.8714 12.5798 3.14342 -8.94924
413 1 20.4428 14.1522 4.71661 -8.9503
414 1 7.80105e-05 15.7245 3.14433 -8.94999
415 1 1.57041 17.2981 4.71579 -8.94914
416 1 3.14342 15.7248 3.14342 -8.95101
417 1 4.71252 17.3013 4.71252 -8.94388
418 1 6.28588 15.7279 3.13892 -8.94896
419 1 7.86037 17.3015 4.71348 -8.94899
420 1 9.43359 15.7281 3.13948 -8.94708
421 1 11.0078 17.3017 4.71311 -8.94691
422 1 12.5816 15.7288 3.13864 -8.94923
423 1 14.1567 17.304 4.71252 -8.94879
424 1 15.7305 15.7302 3.13873 -8.94261
425 1 17.2989 17.2987 4.7162 -8.94986
426 1 18.8712 15.7255 3.14356 -8.94972
427 1 20.4416 17.2973 4.71683 -8.94998
428 1 22.0134 18.8697 3.1443 -8.94942
429 1 1.57177 20.442 4.71681 -8.94958
430 1 3.1433 18.8705 3.1433 -8.94811
431 1 4.71622 20.4428 4.71622 -8.95004
432 1 6.28873 18.8708 3.14323 -8.94952
433 1 7.86183 20.4428 4.71627 -8.94972
434 1 9.43433 18.871 3.14318 -8.9493
435 1 11.0073 20.4429 4.71621 -8.94958
436 1 12.58 18.8712 3.14322 -8.949
437 1 14.1526 20.4431 4.71659 -8.95103
438 1 15.7261 18.8716 3.14307 -8.94906
439 1 17.2972 20.4421 4.71711 -8.94975
440 1 18.8697 18.8699 3.14434 -8.94968
441 1 20.4415 20.4418 4.71711 -8.94952
442 1 1.57171 11.007 7.86157 -8.94694
443 1 4.72003 11.007 7.86397 -8.93403
444 1 7.89278 11.007 7.89278 -8.88284
445 1 11.0968 11.007 7.54811 -7.95768
446 1 14.1634 11.007 7.84596 -8.9653
447 1 17.3005 11.007 7.86193 -8.95087
448 1 20.4422 11.007 7.86206 -8.9495
449 1 22.014 12.5793 6.28919 -8.94982
450 1 1.56891 14.1527 7.86118 -8.95286
451 1 3.14355 12.5784 6.28898 -8.94939
452 1 4.70244 14.1612 7.85403 -8.9512
453 1 6.28776 12.5753 6.28776 -8.96331
454 1 7.82113 14.1935 7.82113 -8.83535
455 1 9.41471 12.6085 6.27127 -8.89961
456 1 11.0339 14.1682 7.8192 -8.87479
457 1 12.6342 12.6249 6.23561 -8.82347
458 1 14.1639 14.159 7.85834 -8.948
459 1 15.7389 12.5829 6.28367 -8.9588
460 1 17.2999 14.1527 7.86289 -8.95212
461 1 18.8727 12.5797 6.28907 -8.95217
462 1 20.4416 14.1522 7.86208 -8.95037
463 1 22.0127 15.725 6.28902 -8.95061
464 1 1.57049 17.2982 7.86142 -8.94892
465 1 3.13892 15.7279 6.28588 -8.94896
466 1 4.71348 17.3015 7.86037 -8.94899
467 1 6.27568 15.7384 6.27568 -8.92629
468 1 7.86006 17.3055 7.86006 -8.96096
469 1 9.43425 15.7362 6.28061 -8.9491
470 1 11.0069 17.3 7.86085 -8.9545
471 1 12.5906 15.7413 6.27732 -8.95026
472 1 14.1535 17.2996 7.86243 -8.94994
473 1 15.73 15.7287 6.28752 -8.95007
474 1 17.2981 17.2981 7.8621 -8.94855
475 1 18.8706 15.7251 6.28954 -8.95043
476 1 20.4415 17.2975 7.86188 -8.94936
477 1 -0.000543874 18.8697 6.28935 -8.94939
478 1 1.57171 20.442 7.86189 -8.94944
479 1 3.14323 18.8708 6.28873 -8.94952
480 1 4.71627 20.4428 7.86183 -8.94972
481 1 6.2879 18.8732 6.2879 -8.95165
482 1 7.86209 20.4432 7.86209 -8.95175
483 1 9.43481 18.8729 6.28799 -8.95063
484 1 11.0069 20.4424 7.86241 -8.94995
485 1 12.5802 18.873 6.28885 -8.95372
486 1 14.1523 20.4423 7.86238 -8.94971
487 1 15.7253 18.8708 6.28963 -8.94984
488 1 17.2972 20.442 7.86212 -8.94942
489 1 18.8695 18.8698 6.28957 -8.94934
490 1 20.4415 20.4418 7.86202 -8.94953
491 1 22.0124 12.5795 9.43423 -8.94935
492 1 3.13958 12.5802 9.43411 -8.95222
493 1 6.27127 12.6085 9.41471 -8.89961
494 1 9.38989 12.828 9.38989 -7.71663
495 1 12.5712 12.5812 9.40631 -8.82693
496 1 15.722 12.5773 9.43463 -8.94773
497 1 18.8692 12.5795 9.43474 -8.94772
498 1 22.0124 15.7254 9.43415 -8.94965
499 1 3.13948 15.7281 9.43359 -8.94708
500 1 6.28061 15.7362 9.43425 -8.9491
501 1 9.43218 15.7134 9.43218 -9.01264
512 1 1.56812 11.007 11.0072 -8.94895
517 1 17.2963 11.007 11.0065 -8.94387
519 1 1.56754 14.1535 11.0067 -8.95117
520 1 4.70133 14.1597 11.0087 -8.95274
527 1 4.71311 17.3017 11.0078 -8.94691
530 1 14.153 17.2987 11.0059 -8.94832
531 1 17.2979 17.2981 11.007 -8.94872
532 1 20.4413 17.2976 11.007 -8.94943
534 1 4.71621 20.4429 11.0073 -8.94958
518 1 20.4406 11.007 11.0066 -8.94851
523 1 14.1583 14.1549 11.0023 -8.95056
385 1 9.43442 18.8699 -0.000608509 -8.94946
686 1 20.4416 20.4417 20.4416 -8.94906
513 1 4.7066 11.007 11.015 -9.01612
514 1 7.54811 11.007 11.0968 -7.95768
515 1 11.2621 11.007 11.2621 -7.37462
516 1 14.1406 11.007 11.0171 -9.00873
685 1 18.8695 18.8698 18.8695 -8.94887
391 1 18.8697 18.8697 22.0135 -8.94904
684 1 17.2969 20.4418 20.4414 -8.94965
683 1 15.7245 18.8698 18.8694 -8.94984
521 1 7.8192 14.1682 11.0339 -8.87479
522 1 11.0287 14.1478 11.0287 -8.9008
387 1 12.5795 18.8699 22.0133 -8.94937
524 1 17.2989 14.1529 11.006 -8.95015
525 1 20.441 14.1525 11.0067 -8.95015
526 1 1.57033 17.2984 11.007 -8.94912
682 1 14.1519 20.4418 20.4414 -8.94948
528 1 7.86085 17.3 11.0069 -8.9545
529 1 11.0061 17.2956 11.0061 -8.94929
681 1 12.5795 18.8697 18.8694 -8.94929
680 1 11.007 20.4418 20.4414 -8.94954
679 1 9.43454 18.8698 18.8695 -8.9495
533 1 1.57166 20.4421 11.007 -8.94948
678 1 7.86202 20.4418 20.4415 -8.94953
535 1 7.86241 20.4424 11.0069 -8.94995
536 1 11.0068 20.4416 11.0068 -8.94877
677 1 6.28957 18.8698 18.8695 -8.94934
538 1 17.2971 20.442 11.007 -8.94948
539 1 20.4414 20.4418 11.007 -8.94954
540 1 1.56654 11.007 14.1553 -8.94927
541 1 4.70157 11.007 14.1666 -8.93956
542 1 7.84596 11.007 14.1634 -8.9653
543 1 11.0171 11.007 14.1406 -9.00873
544 1 14.165 11.007 14.165 -8.93878
545 1 17.3017 11.007 14.1549 -8.94875
546 1 20.4412 11.007 14.1529 -8.95049
547 1 22.0108 12.5797 12.5799 -8.95221
548 1 1.56667 14.1544 14.1547 -8.9518
549 1 3.13083 12.5823 12.5847 -8.95957
550 1 4.69832 14.1689 14.1705 -8.92266
551 1 6.23561 12.6249 12.6342 -8.82347
552 1 7.85834 14.159 14.1639 -8.948
553 1 9.40631 12.5812 12.5712 -8.82693
554 1 11.0023 14.1549 14.1583 -8.95056
555 1 12.6419 12.6436 12.6419 -8.7333
556 1 14.1726 14.1726 14.1726 -8.90916
557 1 15.7368 12.5818 12.583 -8.96556
558 1 17.3021 14.1544 14.1542 -8.95305
559 1 18.871 12.5795 12.5795 -8.95311
560 1 20.4413 14.1526 14.1525 -8.95123
561 1 -0.00180878 15.7254 12.5796 -8.94977
562 1 1.5702 17.2987 14.1529 -8.94961
563 1 3.13864 15.7288 12.5816 -8.94923
564 1 4.71252 17.304 14.1567 -8.94879
565 1 6.27732 15.7413 12.5906 -8.95026
566 1 7.86243 17.2996 14.1535 -8.94994
567 1 9.43289 15.7236 12.5787 -8.94964
568 1 11.0059 17.2987 14.153 -8.94832
569 1 12.5861 15.7395 12.5861 -8.96128
570 1 14.1552 17.3033 14.1552 -8.95114
571 1 15.7275 15.727 12.5795 -8.95082
572 1 17.298 17.2982 14.1523 -8.95029
573 1 18.8699 15.7251 12.5793 -8.94967
574 1 20.4412 17.2975 14.152 -8.94967
575 1 22.0133 18.8699 12.5795 -8.94937
576 1 1.57173 20.4421 14.1521 -8.94945
577 1 3.14322 18.8712 12.58 -8.949
578 1 4.71659 20.4431 14.1526 -8.95103
579 1 6.28885 18.873 12.5802 -8.95372
580 1 7.86238 20.4423 14.1523 -8.94971
581 1 9.43474 18.8697 12.5796 -8.94869
582 1 11.0069 20.4422 14.1522 -8.94947
583 1 12.5794 18.8719 12.5794 -8.95439
584 1 14.1522 20.4428 14.1522 -8.9512
585 1 15.7249 18.8703 12.5793 -8.94942
586 1 17.297 20.4419 14.1519 -8.94963
587 1 18.8694 18.8697 12.5795 -8.94929
588 1 20.4414 20.4418 14.1519 -8.94948
589 1 1.57047 11.007 17.2989 -8.94923
590 1 4.71385 11.007 17.3028 -8.94873
591 1 7.86193 11.007 17.3005 -8.95087
592 1 11.0065 11.007 17.2963 -8.94387
593 1 14.1549 11.007 17.3017 -8.94875
594 1 17.2985 11.007 17.2985 -8.94937
595 1 20.4415 11.007 17.2977 -8.94944
596 1 -0.00174792 12.5799 15.7258 -8.9493
597 1 1.57054 14.1529 17.2988 -8.94899
598 1 3.13925 12.5813 15.7299 -8.94681
599 1 4.71432 14.1546 17.3028 -8.95108
600 1 6.28367 12.5829 15.7389 -8.9588
601 1 7.86289 14.1527 17.2999 -8.95212
602 1 9.43463 12.5773 15.722 -8.94773
603 1 11.006 14.1529 17.2989 -8.95015
604 1 12.583 12.5818 15.7368 -8.96556
605 1 14.1542 14.1544 17.3021 -8.95305
606 1 15.7291 12.5811 15.7291 -8.94637
607 1 17.2984 14.1528 17.2984 -8.94908
608 1 18.8706 12.5799 15.7257 -8.94917
609 1 20.4415 14.1523 17.2976 -8.94929
610 1 22.0122 15.7256 15.7256 -8.95011
611 1 1.57065 17.2986 17.2986 -8.94773
612 1 3.13873 15.7302 15.7305 -8.94261
613 1 4.7162 17.2987 17.2989 -8.94986
614 1 6.28752 15.7287 15.73 -8.95007
615 1 7.8621 17.2981 17.2981 -8.94855
616 1 9.43433 15.7272 15.7275 -8.94385
617 1 11.007 17.2981 17.2979 -8.94872
618 1 12.5795 15.727 15.7275 -8.95082
619 1 14.1523 17.2982 17.298 -8.95029
620 1 15.7306 15.7309 15.7306 -8.93996
621 1 17.2985 17.2988 17.2985 -8.94718
622 1 18.8707 15.7257 15.7255 -8.95024
623 1 20.4415 17.2976 17.2975 -8.9495
624 1 -0.00065198 18.8699 15.7247 -8.94963
625 1 1.57175 20.4421 17.2973 -8.94934
626 1 3.14307 18.8716 15.7261 -8.94906
627 1 4.71711 20.4421 17.2972 -8.94975
628 1 6.28963 18.8708 15.7253 -8.94984
629 1 7.86212 20.442 17.2972 -8.94942
630 1 9.43461 18.8705 15.7253 -8.94931
631 1 11.007 20.442 17.2971 -8.94948
632 1 12.5793 18.8703 15.7249 -8.94942
633 1 14.1519 20.4419 17.297 -8.94963
634 1 15.7256 18.8715 15.7256 -8.94961
635 1 17.2972 20.4421 17.2972 -8.94948
636 1 18.8694 18.8698 15.7245 -8.94984
637 1 20.4414 20.4418 17.2969 -8.94965
638 1 1.57181 11.007 20.4421 -8.9495
639 1 4.71639 11.007 20.443 -8.95
640 1 7.86206 11.007 20.4422 -8.9495
641 1 11.0066 11.007 20.4406 -8.94851
642 1 14.1529 11.007 20.4412 -8.95049
643 1 17.2977 11.007 20.4415 -8.94944
644 1 20.4417 11.007 20.4417 -8.94953
645 1 22.0134 12.5796 18.8699 -8.94944
646 1 1.57186 14.1521 20.4421 -8.94943
647 1 3.14342 12.5798 18.8714 -8.94924
648 1 4.71661 14.1522 20.4428 -8.9503
649 1 6.28907 12.5797 18.8727 -8.95217
650 1 7.86208 14.1522 20.4416 -8.95037
651 1 9.43474 12.5795 18.8692 -8.94772
652 1 11.0067 14.1525 20.441 -8.95015
653 1 12.5795 12.5795 18.871 -8.95311
654 1 14.1525 14.1526 20.4413 -8.95123
655 1 15.7257 12.5799 18.8706 -8.94917
656 1 17.2976 14.1523 20.4415 -8.94929
657 1 18.8697 12.5796 18.8697 -8.94943
658 1 20.4417 14.152 20.4417 -8.94951
659 1 -0.00045194 15.7247 18.8698 -8.94944
660 1 1.57194 17.2972 20.442 -8.94959
661 1 3.14356 15.7255 18.8712 -8.94972
662 1 4.71683 17.2973 20.4416 -8.94998
663 1 6.28954 15.7251 18.8706 -8.95043
664 1 7.86188 17.2975 20.4415 -8.94936
665 1 9.43449 15.7255 18.8702 -8.94934
666 1 11.007 17.2976 20.4413 -8.94943
667 1 12.5793 15.7251 18.8699 -8.94967
668 1 14.152 17.2975 20.4412 -8.94967
669 1 15.7255 15.7257 18.8707 -8.95024
670 1 17.2975 17.2976 20.4415 -8.9495
671 1 18.8696 15.7248 18.8696 -8.94948
672 1 20.4416 17.297 20.4416 -8.94957
673 1 22.0135 18.8697 18.8697 -8.94904
674 1 1.57219 20.4418 20.4415 -8.94948
675 1 3.14434 18.8699 18.8697 -8.94968
676 1 4.71711 20.4418 20.4415 -8.94952
351 1 22.0138 12.5795 22.0138 -8.94953
355 1 6.28919 12.5793 22.014 -8.94982
357 1 9.43423 12.5795 22.0124 -8.94935
359 1 12.5799 12.5797 22.0108 -8.95221
363 1 18.8699 12.5796 22.0134 -8.94944
365 1 22.0139 15.7244 22.0139 -8.94948
369 1 6.28902 15.725 22.0127 -8.95061
375 1 15.7256 15.7256 22.0122 -8.95011
381 1 3.1443 18.8697 22.0134 -8.94942
371 1 9.43415 15.7254 22.0124 -8.94965
