ITEM: TIMESTEP
71
ITEM: NUMBER OF ATOMS
688
ITEM: BOX BOUNDS pp pp pp
0.0000000000000000e+00 2.2013900999999997e+01
0.0000000000000000e+00 2.2013900999999997e+01
0.0000000000000000e+00 2.2013900999999997e+01
ITEM: ATOMS id type x y z c_pot
175 1 18.8693 9.43443 9.43475 -8.94776
2 1 1.57197 1.5721 1.57197 -8.94919
3 1 3.14464 1.15654e-15 -0.000220721 -8.9496
4 1 4.71687 1.57197 1.57184 -8.94959
174 1 15.7222 9.43651 9.43475 -8.94771
6 1 7.86192 1.57191 1.57177 -8.94946
191 1 4.70169 7.85439 11.0086 -8.95278
8 1 11.007 1.57186 1.57173 -8.94949
173 1 12.5713 9.43257 9.40667 -8.82821
10 1 14.1521 1.57184 1.5718 -8.94946
11 1 15.7244 1.72757e-15 -0.000268976 -8.94956
12 1 17.2972 1.57181 1.57182 -8.94935
172 1 9.38973 9.18475 9.38973 -7.71391
14 1 20.4415 1.57215 1.57222 -8.9495
15 1 -9.18476e-05 3.14454 -9.18476e-05 -8.94955
16 1 1.57194 4.71688 1.57194 -8.94996
171 1 6.27164 9.40565 9.41486 -8.89997
18 1 4.71588 4.71591 1.57051 -8.94916
19 1 6.28939 3.14424 -0.000496706 -8.9494
20 1 7.86147 4.71581 1.5706 -8.94893
170 1 3.13975 9.4338 9.43409 -8.95218
22 1 11.007 4.7156 1.57047 -8.94913
169 1 22.0124 9.43442 9.43423 -8.94936
24 1 14.1528 4.71538 1.57035 -8.94963
25 1 15.7247 3.14413 -0.000587724 -8.94964
26 1 17.2985 4.71548 1.57076 -8.94775
168 1 18.8702 6.28847 9.4345 -8.94934
28 1 20.442 4.7168 1.57199 -8.9496
167 1 15.7275 6.28671 9.43442 -8.94391
30 1 1.57207 7.86201 1.57207 -8.94937
31 1 3.14437 6.28944 6.5973e-05 -8.94998
32 1 4.71662 7.86225 1.57169 -8.95004
166 1 12.5788 6.29012 9.43302 -8.94964
34 1 7.86122 7.86128 1.56901 -8.95285
190 1 1.56773 7.86048 11.0067 -8.95115
36 1 11.0067 7.86048 1.56773 -8.95115
37 1 12.5796 6.28858 -0.00168375 -8.94976
38 1 14.1545 7.85963 1.56691 -8.9518
165 1 9.43219 6.30009 9.43219 -9.01283
40 1 17.2986 7.86115 1.57068 -8.94902
41 1 18.8697 6.28925 -0.0004084 -8.94947
42 1 20.4421 7.86185 1.57191 -8.94944
164 1 6.28084 6.2779 9.43429 -8.94907
44 1 3.14422 9.43442 0.000131528 -8.94959
163 1 3.13968 6.28596 9.43361 -8.94709
162 1 22.0125 6.28855 9.43417 -8.94964
161 1 18.8695 3.14413 9.43454 -8.94952
48 1 15.7257 9.43404 -0.00162537 -8.9493
160 1 15.7252 3.14342 9.43462 -8.94932
50 1 -0.000220721 1.10107e-15 3.14464 -8.9496
51 1 1.57184 1.57197 4.71687 -8.94959
52 1 3.14422 1.2622e-15 3.14422 -8.94955
53 1 4.71629 1.5712 4.71629 -8.95003
54 1 6.28937 3.13429e-16 3.14418 -8.94958
55 1 7.86186 1.57113 4.71634 -8.94971
56 1 9.43449 7.86635e-16 3.14408 -8.94954
57 1 11.0073 1.57104 4.71627 -8.94957
58 1 12.5797 9.97641e-16 3.14414 -8.94948
59 1 14.1526 1.5709 4.71663 -8.951
60 1 15.7248 1.3146e-15 3.14428 -8.95008
61 1 17.2971 1.5719 4.71713 -8.94974
62 1 18.8693 1.47843e-15 3.14471 -8.94969
63 1 20.4415 1.57218 4.71714 -8.94953
64 1 22.0134 3.1443 3.14435 -8.94943
65 1 1.57051 4.71591 4.71588 -8.94916
66 1 3.14339 3.1435 3.14339 -8.94812
67 1 4.71265 4.71272 4.71265 -8.94387
68 1 6.28882 3.1432 3.14334 -8.94953
69 1 7.86046 4.71259 4.71363 -8.94899
70 1 9.43435 3.14305 3.14329 -8.94931
71 1 11.0078 4.71236 4.7133 -8.94693
72 1 12.5799 3.14282 3.14334 -8.94901
73 1 14.1565 4.7101 4.71269 -8.94878
74 1 15.726 3.14241 3.14317 -8.94906
75 1 17.2987 4.71536 4.71629 -8.94986
76 1 18.8697 3.14411 3.1444 -8.94969
77 1 20.4416 4.71664 4.71688 -8.94996
78 1 6.5973e-05 6.28944 3.14437 -8.94998
79 1 1.57169 7.86225 4.71662 -8.95004
80 1 3.1435 6.28919 3.1435 -8.95096
81 1 4.71466 7.86204 4.71466 -8.95406
82 1 6.28601 6.28615 3.13908 -8.94901
83 1 7.85416 7.85299 4.70264 -8.95136
84 1 9.43361 6.28596 3.13968 -8.94709
85 1 11.0086 7.85439 4.70169 -8.95278
86 1 12.5814 6.28534 3.13891 -8.94925
87 1 14.1702 7.84513 4.69866 -8.92255
88 1 15.7302 6.28393 3.13895 -8.94262
89 1 17.3026 7.85946 4.71448 -8.9511
90 1 18.8711 6.2885 3.14365 -8.94973
91 1 20.4427 7.86169 4.71666 -8.95028
92 1 0.000131528 9.43442 3.14422 -8.94959
93 1 3.14384 9.43456 3.14384 -8.94875
94 1 6.28899 9.43553 3.14356 -8.94942
95 1 9.43409 9.4338 3.13975 -8.95218
96 1 12.5845 9.43169 3.13117 -8.95959
97 1 15.7297 9.43271 3.13953 -8.94684
98 1 18.8712 9.4341 3.14352 -8.94924
99 1 22.0136 -3.16124e-16 6.28954 -8.94952
100 1 1.57177 1.57191 7.86192 -8.94946
101 1 3.14418 8.80844e-16 6.28937 -8.94958
102 1 4.71634 1.57113 7.86186 -8.94971
103 1 6.28927 1.45047e-15 6.28927 -8.95075
104 1 7.8621 1.57072 7.8621 -8.95174
105 1 9.43472 1.50715e-15 6.28922 -8.95047
106 1 11.0069 1.57153 7.8624 -8.94996
107 1 12.5796 1.43291e-15 6.28965 -8.95098
108 1 14.1523 1.5716 7.86237 -8.9497
109 1 15.7247 1.34425e-15 6.28973 -8.94968
110 1 17.2972 1.57193 7.86211 -8.94944
111 1 18.8693 1.40274e-15 6.28963 -8.94949
112 1 20.4415 1.57212 7.86203 -8.94954
113 1 -0.000496706 3.14424 6.28939 -8.9494
114 1 1.5706 4.71581 7.86147 -8.94893
115 1 3.14334 3.1432 6.28882 -8.94953
116 1 4.71363 4.71259 7.86046 -8.94899
117 1 6.28797 3.14078 6.28797 -8.95164
118 1 7.86011 4.70844 7.86011 -8.96092
119 1 9.43482 3.14109 6.28806 -8.95059
120 1 11.0069 4.71383 7.86095 -8.95447
121 1 12.5802 3.14095 6.28891 -8.9537
122 1 14.1535 4.71436 7.86251 -8.94991
123 1 15.7252 3.14324 6.28966 -8.94982
124 1 17.2981 4.71584 7.86213 -8.94858
125 1 18.8695 3.14421 6.28959 -8.94936
126 1 20.4415 4.71646 7.8619 -8.94937
127 1 22.0128 6.28899 6.28906 -8.95059
128 1 1.56901 7.86128 7.86122 -8.95285
129 1 3.13908 6.28615 6.28601 -8.94901
130 1 4.70264 7.85299 7.85416 -8.95136
131 1 6.27577 6.27559 6.27577 -8.9262
132 1 7.82101 7.82034 7.82101 -8.83465
133 1 9.43429 6.2779 6.28084 -8.94907
134 1 11.034 7.84556 7.81947 -8.8744
135 1 12.5905 6.27264 6.27759 -8.95025
136 1 14.1638 7.85491 7.85867 -8.94798
137 1 15.7298 6.2854 6.28769 -8.95007
138 1 17.2999 7.86122 7.86294 -8.95209
139 1 18.8705 6.28883 6.28957 -8.9504
140 1 20.4416 7.86172 7.86209 -8.95037
141 1 22.014 9.43459 6.28921 -8.94982
142 1 3.14356 9.43553 6.28899 -8.94942
143 1 6.28771 9.43865 6.28771 -8.96308
144 1 9.41486 9.40565 6.27164 -8.89997
145 1 12.6342 9.38891 6.23598 -8.82304
146 1 15.7387 9.43109 6.28396 -8.95886
147 1 18.8725 9.43418 6.28913 -8.95216
148 1 22.0136 -8.28996e-16 9.43449 -8.94955
149 1 3.14408 1.44988e-15 9.43449 -8.94954
150 1 6.28922 1.80609e-15 9.43472 -8.95047
151 1 9.43471 1.4766e-15 9.43471 -8.94778
152 1 12.5796 1.43515e-15 9.43475 -8.94936
153 1 15.7247 4.23663e-16 9.43461 -8.94968
154 1 18.8693 -1.62621e-16 9.43454 -8.94957
155 1 -0.000553521 3.14412 9.43443 -8.94947
156 1 3.14329 3.14305 9.43435 -8.94931
157 1 6.28806 3.14109 9.43482 -8.95059
158 1 9.4346 3.1452 9.4346 -8.94464
159 1 12.5796 3.14413 9.43476 -8.94871
177 1 4.71627 1.57104 11.0073 -8.94957
180 1 14.1522 1.57176 11.0069 -8.94947
184 1 4.7133 4.71236 11.0078 -8.94693
187 1 14.153 4.71527 11.006 -8.94833
188 1 17.2979 4.71588 11.007 -8.94874
189 1 20.4414 4.7164 11.007 -8.94943
194 1 14.1582 7.85905 11.0024 -8.95072
21 1 9.43443 3.14412 -0.000553521 -8.94947
176 1 1.57173 1.57186 11.007 -8.94949
343 1 18.8696 9.43435 18.8696 -8.94945
178 1 7.8624 1.57153 11.0069 -8.94996
179 1 11.0068 1.57225 11.0068 -8.94881
342 1 15.7256 9.43405 18.8705 -8.94917
181 1 17.2971 1.57195 11.007 -8.94949
182 1 20.4414 1.57212 11.007 -8.94955
183 1 1.57047 4.7156 11.007 -8.94913
341 1 12.5795 9.4344 18.871 -8.95304
185 1 7.86095 4.71383 11.0069 -8.95447
186 1 11.0061 4.71815 11.0061 -8.94935
340 1 9.43475 9.43443 18.8693 -8.94776
339 1 6.28913 9.43418 18.8725 -8.95216
338 1 3.14352 9.4341 18.8712 -8.94924
337 1 22.0135 9.43437 18.8698 -8.94946
336 1 20.4416 7.86193 20.4416 -8.94953
192 1 7.81947 7.84556 11.034 -8.8744
193 1 11.0286 7.86573 11.0286 -8.90069
49 1 18.8698 9.43437 22.0135 -8.94946
195 1 17.2989 7.86103 11.006 -8.95012
196 1 20.441 7.86148 11.0067 -8.95013
197 1 22.0136 7.88555e-16 12.5795 -8.94954
198 1 1.5718 1.57184 14.1521 -8.94946
199 1 3.14414 1.18413e-15 12.5797 -8.94948
200 1 4.71663 1.5709 14.1526 -8.951
201 1 6.28965 1.44417e-15 12.5796 -8.95098
202 1 7.86237 1.5716 14.1523 -8.9497
203 1 9.43475 1.83364e-15 12.5796 -8.94936
204 1 11.0069 1.57176 14.1522 -8.94947
205 1 12.5794 -7.66945e-16 12.5794 -8.95083
206 1 14.1522 1.5712 14.1522 -8.95114
207 1 15.7246 4.88605e-16 12.5794 -8.94951
208 1 17.2969 1.57202 14.1519 -8.94963
209 1 18.8692 4.77033e-16 12.5795 -8.94951
210 1 20.4414 1.57216 14.1519 -8.94949
211 1 22.0133 3.14412 12.5795 -8.94939
212 1 1.57035 4.71538 14.1528 -8.94963
213 1 3.14334 3.14282 12.5799 -8.94901
214 1 4.71269 4.7101 14.1565 -8.94878
215 1 6.28891 3.14095 12.5802 -8.9537
216 1 7.86251 4.71436 14.1535 -8.94991
217 1 9.43476 3.14413 12.5796 -8.94871
218 1 11.006 4.71527 14.153 -8.94833
219 1 12.5794 3.14209 12.5794 -8.95429
220 1 14.1551 4.71085 14.1551 -8.95109
221 1 15.7249 3.14366 12.5793 -8.94942
222 1 17.2979 4.71585 14.1522 -8.95028
223 1 18.8694 3.14422 12.5795 -8.94931
224 1 20.4413 4.71654 14.152 -8.94967
225 1 -0.00168375 6.28858 12.5796 -8.94976
226 1 1.56691 7.85963 14.1545 -8.9518
227 1 3.13891 6.28534 12.5814 -8.94925
228 1 4.69866 7.84513 14.1702 -8.92255
229 1 6.27759 6.27264 12.5905 -8.95025
230 1 7.85867 7.85491 14.1638 -8.94798
231 1 9.43302 6.29012 12.5788 -8.94964
232 1 11.0024 7.85905 14.1582 -8.95072
233 1 12.586 6.27458 12.586 -8.96107
234 1 14.1722 7.8418 14.1722 -8.90985
235 1 15.7274 6.28701 12.5794 -8.95082
236 1 17.3019 7.85966 14.1541 -8.95298
237 1 18.8699 6.28884 12.5793 -8.94966
238 1 20.4413 7.86141 14.1524 -8.95119
239 1 22.011 9.43421 12.5798 -8.95218
240 1 3.13117 9.43169 12.5845 -8.95959
241 1 6.23598 9.38891 12.6342 -8.82304
242 1 9.40667 9.43257 12.5713 -8.82821
243 1 12.6411 9.37123 12.6411 -8.73584
244 1 15.7365 9.43223 12.5828 -8.96544
245 1 18.871 9.4344 12.5795 -8.95304
246 1 -0.000268976 1.5661e-15 15.7244 -8.94956
247 1 1.57182 1.57181 17.2972 -8.94935
248 1 3.14428 1.33358e-15 15.7248 -8.95008
249 1 4.71713 1.5719 17.2971 -8.94974
250 1 6.28973 1.63542e-15 15.7247 -8.94968
251 1 7.86211 1.57193 17.2972 -8.94944
252 1 9.43461 5.56633e-16 15.7247 -8.94968
253 1 11.007 1.57195 17.2971 -8.94949
254 1 12.5794 -1.57361e-16 15.7246 -8.94951
255 1 14.1519 1.57202 17.2969 -8.94963
256 1 15.7246 1.63577e-15 15.7246 -8.95022
257 1 17.2971 1.57182 17.2971 -8.94949
258 1 18.8692 1.6377e-15 15.7243 -8.94967
259 1 20.4414 1.57214 17.2968 -8.94966
260 1 -0.000587724 3.14413 15.7247 -8.94964
261 1 1.57076 4.71548 17.2985 -8.94775
262 1 3.14317 3.14241 15.726 -8.94906
263 1 4.71629 4.71536 17.2987 -8.94986
264 1 6.28966 3.14324 15.7252 -8.94982
265 1 7.86213 4.71584 17.2981 -8.94858
266 1 9.43462 3.14342 15.7252 -8.94932
267 1 11.007 4.71588 17.2979 -8.94874
268 1 12.5793 3.14366 15.7249 -8.94942
269 1 14.1522 4.71585 17.2979 -8.95028
270 1 15.7255 3.14258 15.7255 -8.94959
271 1 17.2984 4.71529 17.2984 -8.94725
272 1 18.8694 3.1442 15.7245 -8.94983
273 1 20.4415 4.71644 17.2974 -8.94951
274 1 22.0123 6.28839 15.7255 -8.9501
275 1 1.57068 7.86115 17.2986 -8.94902
276 1 3.13895 6.28393 15.7302 -8.94262
277 1 4.71448 7.85946 17.3026 -8.9511
278 1 6.28769 6.2854 15.7298 -8.95007
279 1 7.86294 7.86122 17.2999 -8.95209
280 1 9.43442 6.28671 15.7275 -8.94391
281 1 11.006 7.86103 17.2989 -8.95012
282 1 12.5794 6.28701 15.7274 -8.95082
283 1 14.1541 7.85966 17.3019 -8.95298
284 1 15.7304 6.28325 15.7304 -8.94016
285 1 17.2983 7.86119 17.2983 -8.9491
286 1 18.8706 6.28834 15.7254 -8.95022
287 1 20.4415 7.86167 17.2975 -8.94931
288 1 -0.00162537 9.43404 15.7257 -8.9493
289 1 3.13953 9.43271 15.7297 -8.94684
290 1 6.28396 9.43109 15.7387 -8.95886
291 1 9.43475 9.43651 15.7222 -8.94771
292 1 12.5828 9.43223 15.7365 -8.96544
293 1 15.7289 9.43291 15.7289 -8.94644
294 1 18.8705 9.43405 15.7256 -8.94917
295 1 22.0137 1.77412e-15 18.8693 -8.94931
296 1 1.57222 1.57215 20.4415 -8.9495
297 1 3.14471 1.33958e-15 18.8693 -8.94969
298 1 4.71714 1.57218 20.4415 -8.94953
299 1 6.28963 1.34944e-15 18.8693 -8.94949
300 1 7.86203 1.57212 20.4415 -8.94954
301 1 9.43454 -4.97052e-16 18.8693 -8.94957
302 1 11.007 1.57212 20.4414 -8.94955
303 1 12.5795 4.31404e-16 18.8692 -8.94951
304 1 14.1519 1.57216 20.4414 -8.94949
305 1 15.7243 1.69961e-15 18.8692 -8.94967
306 1 17.2968 1.57214 20.4414 -8.94966
307 1 18.8693 1.88653e-15 18.8693 -8.94942
308 1 20.4416 1.5722 20.4416 -8.94911
309 1 22.0136 3.14427 18.8696 -8.94907
310 1 1.57199 4.7168 20.442 -8.9496
311 1 3.1444 3.14411 18.8697 -8.94969
312 1 4.71688 4.71664 20.4416 -8.94996
313 1 6.28959 3.14421 18.8695 -8.94936
314 1 7.8619 4.71646 20.4415 -8.94937
315 1 9.43454 3.14413 18.8695 -8.94952
316 1 11.007 4.7164 20.4414 -8.94943
317 1 12.5795 3.14422 18.8694 -8.94931
318 1 14.152 4.71654 20.4413 -8.94967
319 1 15.7245 3.1442 18.8694 -8.94983
320 1 17.2974 4.71644 20.4415 -8.94951
321 1 18.8695 3.14418 18.8695 -8.94891
322 1 20.4416 4.71697 20.4416 -8.94959
323 1 -0.0004084 6.28925 18.8697 -8.94947
324 1 1.57191 7.86185 20.4421 -8.94944
325 1 3.14365 6.2885 18.8711 -8.94973
326 1 4.71666 7.86169 20.4427 -8.95028
327 1 6.28957 6.28883 18.8705 -8.9504
328 1 7.86209 7.86172 20.4416 -8.95037
329 1 9.4345 6.28847 18.8702 -8.94934
330 1 11.0067 7.86148 20.441 -8.95013
331 1 12.5793 6.28884 18.8699 -8.94966
332 1 14.1524 7.86141 20.4413 -8.95119
333 1 15.7254 6.28834 18.8706 -8.95022
334 1 17.2975 7.86167 20.4415 -8.94931
335 1 18.8696 6.28921 18.8696 -8.9495
1 1 22.0138 8.94871e-16 22.0138 -8.94933
5 1 6.28954 -2.60511e-16 22.0136 -8.94952
9 1 12.5795 1.12538e-15 22.0136 -8.94954
13 1 18.8693 1.71815e-15 22.0137 -8.94931
17 1 3.14435 3.1443 22.0134 -8.94943
47 1 12.5798 9.43421 22.011 -8.95218
23 1 12.5795 3.14412 22.0133 -8.94939
27 1 18.8696 3.14427 22.0136 -8.94907
29 1 22.0139 6.2895 22.0139 -8.94949
33 1 6.28906 6.28899 22.0128 -8.95059
39 1 15.7255 6.28839 22.0123 -8.9501
43 1 22.0138 9.43445 22.0138 -8.94954
45 1 6.28921 9.43459 22.014 -8.94982
46 1 9.43423 9.43442 22.0124 -8.94936
7 1 9.43449 -5.28443e-16 22.0136 -8.94955
35 1 9.43417 6.28855 22.0125 -8.94964
344 1 1.57201 11.007 1.57201 -8.94957
345 1 4.71634 11.007 1.5717 -8.94974
346 1 7.86156 11.007 1.57172 -8.94699
347 1 11.0071 11.007 1.56829 -8.94894
348 1 14.1551 11.007 1.5668 -8.94926
349 1 17.2987 11.007 1.57062 -8.94926
350 1 20.4421 11.007 1.57186 -8.94951
688 3 10.4361 11.007 9.39348 2.3623
352 1 1.57207 14.1519 1.57207 -8.94937
353 1 3.14422 12.5795 0.000131528 -8.94959
354 1 4.71662 14.1517 1.57169 -8.95004
687 3 9.39348 11.007 10.4361 2.3623
356 1 7.86122 14.1526 1.56901 -8.95285
511 1 18.8695 18.8698 9.43454 -8.94952
358 1 11.0067 14.1534 1.56773 -8.95115
510 1 15.7252 18.8705 9.43462 -8.94932
360 1 14.1545 14.1543 1.56691 -8.9518
361 1 15.7257 12.5799 -0.00162537 -8.9493
362 1 17.2986 14.1528 1.57068 -8.94902
509 1 12.5796 18.8698 9.43476 -8.94871
364 1 20.4421 14.1521 1.57191 -8.94944
508 1 9.4346 18.8687 9.4346 -8.94464
366 1 1.57194 17.297 1.57194 -8.94996
367 1 3.14437 15.7245 6.5973e-05 -8.94998
368 1 4.71588 17.298 1.57051 -8.94916
507 1 6.28806 18.8728 9.43482 -8.95059
370 1 7.86147 17.2981 1.5706 -8.94893
537 1 14.1522 20.4421 11.0069 -8.94947
372 1 11.007 17.2983 1.57047 -8.94913
373 1 12.5796 15.7253 -0.00168375 -8.94976
374 1 14.1528 17.2985 1.57035 -8.94963
506 1 3.14329 18.8709 9.43435 -8.94931
376 1 17.2985 17.2984 1.57076 -8.94775
377 1 18.8697 15.7246 -0.0004084 -8.94947
378 1 20.442 17.2971 1.57199 -8.9496
379 1 -9.18476e-05 18.8694 -9.18476e-05 -8.94955
380 1 1.57197 20.4418 1.57197 -8.94919
505 1 -0.000553521 18.8698 9.43443 -8.94947
382 1 4.71687 20.4419 1.57184 -8.94959
383 1 6.28939 18.8697 -0.000496706 -8.9494
384 1 7.86192 20.442 1.57177 -8.94946
504 1 18.8702 15.7254 9.4345 -8.94934
386 1 11.007 20.442 1.57173 -8.94949
503 1 15.7275 15.7272 9.43442 -8.94391
388 1 14.1521 20.4421 1.5718 -8.94946
389 1 15.7247 18.8698 -0.000587724 -8.94964
390 1 17.2972 20.4421 1.57182 -8.94935
502 1 12.5788 15.7238 9.43302 -8.94964
392 1 20.4415 20.4417 1.57222 -8.9495
393 1 1.5717 11.007 4.71634 -8.94974
394 1 4.71515 11.007 4.71515 -8.94522
395 1 7.86394 11.007 4.72004 -8.93429
396 1 11.0148 11.007 4.70692 -9.01614
397 1 14.1663 11.007 4.70202 -8.93955
398 1 17.3026 11.007 4.71404 -8.94874
399 1 20.4429 11.007 4.71645 -8.94999
400 1 0.000131528 12.5795 3.14422 -8.94959
401 1 1.57169 14.1517 4.71662 -8.95004
402 1 3.14384 12.5793 3.14384 -8.94875
403 1 4.71466 14.1519 4.71466 -8.95406
404 1 6.28899 12.5784 3.14356 -8.94942
405 1 7.85416 14.1609 4.70264 -8.95136
406 1 9.43409 12.5801 3.13975 -8.95218
407 1 11.0086 14.1595 4.70169 -8.95278
408 1 12.5845 12.5822 3.13117 -8.95959
409 1 14.1702 14.1688 4.69866 -8.92255
410 1 15.7297 12.5812 3.13953 -8.94684
411 1 17.3026 14.1544 4.71448 -8.9511
412 1 18.8712 12.5798 3.14352 -8.94924
413 1 20.4427 14.1522 4.71666 -8.95028
414 1 6.5973e-05 15.7245 3.14437 -8.94998
415 1 1.57051 17.298 4.71588 -8.94916
416 1 3.1435 15.7247 3.1435 -8.95096
417 1 4.71265 17.3012 4.71265 -8.94387
418 1 6.28601 15.7277 3.13908 -8.94901
419 1 7.86046 17.3013 4.71363 -8.94899
420 1 9.43361 15.7279 3.13968 -8.94709
421 1 11.0078 17.3015 4.7133 -8.94693
422 1 12.5814 15.7286 3.13891 -8.94925
423 1 14.1565 17.3038 4.71269 -8.94878
424 1 15.7302 15.73 3.13895 -8.94262
425 1 17.2987 17.2985 4.71629 -8.94986
426 1 18.8711 15.7254 3.14365 -8.94973
427 1 20.4416 17.2973 4.71688 -8.94996
428 1 22.0134 18.8696 3.14435 -8.94943
429 1 1.57184 20.4419 4.71687 -8.94959
430 1 3.14339 18.8704 3.14339 -8.94812
431 1 4.71629 20.4427 4.71629 -8.95003
432 1 6.28882 18.8707 3.14334 -8.94953
433 1 7.86186 20.4428 4.71634 -8.94971
434 1 9.43435 18.8709 3.14329 -8.94931
435 1 11.0073 20.4429 4.71627 -8.94957
436 1 12.5799 18.8711 3.14334 -8.94901
437 1 14.1526 20.443 4.71663 -8.951
438 1 15.726 18.8715 3.14317 -8.94906
439 1 17.2971 20.442 4.71713 -8.94974
440 1 18.8697 18.8698 3.1444 -8.94969
441 1 20.4415 20.4417 4.71714 -8.94953
442 1 1.57172 11.007 7.86156 -8.94699
443 1 4.72004 11.007 7.86394 -8.93429
444 1 7.89241 11.007 7.89241 -8.88102
445 1 11.0976 11.007 7.54862 -7.95549
446 1 14.1635 11.007 7.84643 -8.96561
447 1 17.3005 11.007 7.86204 -8.95087
448 1 20.4422 11.007 7.86207 -8.94953
449 1 22.014 12.5793 6.28921 -8.94982
450 1 1.56901 14.1526 7.86122 -8.95285
451 1 3.14356 12.5784 6.28899 -8.94942
452 1 4.70264 14.1609 7.85416 -8.95136
453 1 6.28771 12.5752 6.28771 -8.96308
454 1 7.82101 14.1936 7.82101 -8.83465
455 1 9.41486 12.6083 6.27164 -8.89997
456 1 11.034 14.1683 7.81947 -8.8744
457 1 12.6342 12.625 6.23598 -8.82304
458 1 14.1638 14.159 7.85867 -8.94798
459 1 15.7387 12.5828 6.28396 -8.95886
460 1 17.2999 14.1527 7.86294 -8.95209
461 1 18.8725 12.5797 6.28913 -8.95216
462 1 20.4416 14.1522 7.86209 -8.95037
463 1 22.0128 15.7249 6.28906 -8.95059
464 1 1.5706 17.2981 7.86147 -8.94893
465 1 3.13908 15.7277 6.28601 -8.94901
466 1 4.71363 17.3013 7.86046 -8.94899
467 1 6.27577 15.7383 6.27577 -8.9262
468 1 7.86011 17.3055 7.86011 -8.96092
469 1 9.43429 15.736 6.28084 -8.94907
470 1 11.0069 17.3001 7.86095 -8.95447
471 1 12.5905 15.7413 6.27759 -8.95025
472 1 14.1535 17.2995 7.86251 -8.94991
473 1 15.7298 15.7285 6.28769 -8.95007
474 1 17.2981 17.2981 7.86213 -8.94858
475 1 18.8705 15.7251 6.28957 -8.9504
476 1 20.4415 17.2974 7.8619 -8.94937
477 1 -0.000496706 18.8697 6.28939 -8.9494
478 1 1.57177 20.442 7.86192 -8.94946
479 1 3.14334 18.8707 6.28882 -8.94953
480 1 4.71634 20.4428 7.86186 -8.94971
481 1 6.28797 18.8731 6.28797 -8.95164
482 1 7.8621 20.4432 7.8621 -8.95174
483 1 9.43482 18.8728 6.28806 -8.95059
484 1 11.0069 20.4424 7.8624 -8.94996
485 1 12.5802 18.873 6.28891 -8.9537
486 1 14.1523 20.4423 7.86237 -8.9497
487 1 15.7252 18.8707 6.28966 -8.94982
488 1 17.2972 20.442 7.86211 -8.94944
489 1 18.8695 18.8697 6.28959 -8.94936
490 1 20.4415 20.4418 7.86203 -8.94954
491 1 22.0124 12.5795 9.43423 -8.94936
492 1 3.13975 12.5801 9.43409 -8.95218
493 1 6.27164 12.6083 9.41486 -8.89997
494 1 9.38973 12.8292 9.38973 -7.71391
495 1 12.5713 12.5813 9.40667 -8.82821
496 1 15.7222 12.5774 9.43475 -8.94771
497 1 18.8693 12.5795 9.43475 -8.94776
498 1 22.0125 15.7253 9.43417 -8.94964
499 1 3.13968 15.7279 9.43361 -8.94709
500 1 6.28084 15.736 9.43429 -8.94907
501 1 9.43219 15.7138 9.43219 -9.01283
512 1 1.56829 11.007 11.0071 -8.94894
517 1 17.2964 11.007 11.0065 -8.94389
519 1 1.56773 14.1534 11.0067 -8.95115
520 1 4.70169 14.1595 11.0086 -8.95278
527 1 4.7133 17.3015 11.0078 -8.94693
530 1 14.153 17.2986 11.006 -8.94833
531 1 17.2979 17.298 11.007 -8.94874
532 1 20.4414 17.2975 11.007 -8.94943
534 1 4.71627 20.4429 11.0073 -8.94957
518 1 20.4407 11.007 11.0066 -8.94854
523 1 14.1582 14.1549 11.0024 -8.95072
385 1 9.43443 18.8698 -0.000553521 -8.94947
686 1 20.4416 20.4417 20.4416 -8.94911
513 1 4.70692 11.007 11.0148 -9.01614
514 1 7.54862 11.007 11.0976 -7.95549
515 1 11.2599 11.007 11.2599 -7.37911
516 1 14.1407 11.007 11.0169 -9.00829
685 1 18.8695 18.8697 18.8695 -8.94891
391 1 18.8696 18.8696 22.0136 -8.94907
684 1 17.2968 20.4418 20.4414 -8.94966
683 1 15.7245 18.8697 18.8694 -8.94983
521 1 7.81947 14.1683 11.034 -8.8744
522 1 11.0286 14.1482 11.0286 -8.90069
387 1 12.5795 18.8698 22.0133 -8.94939
524 1 17.2989 14.1529 11.006 -8.95012
525 1 20.441 14.1524 11.0067 -8.95013
526 1 1.57047 17.2983 11.007 -8.94913
682 1 14.1519 20.4417 20.4414 -8.94949
528 1 7.86095 17.3001 11.0069 -8.95447
529 1 11.0061 17.2958 11.0061 -8.94935
681 1 12.5795 18.8697 18.8694 -8.94931
680 1 11.007 20.4418 20.4414 -8.94955
679 1 9.43454 18.8698 18.8695 -8.94952
533 1 1.57173 20.442 11.007 -8.94949
678 1 7.86203 20.4418 20.4415 -8.94954
535 1 7.8624 20.4424 11.0069 -8.94996
536 1 11.0068 20.4417 11.0068 -8.94881
677 1 6.28959 18.8697 18.8695 -8.94936
538 1 17.2971 20.4419 11.007 -8.94949
539 1 20.4414 20.4418 11.007 -8.94955
540 1 1.5668 11.007 14.1551 -8.94926
541 1 4.70202 11.007 14.1663 -8.93955
542 1 7.84643 11.007 14.1635 -8.96561
543 1 11.0169 11.007 14.1407 -9.00829
544 1 14.1647 11.007 14.1647 -8.93895
545 1 17.3016 11.007 14.1548 -8.94877
546 1 20.4413 11.007 14.1528 -8.95046
547 1 22.011 12.5797 12.5798 -8.95218
548 1 1.56691 14.1543 14.1545 -8.9518
549 1 3.13117 12.5822 12.5845 -8.95959
550 1 4.69866 14.1688 14.1702 -8.92255
551 1 6.23598 12.625 12.6342 -8.82304
552 1 7.85867 14.159 14.1638 -8.94798
553 1 9.40667 12.5813 12.5713 -8.82821
554 1 11.0024 14.1549 14.1582 -8.95072
555 1 12.6411 12.6427 12.6411 -8.73584
556 1 14.1722 14.1721 14.1722 -8.90985
557 1 15.7365 12.5817 12.5828 -8.96544
558 1 17.3019 14.1542 14.1541 -8.95298
559 1 18.871 12.5795 12.5795 -8.95304
560 1 20.4413 14.1525 14.1524 -8.95119
561 1 -0.00168375 15.7253 12.5796 -8.94976
562 1 1.57035 17.2985 14.1528 -8.94963
563 1 3.13891 15.7286 12.5814 -8.94925
564 1 4.71269 17.3038 14.1565 -8.94878
565 1 6.27759 15.7413 12.5905 -8.95025
566 1 7.86251 17.2995 14.1535 -8.94991
567 1 9.43302 15.7238 12.5788 -8.94964
568 1 11.006 17.2986 14.153 -8.94833
569 1 12.586 15.7393 12.586 -8.96107
570 1 14.1551 17.303 14.1551 -8.95109
571 1 15.7274 15.7269 12.5794 -8.95082
572 1 17.2979 17.2981 14.1522 -8.95028
573 1 18.8699 15.7251 12.5793 -8.94966
574 1 20.4413 17.2974 14.152 -8.94967
575 1 22.0133 18.8698 12.5795 -8.94939
576 1 1.5718 20.4421 14.1521 -8.94946
577 1 3.14334 18.8711 12.5799 -8.94901
578 1 4.71663 20.443 14.1526 -8.951
579 1 6.28891 18.873 12.5802 -8.9537
580 1 7.86237 20.4423 14.1523 -8.9497
581 1 9.43476 18.8698 12.5796 -8.94871
582 1 11.0069 20.4421 14.1522 -8.94947
583 1 12.5794 18.8718 12.5794 -8.95429
584 1 14.1522 20.4427 14.1522 -8.95114
585 1 15.7249 18.8702 12.5793 -8.94942
586 1 17.2969 20.4419 14.1519 -8.94963
587 1 18.8694 18.8697 12.5795 -8.94931
588 1 20.4414 20.4417 14.1519 -8.94949
589 1 1.57062 11.007 17.2987 -8.94926
590 1 4.71404 11.007 17.3026 -8.94874
591 1 7.86204 11.007 17.3005 -8.95087
592 1 11.0065 11.007 17.2964 -8.94389
593 1 14.1548 11.007 17.3016 -8.94877
594 1 17.2984 11.007 17.2984 -8.94939
595 1 20.4415 11.007 17.2976 -8.94945
596 1 -0.00162537 12.5799 15.7257 -8.9493
597 1 1.57068 14.1528 17.2986 -8.94902
598 1 3.13953 12.5812 15.7297 -8.94684
599 1 4.71448 14.1544 17.3026 -8.9511
600 1 6.28396 12.5828 15.7387 -8.95886
601 1 7.86294 14.1527 17.2999 -8.95209
602 1 9.43475 12.5774 15.7222 -8.94771
603 1 11.006 14.1529 17.2989 -8.95012
604 1 12.5828 12.5817 15.7365 -8.96544
605 1 14.1541 14.1542 17.3019 -8.95298
606 1 15.7289 12.581 15.7289 -8.94644
607 1 17.2983 14.1527 17.2983 -8.9491
608 1 18.8705 12.5798 15.7256 -8.94917
609 1 20.4415 14.1522 17.2975 -8.94931
610 1 22.0123 15.7255 15.7255 -8.9501
611 1 1.57076 17.2984 17.2985 -8.94775
612 1 3.13895 15.73 15.7302 -8.94262
613 1 4.71629 17.2985 17.2987 -8.94986
614 1 6.28769 15.7285 15.7298 -8.95007
615 1 7.86213 17.2981 17.2981 -8.94858
616 1 9.43442 15.7272 15.7275 -8.94391
617 1 11.007 17.298 17.2979 -8.94874
618 1 12.5794 15.7269 15.7274 -8.95082
619 1 14.1522 17.2981 17.2979 -8.95028
620 1 15.7304 15.7307 15.7304 -8.94016
621 1 17.2984 17.2986 17.2984 -8.94725
622 1 18.8706 15.7256 15.7254 -8.95022
623 1 20.4415 17.2975 17.2974 -8.94951
624 1 -0.000587724 18.8698 15.7247 -8.94964
625 1 1.57182 20.4421 17.2972 -8.94935
626 1 3.14317 18.8715 15.726 -8.94906
627 1 4.71713 20.442 17.2971 -8.94974
628 1 6.28966 18.8707 15.7252 -8.94982
629 1 7.86211 20.442 17.2972 -8.94944
630 1 9.43462 18.8705 15.7252 -8.94932
631 1 11.007 20.4419 17.2971 -8.94949
632 1 12.5793 18.8702 15.7249 -8.94942
633 1 14.1519 20.4419 17.2969 -8.94963
634 1 15.7255 18.8713 15.7255 -8.94959
635 1 17.2971 20.4421 17.2971 -8.94949
636 1 18.8694 18.8697 15.7245 -8.94983
637 1 20.4414 20.4418 17.2968 -8.94966
638 1 1.57186 11.007 20.4421 -8.94951
639 1 4.71645 11.007 20.4429 -8.94999
640 1 7.86207 11.007 20.4422 -8.94953
641 1 11.0066 11.007 20.4407 -8.94854
642 1 14.1528 11.007 20.4413 -8.95046
643 1 17.2976 11.007 20.4415 -8.94945
644 1 20.4416 11.007 20.4416 -8.94955
645 1 22.0135 12.5795 18.8698 -8.94946
646 1 1.57191 14.1521 20.4421 -8.94944
647 1 3.14352 12.5798 18.8712 -8.94924
648 1 4.71666 14.1522 20.4427 -8.95028
649 1 6.28913 12.5797 18.8725 -8.95216
650 1 7.86209 14.1522 20.4416 -8.95037
651 1 9.43475 12.5795 18.8693 -8.94776
652 1 11.0067 14.1524 20.441 -8.95013
653 1 12.5795 12.5795 18.871 -8.95304
654 1 14.1524 14.1525 20.4413 -8.95119
655 1 15.7256 12.5798 18.8705 -8.94917
656 1 17.2975 14.1522 20.4415 -8.94931
657 1 18.8696 12.5796 18.8696 -8.94945
658 1 20.4416 14.152 20.4416 -8.94953
659 1 -0.0004084 15.7246 18.8697 -8.94947
660 1 1.57199 17.2971 20.442 -8.9496
661 1 3.14365 15.7254 18.8711 -8.94973
662 1 4.71688 17.2973 20.4416 -8.94996
663 1 6.28957 15.7251 18.8705 -8.9504
664 1 7.8619 17.2974 20.4415 -8.94937
665 1 9.4345 15.7254 18.8702 -8.94934
666 1 11.007 17.2975 20.4414 -8.94943
667 1 12.5793 15.7251 18.8699 -8.94966
668 1 14.152 17.2974 20.4413 -8.94967
669 1 15.7254 15.7256 18.8706 -8.95022
670 1 17.2974 17.2975 20.4415 -8.94951
671 1 18.8696 15.7247 18.8696 -8.9495
672 1 20.4416 17.2969 20.4416 -8.94959
673 1 22.0136 18.8696 18.8696 -8.94907
674 1 1.57222 20.4417 20.4415 -8.9495
675 1 3.1444 18.8698 18.8697 -8.94969
676 1 4.71714 20.4417 20.4415 -8.94953
351 1 22.0138 12.5794 22.0138 -8.94954
355 1 6.28921 12.5793 22.014 -8.94982
357 1 9.43423 12.5795 22.0124 -8.94936
359 1 12.5798 12.5797 22.011 -8.95218
363 1 18.8698 12.5795 22.0135 -8.94946
365 1 22.0139 15.7244 22.0139 -8.94949
369 1 6.28906 15.7249 22.0128 -8.95059
375 1 15.7255 15.7255 22.0123 -8.9501
381 1 3.14435 18.8696 22.0134 -8.94943
371 1 9.43417 15.7253 22.0125 -8.94964
