ITEM: TIMESTEP
104
ITEM: NUMBER OF ATOMS
688
ITEM: BOX BOUNDS pp pp pp
0.0000000000000000e+00 2.2013900999999997e+01
0.0000000000000000e+00 2.2013900999999997e+01
0.0000000000000000e+00 2.2013900999999997e+01
ITEM: ATOMS id type x y z c_pot
175 1 18.8687 9.43441 9.43444 -8.94755
2 1 1.57163 1.5718 1.57163 -8.94911
3 1 3.14431 1.24409e-15 -0.000454548 -8.94948
4 1 4.7164 1.57161 1.57133 -8.9495
174 1 15.7212 9.43679 9.43364 -8.94756
6 1 7.86168 1.57153 1.57122 -8.94937
191 1 4.69917 7.85334 11.0095 -8.95247
8 1 11.0071 1.57145 1.57114 -8.94941
173 1 12.5704 9.43411 9.40474 -8.81599
10 1 14.1525 1.57135 1.5712 -8.94939
11 1 15.7247 1.85178e-15 -0.000657972 -8.94945
12 1 17.2978 1.57133 1.57133 -8.94929
172 1 9.39034 9.19396 9.39034 -7.74032
14 1 20.4417 1.5718 1.57195 -8.94934
15 1 -0.000150649 3.14403 -0.000150649 -8.94944
16 1 1.57165 4.71635 1.57165 -8.95004
171 1 6.26863 9.40403 9.41359 -8.89734
18 1 4.71526 4.71519 1.56989 -8.94906
19 1 6.28906 3.14368 -0.000865514 -8.94931
20 1 7.8611 4.71495 1.56977 -8.94887
170 1 3.13816 9.43312 9.43432 -8.95235
22 1 11.0072 4.71464 1.56937 -8.94907
169 1 22.0117 9.43421 9.43432 -8.94935
24 1 14.1537 4.71419 1.56914 -8.94953
25 1 15.7252 3.14334 -0.0011306 -8.94956
26 1 17.2995 4.71438 1.56993 -8.94769
168 1 18.8701 6.28803 9.43423 -8.94935
28 1 20.4424 4.71617 1.57165 -8.94956
167 1 15.7277 6.28642 9.43346 -8.94347
30 1 1.57204 7.86177 1.57204 -8.94937
31 1 3.14404 6.28901 0.000226133 -8.95007
32 1 4.71638 7.86196 1.57162 -8.95013
166 1 12.5784 6.29157 9.43199 -8.94966
34 1 7.86103 7.86064 1.56823 -8.95283
190 1 1.56617 7.85969 11.0072 -8.95118
36 1 11.0072 7.85969 1.56617 -8.95118
37 1 12.58 6.28778 -0.00272707 -8.94981
38 1 14.1559 7.85863 1.56511 -8.95175
165 1 9.43208 6.30284 9.43208 -9.01132
40 1 17.3 7.86027 1.56956 -8.94888
41 1 18.8705 6.28853 -0.000724961 -8.9493
42 1 20.4427 7.86144 1.57157 -8.94937
164 1 6.27929 6.2771 9.43409 -8.94937
44 1 3.14399 9.4343 0.000596001 -8.94961
163 1 3.13819 6.28477 9.4336 -8.947
162 1 22.0117 6.28791 9.43409 -8.94966
161 1 18.8695 3.14367 9.43446 -8.94941
48 1 15.7269 9.43359 -0.00261728 -8.94929
160 1 15.7253 3.14315 9.43438 -8.94926
50 1 -0.000454548 8.39367e-16 3.14431 -8.94948
51 1 1.57133 1.57161 4.7164 -8.9495
52 1 3.14372 2.10008e-16 3.14372 -8.9495
53 1 4.71578 1.57079 4.71578 -8.95004
54 1 6.28899 8.04306e-16 3.14363 -8.94958
55 1 7.86163 1.57069 4.71583 -8.94984
56 1 9.43446 9.70831e-16 3.14354 -8.94954
57 1 11.0074 1.57065 4.71579 -8.94965
58 1 12.5799 1.22793e-15 3.14363 -8.9495
59 1 14.1529 1.57044 4.71628 -8.95115
60 1 15.7253 1.86492e-15 3.14388 -8.95019
61 1 17.2975 1.57147 4.71688 -8.94978
62 1 18.8695 1.47454e-15 3.14442 -8.94966
63 1 20.4414 1.57186 4.71689 -8.94944
64 1 22.0133 3.14378 3.14395 -8.94935
65 1 1.56989 4.71519 4.71526 -8.94906
66 1 3.14278 3.1429 3.14278 -8.94814
67 1 4.7119 4.71186 4.7119 -8.944
68 1 6.28822 3.14236 3.14256 -8.94949
69 1 7.85991 4.71138 4.71257 -8.94904
70 1 9.43426 3.14222 3.14244 -8.94926
71 1 11.0082 4.71137 4.71188 -8.94689
72 1 12.5805 3.14189 3.14241 -8.94898
73 1 14.1575 4.70895 4.71141 -8.94885
74 1 15.7268 3.14138 3.14238 -8.94911
75 1 17.2997 4.71431 4.7155 -8.9499
76 1 18.8702 3.14338 3.14394 -8.94965
77 1 20.4418 4.71603 4.7165 -8.95005
78 1 0.000226133 6.28901 3.14404 -8.95007
79 1 1.57162 7.86196 4.71638 -8.95013
80 1 3.14302 6.28866 3.14302 -8.95125
81 1 4.71431 7.86151 4.71431 -8.95467
82 1 6.28526 6.28506 3.13811 -8.94866
83 1 7.85346 7.8514 4.70128 -8.95014
84 1 9.4336 6.28477 3.13819 -8.947
85 1 11.0095 7.85334 4.69917 -8.95247
86 1 12.5826 6.28402 3.13693 -8.94912
87 1 14.1718 7.84428 4.69628 -8.92324
88 1 15.7318 6.28255 3.13736 -8.94271
89 1 17.3041 7.85861 4.71316 -8.95099
90 1 18.8722 6.28767 3.14294 -8.94969
91 1 20.4434 7.86134 4.71627 -8.95036
92 1 0.000596001 9.4343 3.14399 -8.94961
93 1 3.14383 9.43444 3.14383 -8.94876
94 1 6.28901 9.43521 3.14347 -8.94918
95 1 9.43432 9.43312 3.13816 -8.95235
96 1 12.5861 9.43107 3.1286 -8.95934
97 1 15.7317 9.43203 3.13737 -8.94674
98 1 18.8725 9.43374 3.14266 -8.9492
99 1 22.0133 9.43897e-16 6.28929 -8.94941
100 1 1.57122 1.57153 7.86168 -8.94937
101 1 3.14363 1.0549e-15 6.28899 -8.94958
102 1 4.71583 1.57069 7.86163 -8.94984
103 1 6.28902 9.72067e-16 6.28902 -8.9508
104 1 7.86199 1.57072 7.86199 -8.95174
105 1 9.43471 1.37339e-15 6.28904 -8.95061
106 1 11.0068 1.57177 7.86233 -8.94986
107 1 12.5796 1.77188e-15 6.2896 -8.95103
108 1 14.1523 1.57154 7.86235 -8.94975
109 1 15.7249 8.4137e-16 6.28971 -8.94976
110 1 17.2973 1.57166 7.86206 -8.94935
111 1 18.8694 2.23183e-16 6.28952 -8.94939
112 1 20.4413 1.57183 7.86191 -8.94943
113 1 -0.000865514 3.14368 6.28906 -8.94931
114 1 1.56977 4.71495 7.8611 -8.94887
115 1 3.14256 3.14236 6.28822 -8.94949
116 1 4.71257 4.71138 7.85991 -8.94904
117 1 6.2875 3.14015 6.2875 -8.95166
118 1 7.8598 4.70855 7.8598 -8.96114
119 1 9.43474 3.1407 6.28747 -8.95084
120 1 11.0068 4.71467 7.86014 -8.95454
121 1 12.5804 3.14067 6.28836 -8.95376
122 1 14.1536 4.71428 7.86172 -8.95007
123 1 15.7257 3.14261 6.2893 -8.94993
124 1 17.2984 4.71527 7.86173 -8.94839
125 1 18.8697 3.14367 6.28937 -8.94925
126 1 20.4413 4.71587 7.86169 -8.94933
127 1 22.0125 6.28847 6.28874 -8.95066
128 1 1.56823 7.86064 7.86103 -8.95283
129 1 3.13811 6.28506 6.28526 -8.94866
130 1 4.70128 7.8514 7.85346 -8.95014
131 1 6.27535 6.27489 6.27535 -8.92684
132 1 7.8218 7.82076 7.8218 -8.83939
133 1 9.43409 6.2771 6.27929 -8.94937
134 1 11.0327 7.84702 7.81797 -8.87744
135 1 12.591 6.27246 6.2757 -8.95049
136 1 14.1639 7.85492 7.85635 -8.94823
137 1 15.7309 6.2845 6.28627 -8.95016
138 1 17.3 7.86104 7.86219 -8.95221
139 1 18.871 6.28831 6.28915 -8.95055
140 1 20.4414 7.86147 7.86193 -8.9504
141 1 22.0142 9.43446 6.2891 -8.94978
142 1 3.14347 9.43521 6.28901 -8.94918
143 1 6.28806 9.43856 6.28806 -8.96508
144 1 9.41359 9.40403 6.26863 -8.89734
145 1 12.6341 9.38969 6.23333 -8.82638
146 1 15.7397 9.43073 6.28167 -8.95859
147 1 18.8733 9.43399 6.28848 -8.9522
148 1 22.0132 8.96765e-17 9.43444 -8.94945
149 1 3.14354 1.66486e-15 9.43446 -8.94954
150 1 6.28904 1.40873e-15 9.43471 -8.95061
151 1 9.43464 1.50837e-15 9.43464 -8.94739
152 1 12.5794 1.51818e-15 9.43475 -8.94916
153 1 15.7248 -4.65849e-17 9.4346 -8.94966
154 1 18.8693 -4.17632e-16 9.43454 -8.94947
155 1 -0.00105025 3.14353 9.43434 -8.94937
156 1 3.14244 3.14222 9.43426 -8.94926
157 1 6.28747 3.1407 9.43474 -8.95084
158 1 9.43438 3.14626 9.43438 -8.94413
159 1 12.5793 3.14479 9.43447 -8.94856
177 1 4.71579 1.57065 11.0074 -8.94965
180 1 14.1521 1.57174 11.0067 -8.94951
184 1 4.71188 4.71137 11.0082 -8.94689
187 1 14.1531 4.71516 11.0055 -8.94829
188 1 17.298 4.71539 11.0068 -8.94865
189 1 20.441 4.71577 11.007 -8.94939
194 1 14.1591 7.85846 11.0015 -8.94946
21 1 9.43434 3.14353 -0.00105025 -8.94937
176 1 1.57114 1.57145 11.0071 -8.94941
343 1 18.8702 9.43403 18.8702 -8.9493
178 1 7.86233 1.57177 11.0068 -8.94986
179 1 11.0066 1.57272 11.0066 -8.9485
342 1 15.7265 9.43363 18.871 -8.94911
181 1 17.2971 1.57172 11.007 -8.94943
182 1 20.4412 1.57181 11.007 -8.94944
183 1 1.56937 4.71464 11.0072 -8.94907
341 1 12.5797 9.43422 18.871 -8.95362
185 1 7.86014 4.71467 11.0068 -8.95454
186 1 11.0057 4.71974 11.0057 -8.94877
340 1 9.43444 9.43441 18.8687 -8.94755
339 1 6.28848 9.43399 18.8733 -8.9522
338 1 3.14266 9.43374 18.8725 -8.9492
337 1 22.0131 9.43407 18.8707 -8.94932
336 1 20.4419 7.86148 20.4419 -8.94936
192 1 7.81797 7.84702 11.0327 -8.87744
193 1 11.0292 7.86882 11.0292 -8.90188
49 1 18.8707 9.43407 22.0131 -8.94932
195 1 17.2988 7.86073 11.0056 -8.95028
196 1 20.4404 7.86112 11.0067 -8.95023
197 1 22.0132 1.43242e-15 12.5796 -8.94942
198 1 1.5712 1.57135 14.1525 -8.94939
199 1 3.14363 1.19955e-15 12.5799 -8.9495
200 1 4.71628 1.57044 14.1529 -8.95115
201 1 6.2896 1.78145e-15 12.5796 -8.95103
202 1 7.86235 1.57154 14.1523 -8.94975
203 1 9.43475 1.4023e-15 12.5794 -8.94916
204 1 11.0067 1.57174 14.1521 -8.94951
205 1 12.5791 -5.18605e-17 12.5791 -8.9511
206 1 14.1522 1.57079 14.1522 -8.95154
207 1 15.7246 -6.44785e-17 12.5793 -8.94956
208 1 17.297 1.57165 14.1519 -8.94965
209 1 18.8692 1.25081e-15 12.5795 -8.94942
210 1 20.4412 1.57181 14.1521 -8.94939
211 1 22.0127 3.14344 12.5798 -8.94927
212 1 1.56914 4.71419 14.1537 -8.94953
213 1 3.14241 3.14189 12.5805 -8.94898
214 1 4.71141 4.70895 14.1575 -8.94885
215 1 6.28836 3.14067 12.5804 -8.95376
216 1 7.86172 4.71428 14.1536 -8.95007
217 1 9.43447 3.14479 12.5793 -8.94856
218 1 11.0055 4.71516 14.1531 -8.94829
219 1 12.5793 3.1419 12.5793 -8.95498
220 1 14.1558 4.70932 14.1558 -8.95154
221 1 15.725 3.14315 12.5792 -8.94946
222 1 17.2984 4.71487 14.1526 -8.95035
223 1 18.8693 3.14371 12.5795 -8.94922
224 1 20.4409 4.71575 14.1524 -8.94969
225 1 -0.00272707 6.28778 12.58 -8.94981
226 1 1.56511 7.85863 14.1559 -8.95175
227 1 3.13693 6.28402 12.5826 -8.94912
228 1 4.69628 7.84428 14.1718 -8.92324
229 1 6.2757 6.27246 12.591 -8.95049
230 1 7.85635 7.85492 14.1639 -8.94823
231 1 9.43199 6.29157 12.5784 -8.94966
232 1 11.0015 7.85846 14.1591 -8.94946
233 1 12.5866 6.27295 12.5866 -8.96277
234 1 14.1759 7.83809 14.1759 -8.90401
235 1 15.7282 6.28597 12.5796 -8.95071
236 1 17.3033 7.85857 14.1551 -8.95339
237 1 18.8698 6.28824 12.5794 -8.94974
238 1 20.4409 7.86081 14.153 -8.9515
239 1 22.0097 9.4339 12.5804 -8.9524
240 1 3.1286 9.43107 12.5861 -8.95934
241 1 6.23333 9.38969 12.6341 -8.82638
242 1 9.40474 9.43411 12.5704 -8.81599
243 1 12.6479 9.36371 12.6479 -8.7145
244 1 15.7386 9.43135 12.584 -8.96621
245 1 18.871 9.43422 12.5797 -8.95362
246 1 -0.000657972 1.43774e-15 15.7247 -8.94945
247 1 1.57133 1.57133 17.2978 -8.94929
248 1 3.14388 1.08697e-15 15.7253 -8.95019
249 1 4.71688 1.57147 17.2975 -8.94978
250 1 6.28971 9.86221e-16 15.7249 -8.94976
251 1 7.86206 1.57166 17.2973 -8.94935
252 1 9.4346 1.6037e-17 15.7248 -8.94966
253 1 11.007 1.57172 17.2971 -8.94943
254 1 12.5793 5.4232e-16 15.7246 -8.94956
255 1 14.1519 1.57165 17.297 -8.94965
256 1 15.7248 1.76609e-15 15.7248 -8.95047
257 1 17.2975 1.57132 17.2975 -8.94946
258 1 18.8692 1.56389e-15 15.7245 -8.94966
259 1 20.4414 1.57172 17.2972 -8.94956
260 1 -0.0011306 3.14334 15.7252 -8.94956
261 1 1.56993 4.71438 17.2995 -8.94769
262 1 3.14238 3.14138 15.7268 -8.94911
263 1 4.7155 4.71431 17.2997 -8.9499
264 1 6.2893 3.14261 15.7257 -8.94993
265 1 7.86173 4.71527 17.2984 -8.94839
266 1 9.43438 3.14315 15.7253 -8.94926
267 1 11.0068 4.71539 17.298 -8.94865
268 1 12.5792 3.14315 15.725 -8.94946
269 1 14.1526 4.71487 17.2984 -8.95035
270 1 15.7261 3.1415 15.7261 -8.94973
271 1 17.2992 4.71398 17.2992 -8.94671
272 1 18.8696 3.14344 15.7248 -8.94984
273 1 20.4415 4.71552 17.2981 -8.94942
274 1 22.0115 6.28738 15.7265 -8.95012
275 1 1.56956 7.86027 17.3 -8.94888
276 1 3.13736 6.28255 15.7318 -8.94271
277 1 4.71316 7.85861 17.3041 -8.95099
278 1 6.28627 6.2845 15.7309 -8.95016
279 1 7.86219 7.86104 17.3 -8.95221
280 1 9.43346 6.28642 15.7277 -8.94347
281 1 11.0056 7.86073 17.2988 -8.95028
282 1 12.5796 6.28597 15.7282 -8.95071
283 1 14.1551 7.85857 17.3033 -8.95339
284 1 15.7322 6.28112 15.7322 -8.93851
285 1 17.2992 7.8603 17.2992 -8.94893
286 1 18.8711 6.28729 15.7262 -8.95031
287 1 20.4414 7.86102 17.2983 -8.9492
288 1 -0.00261728 9.43359 15.7269 -8.94929
289 1 3.13737 9.43203 15.7317 -8.94674
290 1 6.28167 9.43073 15.7397 -8.95859
291 1 9.43364 9.43679 15.7212 -8.94756
292 1 12.584 9.43135 15.7386 -8.96621
293 1 15.7306 9.43221 15.7306 -8.94605
294 1 18.871 9.43363 15.7265 -8.94911
295 1 22.0135 1.8053e-15 18.8696 -8.9491
296 1 1.57195 1.5718 20.4417 -8.94934
297 1 3.14442 1.53266e-15 18.8695 -8.94966
298 1 4.71689 1.57186 20.4414 -8.94944
299 1 6.28952 1.1435e-15 18.8694 -8.94939
300 1 7.86191 1.57183 20.4413 -8.94943
301 1 9.43454 7.31771e-16 18.8693 -8.94947
302 1 11.007 1.57181 20.4412 -8.94944
303 1 12.5795 1.25053e-15 18.8692 -8.94942
304 1 14.1521 1.57181 20.4412 -8.94939
305 1 15.7245 1.86569e-15 18.8692 -8.94966
306 1 17.2972 1.57172 20.4414 -8.94956
307 1 18.8695 1.76486e-15 18.8695 -8.94923
308 1 20.4417 1.57183 20.4417 -8.94879
309 1 22.0133 3.14358 18.8701 -8.94888
310 1 1.57165 4.71617 20.4424 -8.94956
311 1 3.14394 3.14338 18.8702 -8.94965
312 1 4.7165 4.71603 20.4418 -8.95005
313 1 6.28937 3.14367 18.8697 -8.94925
314 1 7.86169 4.71587 20.4413 -8.94933
315 1 9.43446 3.14367 18.8695 -8.94941
316 1 11.007 4.71577 20.441 -8.94939
317 1 12.5795 3.14371 18.8693 -8.94922
318 1 14.1524 4.71575 20.4409 -8.94969
319 1 15.7248 3.14344 18.8696 -8.94984
320 1 17.2981 4.71552 20.4415 -8.94942
321 1 18.8699 3.1434 18.8699 -8.9486
322 1 20.4418 4.71631 20.4418 -8.94941
323 1 -0.000724961 6.28853 18.8705 -8.9493
324 1 1.57157 7.86144 20.4427 -8.94937
325 1 3.14294 6.28767 18.8722 -8.94969
326 1 4.71627 7.86134 20.4434 -8.95036
327 1 6.28915 6.28831 18.871 -8.95055
328 1 7.86193 7.86147 20.4414 -8.9504
329 1 9.43423 6.28803 18.8701 -8.94935
330 1 11.0067 7.86112 20.4404 -8.95023
331 1 12.5794 6.28824 18.8698 -8.94974
332 1 14.153 7.86081 20.4409 -8.9515
333 1 15.7262 6.28729 18.8711 -8.95031
334 1 17.2983 7.86102 20.4414 -8.9492
335 1 18.8701 6.28841 18.8701 -8.94936
1 1 22.0137 1.07612e-15 22.0137 -8.9491
5 1 6.28929 6.51203e-16 22.0133 -8.94941
9 1 12.5796 1.46358e-15 22.0132 -8.94942
13 1 18.8696 1.79955e-15 22.0135 -8.9491
17 1 3.14395 3.14378 22.0133 -8.94935
47 1 12.5804 9.4339 22.0097 -8.9524
23 1 12.5798 3.14344 22.0127 -8.94927
27 1 18.8701 3.14358 22.0133 -8.94888
29 1 22.0139 6.28904 22.0139 -8.94942
33 1 6.28874 6.28847 22.0125 -8.95066
39 1 15.7265 6.28738 22.0115 -8.95012
43 1 22.014 9.43428 22.014 -8.94946
45 1 6.2891 9.43446 22.0142 -8.94978
46 1 9.43432 9.43421 22.0117 -8.94935
7 1 9.43444 1.17776e-17 22.0132 -8.94945
35 1 9.43409 6.28791 22.0117 -8.94966
344 1 1.5721 11.007 1.5721 -8.94952
345 1 4.71633 11.007 1.57198 -8.9498
346 1 7.86169 11.007 1.57143 -8.94673
347 1 11.0078 11.007 1.56675 -8.94911
348 1 14.1567 11.007 1.56477 -8.94934
349 1 17.3002 11.007 1.56942 -8.94915
350 1 20.4428 11.007 1.57151 -8.94944
688 3 10.4712 11.007 9.41498 2.33457
352 1 1.57204 14.1521 1.57204 -8.94937
353 1 3.14399 12.5796 0.000596001 -8.94961
354 1 4.71638 14.1519 1.57162 -8.95013
687 3 9.41498 11.007 10.4712 2.33457
356 1 7.86103 14.1533 1.56823 -8.95283
511 1 18.8695 18.8702 9.43446 -8.94941
358 1 11.0072 14.1542 1.56617 -8.95118
510 1 15.7253 18.8707 9.43438 -8.94926
360 1 14.1559 14.1553 1.56511 -8.95175
361 1 15.7269 12.5803 -0.00261728 -8.94929
362 1 17.3 14.1536 1.56956 -8.94888
509 1 12.5793 18.8691 9.43447 -8.94856
364 1 20.4427 14.1525 1.57157 -8.94937
508 1 9.43438 18.8676 9.43438 -8.94413
366 1 1.57165 17.2975 1.57165 -8.95004
367 1 3.14404 15.7249 0.000226133 -8.95007
368 1 4.71526 17.2987 1.56989 -8.94906
507 1 6.28747 18.8732 9.43474 -8.95084
370 1 7.8611 17.299 1.56977 -8.94887
537 1 14.1521 20.4422 11.0067 -8.94951
372 1 11.0072 17.2993 1.56937 -8.94907
373 1 12.58 15.7261 -0.00272707 -8.94981
374 1 14.1537 17.2997 1.56914 -8.94953
506 1 3.14244 18.8717 9.43426 -8.94926
376 1 17.2995 17.2995 1.56993 -8.94769
377 1 18.8705 15.7254 -0.000724961 -8.9493
378 1 20.4424 17.2977 1.57165 -8.94956
379 1 -0.000150649 18.8699 -0.000150649 -8.94944
380 1 1.57163 20.4421 1.57163 -8.94911
505 1 -0.00105025 18.8704 9.43434 -8.94937
382 1 4.7164 20.4423 1.57133 -8.9495
383 1 6.28906 18.8702 -0.000865514 -8.94931
384 1 7.86168 20.4424 1.57122 -8.94937
504 1 18.8701 15.7259 9.43423 -8.94935
386 1 11.0071 20.4424 1.57114 -8.94941
503 1 15.7277 15.7275 9.43346 -8.94347
388 1 14.1525 20.4426 1.5712 -8.94939
389 1 15.7252 18.8706 -0.0011306 -8.94956
390 1 17.2978 20.4426 1.57133 -8.94929
502 1 12.5784 15.7223 9.43199 -8.94966
392 1 20.4417 20.4421 1.57195 -8.94934
393 1 1.57198 11.007 4.71633 -8.9498
394 1 4.71525 11.007 4.71525 -8.94553
395 1 7.86394 11.007 4.71953 -8.93215
396 1 11.0154 11.007 4.70385 -9.01613
397 1 14.1682 11.007 4.69879 -8.93961
398 1 17.3043 11.007 4.71244 -8.94868
399 1 20.4438 11.007 4.71603 -8.95005
400 1 0.000596001 12.5796 3.14399 -8.94961
401 1 1.57162 14.1519 4.71638 -8.95013
402 1 3.14383 12.5795 3.14383 -8.94876
403 1 4.71431 14.1524 4.71431 -8.95467
404 1 6.28901 12.5787 3.14347 -8.94918
405 1 7.85346 14.1625 4.70128 -8.95014
406 1 9.43432 12.5808 3.13816 -8.95235
407 1 11.0095 14.1606 4.69917 -8.95247
408 1 12.5861 12.5828 3.1286 -8.95934
409 1 14.1718 14.1696 4.69628 -8.92324
410 1 15.7317 12.5819 3.13737 -8.94674
411 1 17.3041 14.1553 4.71316 -8.95099
412 1 18.8725 12.5802 3.14266 -8.9492
413 1 20.4434 14.1526 4.71627 -8.95036
414 1 0.000226133 15.7249 3.14404 -8.95007
415 1 1.56989 17.2987 4.71526 -8.94906
416 1 3.14302 15.7252 3.14302 -8.95125
417 1 4.7119 17.302 4.7119 -8.944
418 1 6.28526 15.7288 3.13811 -8.94866
419 1 7.85991 17.3025 4.71257 -8.94904
420 1 9.4336 15.7291 3.13819 -8.947
421 1 11.0082 17.3025 4.71188 -8.94689
422 1 12.5826 15.7299 3.13693 -8.94912
423 1 14.1575 17.3049 4.71141 -8.94885
424 1 15.7318 15.7314 3.13736 -8.94271
425 1 17.2997 17.2996 4.7155 -8.9499
426 1 18.8722 15.7262 3.14294 -8.94969
427 1 20.4418 17.2979 4.7165 -8.95005
428 1 22.0133 18.8701 3.14395 -8.94935
429 1 1.57133 20.4423 4.7164 -8.9495
430 1 3.14278 18.871 3.14278 -8.94814
431 1 4.71578 20.4431 4.71578 -8.95004
432 1 6.28822 18.8715 3.14256 -8.94949
433 1 7.86163 20.4432 4.71583 -8.94984
434 1 9.43426 18.8717 3.14244 -8.94926
435 1 11.0074 20.4433 4.71579 -8.94965
436 1 12.5805 18.872 3.14241 -8.94898
437 1 14.1529 20.4435 4.71628 -8.95115
438 1 15.7268 18.8725 3.14238 -8.94911
439 1 17.2975 20.4424 4.71688 -8.94978
440 1 18.8702 18.8705 3.14394 -8.94965
441 1 20.4414 20.442 4.71689 -8.94944
442 1 1.57143 11.007 7.86169 -8.94673
443 1 4.71953 11.007 7.86394 -8.93215
444 1 7.89587 11.007 7.89587 -8.89595
445 1 11.091 11.007 7.54545 -7.97837
446 1 14.1628 11.007 7.84338 -8.96336
447 1 17.3004 11.007 7.86093 -8.95075
448 1 20.4421 11.007 7.8619 -8.94941
449 1 22.0142 12.5794 6.2891 -8.94978
450 1 1.56823 14.1533 7.86103 -8.95283
451 1 3.14347 12.5787 6.28901 -8.94918
452 1 4.70128 14.1625 7.85346 -8.95014
453 1 6.28806 12.5753 6.28806 -8.96508
454 1 7.8218 14.1931 7.8218 -8.83939
455 1 9.41359 12.6099 6.26863 -8.89734
456 1 11.0327 14.1669 7.81797 -8.87744
457 1 12.6341 12.6242 6.23333 -8.82638
458 1 14.1639 14.159 7.85635 -8.94823
459 1 15.7397 12.5832 6.28167 -8.95859
460 1 17.3 14.1529 7.86219 -8.95221
461 1 18.8733 12.5799 6.28848 -8.9522
462 1 20.4414 14.1524 7.86193 -8.9504
463 1 22.0125 15.7254 6.28874 -8.95066
464 1 1.56977 17.299 7.8611 -8.94887
465 1 3.13811 15.7288 6.28526 -8.94866
466 1 4.71257 17.3025 7.85991 -8.94904
467 1 6.27535 15.739 6.27535 -8.92684
468 1 7.8598 17.3053 7.8598 -8.96114
469 1 9.43409 15.7368 6.27929 -8.94937
470 1 11.0068 17.2992 7.86014 -8.95454
471 1 12.591 15.7414 6.2757 -8.95049
472 1 14.1536 17.2996 7.86172 -8.95007
473 1 15.7309 15.7294 6.28627 -8.95016
474 1 17.2984 17.2986 7.86173 -8.94839
475 1 18.871 15.7256 6.28915 -8.95055
476 1 20.4413 17.298 7.86169 -8.94933
477 1 -0.000865514 18.8702 6.28906 -8.94931
478 1 1.57122 20.4424 7.86168 -8.94937
479 1 3.14256 18.8715 6.28822 -8.94949
480 1 4.71583 20.4432 7.86163 -8.94984
481 1 6.2875 18.8738 6.2875 -8.95166
482 1 7.86199 20.4432 7.86199 -8.95174
483 1 9.43474 18.8732 6.28747 -8.95084
484 1 11.0068 20.4421 7.86233 -8.94986
485 1 12.5804 18.8732 6.28836 -8.95376
486 1 14.1523 20.4424 7.86235 -8.94975
487 1 15.7257 18.8713 6.2893 -8.94993
488 1 17.2973 20.4422 7.86206 -8.94935
489 1 18.8697 18.8702 6.28937 -8.94925
490 1 20.4413 20.4421 7.86191 -8.94943
491 1 22.0117 12.5797 9.43432 -8.94935
492 1 3.13816 12.5808 9.43432 -8.95235
493 1 6.26863 12.6099 9.41359 -8.89734
494 1 9.39034 12.8199 9.39034 -7.74032
495 1 12.5704 12.5798 9.40474 -8.81599
496 1 15.7212 12.5771 9.43364 -8.94756
497 1 18.8687 12.5795 9.43444 -8.94755
498 1 22.0117 15.726 9.43409 -8.94966
499 1 3.13819 15.7291 9.4336 -8.947
500 1 6.27929 15.7368 9.43409 -8.94937
501 1 9.43208 15.7111 9.43208 -9.01132
512 1 1.56675 11.007 11.0078 -8.94911
517 1 17.2959 11.007 11.0063 -8.94408
519 1 1.56617 14.1542 11.0072 -8.95118
520 1 4.69917 14.1606 11.0095 -8.95247
527 1 4.71188 17.3025 11.0082 -8.94689
530 1 14.1531 17.2987 11.0055 -8.94829
531 1 17.298 17.2985 11.0068 -8.94865
532 1 20.441 17.2981 11.007 -8.94939
534 1 4.71579 20.4433 11.0074 -8.94965
518 1 20.4399 11.007 11.0066 -8.94845
523 1 14.1591 14.1554 11.0015 -8.94946
385 1 9.43434 18.8704 -0.00105025 -8.94937
686 1 20.4417 20.4421 20.4417 -8.94879
513 1 4.70385 11.007 11.0154 -9.01613
514 1 7.54545 11.007 11.091 -7.97837
515 1 11.2782 11.007 11.2782 -7.32647
516 1 14.1416 11.007 11.0187 -9.01201
685 1 18.8699 18.8705 18.8699 -8.9486
391 1 18.8701 18.8703 22.0133 -8.94888
684 1 17.2972 20.4422 20.4414 -8.94956
683 1 15.7248 18.8705 18.8696 -8.94984
521 1 7.81797 14.1669 11.0327 -8.87744
522 1 11.0292 14.1451 11.0292 -8.90188
387 1 12.5798 18.8705 22.0127 -8.94927
524 1 17.2988 14.1532 11.0056 -8.95028
525 1 20.4404 14.1528 11.0067 -8.95023
526 1 1.56937 17.2993 11.0072 -8.94907
682 1 14.1521 20.4421 20.4412 -8.94939
528 1 7.86014 17.2992 11.0068 -8.95454
529 1 11.0057 17.2942 11.0057 -8.94877
681 1 12.5795 18.8702 18.8693 -8.94922
680 1 11.007 20.4421 20.4412 -8.94944
679 1 9.43446 18.8702 18.8695 -8.94941
533 1 1.57114 20.4424 11.0071 -8.94941
678 1 7.86191 20.4421 20.4413 -8.94943
535 1 7.86233 20.4421 11.0068 -8.94986
536 1 11.0066 20.4412 11.0066 -8.9485
677 1 6.28937 18.8702 18.8697 -8.94925
538 1 17.2971 20.4422 11.007 -8.94943
539 1 20.4412 20.4421 11.007 -8.94944
540 1 1.56477 11.007 14.1567 -8.94934
541 1 4.69879 11.007 14.1682 -8.93961
542 1 7.84338 11.007 14.1628 -8.96336
543 1 11.0187 11.007 14.1416 -9.01201
544 1 14.1669 11.007 14.1669 -8.93787
545 1 17.3027 11.007 14.1559 -8.94853
546 1 20.4408 11.007 14.1535 -8.95067
547 1 22.0097 12.58 12.5804 -8.9524
548 1 1.56511 14.1553 14.1559 -8.95175
549 1 3.1286 12.5828 12.5861 -8.95934
550 1 4.69628 14.1696 14.1718 -8.92324
551 1 6.23333 12.6242 12.6341 -8.82638
552 1 7.85635 14.159 14.1639 -8.94823
553 1 9.40474 12.5798 12.5704 -8.81599
554 1 11.0015 14.1554 14.1591 -8.94946
555 1 12.6479 12.6502 12.6479 -8.7145
556 1 14.1759 14.1758 14.1759 -8.90401
557 1 15.7386 12.5826 12.584 -8.96621
558 1 17.3033 14.1553 14.1551 -8.95339
559 1 18.871 12.5797 12.5797 -8.95362
560 1 20.4409 14.1531 14.153 -8.9515
561 1 -0.00272707 15.7261 12.58 -8.94981
562 1 1.56914 17.2997 14.1537 -8.94953
563 1 3.13693 15.7299 12.5826 -8.94912
564 1 4.71141 17.3049 14.1575 -8.94885
565 1 6.2757 15.7414 12.591 -8.95049
566 1 7.86172 17.2996 14.1536 -8.95007
567 1 9.43199 15.7223 12.5784 -8.94966
568 1 11.0055 17.2987 14.1531 -8.94829
569 1 12.5866 15.741 12.5866 -8.96277
570 1 14.1558 17.3046 14.1558 -8.95154
571 1 15.7282 15.7279 12.5796 -8.95071
572 1 17.2984 17.299 14.1526 -8.95035
573 1 18.8698 15.7257 12.5794 -8.94974
574 1 20.4409 17.2982 14.1524 -8.94969
575 1 22.0127 18.8705 12.5798 -8.94927
576 1 1.5712 20.4426 14.1525 -8.94939
577 1 3.14241 18.872 12.5805 -8.94898
578 1 4.71628 20.4435 14.1529 -8.95115
579 1 6.28836 18.8732 12.5804 -8.95376
580 1 7.86235 20.4424 14.1523 -8.94975
581 1 9.43447 18.8691 12.5793 -8.94856
582 1 11.0067 20.4422 14.1521 -8.94951
583 1 12.5793 18.872 12.5793 -8.95498
584 1 14.1522 20.4431 14.1522 -8.95154
585 1 15.725 18.8707 12.5792 -8.94946
586 1 17.297 20.4423 14.1519 -8.94965
587 1 18.8693 18.8702 12.5795 -8.94922
588 1 20.4412 20.4421 14.1521 -8.94939
589 1 1.56942 11.007 17.3002 -8.94915
590 1 4.71244 11.007 17.3043 -8.94868
591 1 7.86093 11.007 17.3004 -8.95075
592 1 11.0063 11.007 17.2959 -8.94408
593 1 14.1559 11.007 17.3027 -8.94853
594 1 17.2993 11.007 17.2993 -8.94921
595 1 20.4414 11.007 17.2984 -8.94937
596 1 -0.00261728 12.5803 15.7269 -8.94929
597 1 1.56956 14.1536 17.3 -8.94888
598 1 3.13737 12.5819 15.7317 -8.94674
599 1 4.71316 14.1553 17.3041 -8.95099
600 1 6.28167 12.5832 15.7397 -8.95859
601 1 7.86219 14.1529 17.3 -8.95221
602 1 9.43364 12.5771 15.7212 -8.94756
603 1 11.0056 14.1532 17.2988 -8.95028
604 1 12.584 12.5826 15.7386 -8.96621
605 1 14.1551 14.1553 17.3033 -8.95339
606 1 15.7306 12.5817 15.7306 -8.94605
607 1 17.2992 14.1536 17.2992 -8.94893
608 1 18.871 12.5803 15.7265 -8.94911
609 1 20.4414 14.1529 17.2983 -8.9492
610 1 22.0115 15.7265 15.7265 -8.95012
611 1 1.56993 17.2995 17.2995 -8.94769
612 1 3.13736 15.7314 15.7318 -8.94271
613 1 4.7155 17.2996 17.2997 -8.9499
614 1 6.28627 15.7294 15.7309 -8.95016
615 1 7.86173 17.2986 17.2984 -8.94839
616 1 9.43346 15.7275 15.7277 -8.94347
617 1 11.0068 17.2985 17.298 -8.94865
618 1 12.5796 15.7279 15.7282 -8.95071
619 1 14.1526 17.299 17.2984 -8.95035
620 1 15.7322 15.7328 15.7322 -8.93851
621 1 17.2992 17.2999 17.2992 -8.94671
622 1 18.8711 15.7266 15.7262 -8.95031
623 1 20.4415 17.2984 17.2981 -8.94942
624 1 -0.0011306 18.8706 15.7252 -8.94956
625 1 1.57133 20.4426 17.2978 -8.94929
626 1 3.14238 18.8725 15.7268 -8.94911
627 1 4.71688 20.4424 17.2975 -8.94978
628 1 6.2893 18.8713 15.7257 -8.94993
629 1 7.86206 20.4422 17.2973 -8.94935
630 1 9.43438 18.8707 15.7253 -8.94926
631 1 11.007 20.4422 17.2971 -8.94943
632 1 12.5792 18.8707 15.725 -8.94946
633 1 14.1519 20.4423 17.297 -8.94965
634 1 15.7261 18.8724 15.7261 -8.94973
635 1 17.2975 20.4426 17.2975 -8.94946
636 1 18.8696 18.8705 15.7248 -8.94984
637 1 20.4414 20.4422 17.2972 -8.94956
638 1 1.57151 11.007 20.4428 -8.94944
639 1 4.71603 11.007 20.4438 -8.95005
640 1 7.8619 11.007 20.4421 -8.94941
641 1 11.0066 11.007 20.4399 -8.94845
642 1 14.1535 11.007 20.4408 -8.95067
643 1 17.2984 11.007 20.4414 -8.94937
644 1 20.4419 11.007 20.4419 -8.9494
645 1 22.0131 12.5798 18.8707 -8.94932
646 1 1.57157 14.1525 20.4427 -8.94937
647 1 3.14266 12.5802 18.8725 -8.9492
648 1 4.71627 14.1526 20.4434 -8.95036
649 1 6.28848 12.5799 18.8733 -8.9522
650 1 7.86193 14.1524 20.4414 -8.9504
651 1 9.43444 12.5795 18.8687 -8.94755
652 1 11.0067 14.1528 20.4404 -8.95023
653 1 12.5797 12.5797 18.871 -8.95362
654 1 14.153 14.1531 20.4409 -8.9515
655 1 15.7265 12.5803 18.871 -8.94911
656 1 17.2983 14.1529 20.4414 -8.9492
657 1 18.8702 12.5799 18.8702 -8.9493
658 1 20.4419 14.1524 20.4419 -8.94936
659 1 -0.000724961 15.7254 18.8705 -8.9493
660 1 1.57165 17.2977 20.4424 -8.94956
661 1 3.14294 15.7262 18.8722 -8.94969
662 1 4.7165 17.2979 20.4418 -8.95005
663 1 6.28915 15.7256 18.871 -8.95055
664 1 7.86169 17.298 20.4413 -8.94933
665 1 9.43423 15.7259 18.8701 -8.94935
666 1 11.007 17.2981 20.441 -8.94939
667 1 12.5794 15.7257 18.8698 -8.94974
668 1 14.1524 17.2982 20.4409 -8.94969
669 1 15.7262 15.7266 18.8711 -8.95031
670 1 17.2981 17.2984 20.4415 -8.94942
671 1 18.8701 15.7255 18.8701 -8.94936
672 1 20.4418 17.2976 20.4418 -8.94941
673 1 22.0133 18.8703 18.8701 -8.94888
674 1 1.57195 20.4421 20.4417 -8.94934
675 1 3.14394 18.8705 18.8702 -8.94965
676 1 4.71689 20.442 20.4414 -8.94944
351 1 22.014 12.5796 22.014 -8.94946
355 1 6.2891 12.5794 22.0142 -8.94978
357 1 9.43432 12.5797 22.0117 -8.94935
359 1 12.5804 12.58 22.0097 -8.9524
363 1 18.8707 12.5798 22.0131 -8.94932
365 1 22.0139 15.7249 22.0139 -8.94942
369 1 6.28874 15.7254 22.0125 -8.95066
375 1 15.7265 15.7265 22.0115 -8.95012
381 1 3.14395 18.8701 22.0133 -8.94935
371 1 9.43409 15.726 22.0117 -8.94966
