ITEM: TIMESTEP
45
ITEM: NUMBER OF ATOMS
688
ITEM: BOX BOUNDS pp pp pp
0.0000000000000000e+00 2.2013900999999997e+01
0.0000000000000000e+00 2.2013900999999997e+01
0.0000000000000000e+00 2.2013900999999997e+01
ITEM: ATOMS id type x y z c_pot
175 1 18.8696 9.43435 9.43463 -8.94876
2 1 1.57235 1.57237 1.57235 -8.94945
3 1 3.14484 1.57987e-15 -1.26374e-05 -8.94967
4 1 4.71724 1.57236 1.57236 -8.9497
174 1 15.7245 9.43513 9.43526 -8.94731
6 1 7.86209 1.57235 1.57234 -8.94961
191 1 4.7073 7.85745 11.0069 -8.95333
8 1 11.007 1.57234 1.57233 -8.94963
173 1 12.5742 9.43118 9.41512 -8.84532
10 1 14.1518 1.57235 1.57235 -8.94961
11 1 15.7242 1.40549e-15 -1.19232e-05 -8.94965
12 1 17.2967 1.57233 1.57233 -8.94951
172 1 9.38807 9.17638 9.38807 -7.67331
14 1 20.4415 1.5724 1.57241 -8.94962
15 1 -5.73163e-06 3.14483 -5.73163e-06 -8.94963
16 1 1.57236 4.71723 1.57236 -8.94976
171 1 6.27622 9.41177 9.41819 -8.90796
18 1 4.71687 4.71688 1.57179 -8.94941
19 1 6.28967 3.14477 -6.85917e-05 -8.94958
20 1 7.862 4.7169 1.57192 -8.94924
170 1 3.14156 9.4345 9.43405 -8.95164
22 1 11.007 4.71686 1.57191 -8.94942
169 1 22.0133 9.43449 9.43439 -8.94975
24 1 14.152 4.71689 1.57194 -8.94983
25 1 15.7242 3.14478 -7.3497e-05 -8.9497
26 1 17.2971 4.71685 1.57201 -8.94863
168 1 18.8695 6.28928 9.43452 -8.94943
28 1 20.4416 4.71722 1.57237 -8.94962
167 1 15.7261 6.28789 9.43469 -8.94552
30 1 1.57235 7.86209 1.57235 -8.94953
31 1 3.14478 6.28967 1.23049e-05 -8.94974
32 1 4.71708 7.8622 1.57215 -8.94978
166 1 12.5792 6.28858 9.43447 -8.94995
34 1 7.86175 7.86181 1.57061 -8.95207
190 1 1.5703 7.86144 11.0066 -8.95062
36 1 11.0066 7.86144 1.5703 -8.95062
37 1 12.5794 6.28944 -0.000427091 -8.94967
38 1 14.1527 7.86119 1.57008 -8.95132
165 1 9.43252 6.29426 9.43252 -9.01254
40 1 17.297 7.86198 1.57209 -8.94954
41 1 18.8691 6.28967 -4.25415e-05 -8.94967
42 1 20.4415 7.86209 1.57236 -8.94959
164 1 6.28431 6.28173 9.43485 -8.94921
44 1 3.14473 9.43451 -2.71444e-05 -8.94961
163 1 3.14247 6.28807 9.43415 -8.94761
162 1 22.0135 6.28937 9.43444 -8.94961
161 1 18.8691 3.14474 9.43453 -8.94965
48 1 15.7245 9.43444 -0.000388223 -8.94942
160 1 15.7246 3.14432 9.43455 -8.94948
50 1 -1.26374e-05 1.42479e-15 3.14484 -8.94967
51 1 1.57236 1.57236 4.71724 -8.9497
52 1 3.14473 1.62048e-15 3.14473 -8.94958
53 1 4.71698 1.57198 4.71698 -8.94984
54 1 6.28967 7.94011e-16 3.14475 -8.9496
55 1 7.86208 1.57203 4.71702 -8.94955
56 1 9.43452 9.61612e-16 3.14473 -8.94961
57 1 11.007 1.57196 4.71696 -8.94952
58 1 12.5794 4.71891e-16 3.14473 -8.94955
59 1 14.152 1.57192 4.71705 -8.95025
60 1 15.7243 1.77114e-15 3.14474 -8.94974
61 1 17.2967 1.57236 4.71727 -8.94969
62 1 18.8691 1.5572e-15 3.14484 -8.94967
63 1 20.4415 1.57241 4.71726 -8.94963
64 1 22.0138 3.14477 3.14477 -8.94956
65 1 1.57179 4.71688 4.71687 -8.94941
66 1 3.14441 3.14442 3.14441 -8.94861
67 1 4.71481 4.71484 4.71481 -8.94456
68 1 6.28956 3.14445 3.14451 -8.94973
69 1 7.86168 4.71533 4.71577 -8.94921
70 1 9.43449 3.14436 3.14444 -8.94951
71 1 11.0072 4.71504 4.71558 -8.94763
72 1 12.5794 3.14435 3.14448 -8.94933
73 1 14.154 4.71374 4.71513 -8.94861
74 1 15.7247 3.14415 3.14437 -8.94918
75 1 17.2971 4.71686 4.71707 -8.94986
76 1 18.8691 3.14476 3.1448 -8.94969
77 1 20.4415 4.71718 4.71721 -8.94973
78 1 1.23049e-05 6.28967 3.14478 -8.94974
79 1 1.57215 7.8622 4.71708 -8.94978
80 1 3.1445 6.28962 3.1445 -8.95025
81 1 4.71598 7.86235 4.71598 -8.95232
82 1 6.28802 6.28809 3.14186 -8.94957
83 1 7.8569 7.85682 4.7065 -8.95324
84 1 9.43415 6.28807 3.14247 -8.94761
85 1 11.0069 7.85745 4.7073 -8.95333
86 1 12.5799 6.28805 3.14245 -8.94974
87 1 14.1641 7.85023 4.70499 -8.92393
88 1 15.7267 6.2872 3.14231 -8.94424
89 1 17.2991 7.86107 4.7162 -8.95088
90 1 18.8696 6.28942 3.14456 -8.94969
91 1 20.4418 7.86201 4.71713 -8.94998
92 1 -2.71444e-05 9.43451 3.14473 -8.94961
93 1 3.14443 9.43451 3.14443 -8.94907
94 1 6.28918 9.43524 3.14386 -8.94962
95 1 9.43405 9.4345 3.14156 -8.95164
96 1 12.5816 9.43306 3.13635 -8.95894
97 1 15.7261 9.43397 3.14296 -8.9479
98 1 18.8695 9.43445 3.14455 -8.94941
99 1 22.0139 6.52083e-17 6.28968 -8.94963
100 1 1.57234 1.57235 7.86209 -8.94961
101 1 3.14475 5.22953e-16 6.28967 -8.9496
102 1 4.71702 1.57203 7.86208 -8.94955
103 1 6.28955 9.71486e-16 6.28955 -8.95039
104 1 7.86211 1.57139 7.86211 -8.9514
105 1 9.43459 1.54071e-15 6.2895 -8.95008
106 1 11.007 1.57178 7.86217 -8.9502
107 1 12.5795 1.46239e-15 6.28963 -8.95048
108 1 14.152 1.57212 7.86218 -8.94962
109 1 15.7243 1.76664e-15 6.2897 -8.94962
110 1 17.2967 1.57234 7.8621 -8.94958
111 1 18.8691 1.54621e-15 6.28968 -8.94962
112 1 20.4415 1.5724 7.8621 -8.94964
113 1 -6.85917e-05 3.14477 6.28967 -8.94958
114 1 1.57192 4.7169 7.862 -8.94924
115 1 3.14451 3.14445 6.28956 -8.94973
116 1 4.71577 4.71533 7.86168 -8.94921
117 1 6.28885 3.14264 6.28885 -8.95131
118 1 7.8608 4.71012 7.8608 -8.9596
119 1 9.43477 3.14289 6.28891 -8.94992
120 1 11.0072 4.71371 7.86167 -8.95379
121 1 12.5798 3.14269 6.28931 -8.95264
122 1 14.1526 4.71576 7.86269 -8.94968
123 1 15.7245 3.14446 6.28976 -8.94974
124 1 17.2971 4.71686 7.86211 -8.94915
125 1 18.8691 3.14477 6.28968 -8.94957
126 1 20.4415 4.71714 7.86207 -8.94954
127 1 22.0135 6.2895 6.28951 -8.95012
128 1 1.57061 7.86181 7.86175 -8.95207
129 1 3.14186 6.28809 6.28802 -8.94957
130 1 4.7065 7.85682 7.8569 -8.95324
131 1 6.27866 6.27878 6.27866 -8.92671
132 1 7.82182 7.82317 7.82182 -8.83018
133 1 9.43485 6.28173 6.28431 -8.94921
134 1 11.0335 7.84509 7.82637 -8.87253
135 1 12.5873 6.27659 6.28189 -8.94969
136 1 14.1608 7.85698 7.86196 -8.94834
137 1 15.7267 6.28794 6.28913 -8.95019
138 1 17.2985 7.86156 7.86261 -8.95115
139 1 18.8695 6.28946 6.28966 -8.94991
140 1 20.4415 7.86197 7.86209 -8.95014
141 1 22.0138 9.43456 6.28952 -8.94981
142 1 3.14386 9.43524 6.28918 -8.94962
143 1 6.28724 9.43841 6.28724 -8.95884
144 1 9.41819 9.41177 6.27622 -8.90796
145 1 12.6286 9.39158 6.2445 -8.81905
146 1 15.7338 9.43251 6.2871 -8.95871
147 1 18.8706 9.4344 6.2895 -8.95149
148 1 22.0139 -3.11351e-16 9.43453 -8.94964
149 1 3.14473 1.01822e-15 9.43452 -8.94961
150 1 6.2895 1.64259e-15 9.43459 -8.95008
151 1 9.43461 1.58159e-15 9.43461 -8.94909
152 1 12.5795 1.15202e-15 9.43458 -8.94967
153 1 15.7243 6.69772e-16 9.43453 -8.94967
154 1 18.8691 3.55996e-16 9.43453 -8.94964
155 1 -7.97876e-05 3.14475 9.43452 -8.94963
156 1 3.14444 3.14436 9.43449 -8.94951
157 1 6.28891 3.14289 9.43477 -8.94992
158 1 9.4347 3.14413 9.4347 -8.94645
159 1 12.5797 3.14411 9.43472 -8.94905
177 1 4.71696 1.57196 11.007 -8.94952
180 1 14.152 1.57214 11.0069 -8.94956
184 1 4.71558 4.71504 11.0072 -8.94763
187 1 14.1526 4.71601 11.0065 -8.94864
188 1 17.2971 4.71682 11.007 -8.94918
189 1 20.4415 4.71713 11.007 -8.94958
194 1 14.1568 7.85969 11.0038 -8.95159
21 1 9.43452 3.14475 -7.97876e-05 -8.94963
176 1 1.57233 1.57234 11.007 -8.94963
343 1 18.8691 9.43452 18.8691 -8.94964
178 1 7.86217 1.57178 11.007 -8.9502
179 1 11.007 1.5721 11.007 -8.94942
342 1 15.7246 9.43444 18.8695 -8.94934
181 1 17.2967 1.57233 11.007 -8.9496
182 1 20.4415 1.5724 11.007 -8.94964
183 1 1.57191 4.71686 11.007 -8.94942
341 1 12.5794 9.43448 18.8703 -8.95196
185 1 7.86167 4.71371 11.0072 -8.95379
186 1 11.0067 4.71639 11.0067 -8.94962
340 1 9.43463 9.43435 18.8696 -8.94876
339 1 6.2895 9.4344 18.8706 -8.95149
338 1 3.14455 9.43445 18.8695 -8.94941
337 1 22.0139 9.43452 18.8691 -8.94965
336 1 20.4415 7.8621 20.4415 -8.94964
192 1 7.82637 7.84509 11.0335 -8.87253
193 1 11.0257 7.86134 11.0257 -8.90167
49 1 18.8691 9.43452 22.0139 -8.94965
195 1 17.2982 7.86137 11.0065 -8.9496
196 1 20.4415 7.8619 11.0069 -8.94998
197 1 22.0139 9.46162e-16 12.5794 -8.94964
198 1 1.57235 1.57235 14.1518 -8.94961
199 1 3.14473 1.03801e-15 12.5794 -8.94955
200 1 4.71705 1.57192 14.152 -8.95025
201 1 6.28963 1.35098e-15 12.5795 -8.95048
202 1 7.86218 1.57212 14.152 -8.94962
203 1 9.43458 1.18374e-15 12.5795 -8.94967
204 1 11.0069 1.57214 14.152 -8.94956
205 1 12.5794 -1.72651e-16 12.5794 -8.95031
206 1 14.1519 1.57199 14.1519 -8.95031
207 1 15.7243 4.57368e-16 12.5794 -8.94958
208 1 17.2967 1.57237 14.1518 -8.94964
209 1 18.8691 1.1032e-15 12.5794 -8.94962
210 1 20.4415 1.5724 14.1518 -8.94962
211 1 22.0138 3.14476 12.5794 -8.94959
212 1 1.57194 4.71689 14.152 -8.94983
213 1 3.14448 3.14435 12.5794 -8.94933
214 1 4.71513 4.71374 14.154 -8.94861
215 1 6.28931 3.14269 12.5798 -8.95264
216 1 7.86269 4.71576 14.1526 -8.94968
217 1 9.43472 3.14411 12.5797 -8.94905
218 1 11.0065 4.71601 14.1526 -8.94864
219 1 12.5795 3.14321 12.5795 -8.95267
220 1 14.1533 4.71406 14.1533 -8.95047
221 1 15.7244 3.1445 12.5793 -8.94949
222 1 17.297 4.71696 14.1518 -8.95002
223 1 18.8691 3.14476 12.5794 -8.94955
224 1 20.4415 4.71718 14.1518 -8.94963
225 1 -0.000427091 6.28944 12.5794 -8.94967
226 1 1.57008 7.86119 14.1527 -8.95132
227 1 3.14245 6.28805 12.5799 -8.94974
228 1 4.70499 7.85023 14.1641 -8.92393
229 1 6.28189 6.27659 12.5873 -8.94969
230 1 7.86196 7.85698 14.1608 -8.94834
231 1 9.43447 6.28858 12.5792 -8.94995
232 1 11.0038 7.85969 14.1568 -8.95159
233 1 12.5838 6.27862 12.5838 -8.95849
234 1 14.1655 7.84825 14.1655 -8.91833
235 1 15.7257 6.28851 12.5792 -8.95049
236 1 17.2993 7.86102 14.1528 -8.95178
237 1 18.8694 6.28945 12.5793 -8.94952
238 1 20.4415 7.86193 14.152 -8.95048
239 1 22.0127 9.43445 12.5795 -8.9515
240 1 3.13635 9.43306 12.5816 -8.95894
241 1 6.2445 9.39158 12.6286 -8.81905
242 1 9.41512 9.43118 12.5742 -8.84532
243 1 12.6302 9.38284 12.6302 -8.76911
244 1 15.7332 9.433 12.5813 -8.9625
245 1 18.8703 9.43448 12.5794 -8.95196
246 1 -1.19232e-05 1.87865e-15 15.7242 -8.94965
247 1 1.57233 1.57233 17.2967 -8.94951
248 1 3.14474 1.54213e-15 15.7243 -8.94974
249 1 4.71727 1.57236 17.2967 -8.94969
250 1 6.2897 2.05063e-15 15.7243 -8.94962
251 1 7.8621 1.57234 17.2967 -8.94958
252 1 9.43453 7.55563e-16 15.7243 -8.94967
253 1 11.007 1.57233 17.2967 -8.9496
254 1 12.5794 6.33293e-16 15.7243 -8.94958
255 1 14.1518 1.57237 17.2967 -8.94964
256 1 15.7243 7.04152e-16 15.7243 -8.9498
257 1 17.2967 1.57232 17.2967 -8.94956
258 1 18.8691 1.88909e-15 15.7242 -8.94965
259 1 20.4415 1.57241 17.2966 -8.94967
260 1 -7.3497e-05 3.14478 15.7242 -8.9497
261 1 1.57201 4.71685 17.2971 -8.94863
262 1 3.14437 3.14415 15.7247 -8.94918
263 1 4.71707 4.71686 17.2971 -8.94986
264 1 6.28976 3.14446 15.7245 -8.94974
265 1 7.86211 4.71686 17.2971 -8.94915
266 1 9.43455 3.14432 15.7246 -8.94948
267 1 11.007 4.71682 17.2971 -8.94918
268 1 12.5793 3.1445 15.7244 -8.94949
269 1 14.1518 4.71696 17.297 -8.95002
270 1 15.7246 3.14416 15.7246 -8.94953
271 1 17.2971 4.71674 17.2971 -8.94834
272 1 18.8691 3.14478 15.7242 -8.94975
273 1 20.4415 4.71715 17.2967 -8.94957
274 1 22.0135 6.2894 15.7245 -8.94984
275 1 1.57209 7.86198 17.297 -8.94954
276 1 3.14231 6.2872 15.7267 -8.94424
277 1 4.7162 7.86107 17.2991 -8.95088
278 1 6.28913 6.28794 15.7267 -8.95019
279 1 7.86261 7.86156 17.2985 -8.95115
280 1 9.43469 6.28789 15.7261 -8.94552
281 1 11.0065 7.86137 17.2982 -8.9496
282 1 12.5792 6.28851 15.7257 -8.95049
283 1 14.1528 7.86102 17.2993 -8.95178
284 1 15.7272 6.28668 15.7272 -8.943
285 1 17.297 7.86197 17.297 -8.94953
286 1 18.8696 6.28934 15.7246 -8.94985
287 1 20.4415 7.86207 17.2967 -8.94953
288 1 -0.000388223 9.43444 15.7245 -8.94942
289 1 3.14296 9.43397 15.7261 -8.9479
290 1 6.2871 9.43251 15.7338 -8.95871
291 1 9.43526 9.43513 15.7245 -8.94731
292 1 12.5813 9.433 15.7332 -8.9625
293 1 15.7262 9.43396 15.7262 -8.94766
294 1 18.8695 9.43444 15.7246 -8.94934
295 1 22.0139 7.7351e-16 18.8691 -8.94958
296 1 1.57241 1.5724 20.4415 -8.94962
297 1 3.14484 1.55889e-15 18.8691 -8.94967
298 1 4.71726 1.57241 20.4415 -8.94963
299 1 6.28968 1.87947e-15 18.8691 -8.94962
300 1 7.8621 1.5724 20.4415 -8.94964
301 1 9.43453 6.75802e-16 18.8691 -8.94964
302 1 11.007 1.5724 20.4415 -8.94964
303 1 12.5794 1.34798e-15 18.8691 -8.94962
304 1 14.1518 1.5724 20.4415 -8.94962
305 1 15.7242 1.85244e-15 18.8691 -8.94965
306 1 17.2966 1.57241 20.4415 -8.94967
307 1 18.8691 1.83236e-15 18.8691 -8.9496
308 1 20.4415 1.57241 20.4415 -8.94956
309 1 22.0139 3.14478 18.8691 -8.94946
310 1 1.57237 4.71722 20.4416 -8.94962
311 1 3.1448 3.14476 18.8691 -8.94969
312 1 4.71721 4.71718 20.4415 -8.94973
313 1 6.28968 3.14477 18.8691 -8.94957
314 1 7.86207 4.71714 20.4415 -8.94954
315 1 9.43453 3.14474 18.8691 -8.94965
316 1 11.007 4.71713 20.4415 -8.94958
317 1 12.5794 3.14476 18.8691 -8.94955
318 1 14.1518 4.71718 20.4415 -8.94963
319 1 15.7242 3.14478 18.8691 -8.94975
320 1 17.2967 4.71715 20.4415 -8.94957
321 1 18.8691 3.14476 18.8691 -8.9494
322 1 20.4415 4.71726 20.4415 -8.94968
323 1 -4.25415e-05 6.28967 18.8691 -8.94967
324 1 1.57236 7.86209 20.4415 -8.94959
325 1 3.14456 6.28942 18.8696 -8.94969
326 1 4.71713 7.86201 20.4418 -8.94998
327 1 6.28966 6.28946 18.8695 -8.94991
328 1 7.86209 7.86197 20.4415 -8.95014
329 1 9.43452 6.28928 18.8695 -8.94943
330 1 11.0069 7.8619 20.4415 -8.94998
331 1 12.5793 6.28945 18.8694 -8.94952
332 1 14.152 7.86193 20.4415 -8.95048
333 1 15.7246 6.28934 18.8696 -8.94985
334 1 17.2967 7.86207 20.4415 -8.94953
335 1 18.8691 6.28966 18.8691 -8.94969
1 1 22.0139 1.4119e-15 22.0139 -8.94959
5 1 6.28968 1.1723e-17 22.0139 -8.94963
9 1 12.5794 6.57262e-16 22.0139 -8.94964
13 1 18.8691 1.76468e-15 22.0139 -8.94958
17 1 3.14477 3.14477 22.0138 -8.94956
47 1 12.5795 9.43445 22.0127 -8.9515
23 1 12.5794 3.14476 22.0138 -8.94959
27 1 18.8691 3.14478 22.0139 -8.94946
29 1 22.0139 6.28968 22.0139 -8.94962
33 1 6.28951 6.2895 22.0135 -8.95012
39 1 15.7245 6.2894 22.0135 -8.94984
43 1 22.0139 9.43453 22.0139 -8.94964
45 1 6.28952 9.43456 22.0138 -8.94981
46 1 9.43439 9.43449 22.0133 -8.94975
7 1 9.43453 -6.76505e-16 22.0139 -8.94964
35 1 9.43444 6.28937 22.0135 -8.94961
344 1 1.57233 11.007 1.57233 -8.94965
345 1 4.71689 11.007 1.57198 -8.94962
346 1 7.86169 11.007 1.5719 -8.94796
347 1 11.0068 11.007 1.57024 -8.94878
348 1 14.153 11.007 1.57012 -8.94916
349 1 17.297 11.007 1.57205 -8.9496
350 1 20.4415 11.007 1.57236 -8.94962
688 3 10.3904 11.007 9.37286 2.42883
352 1 1.57235 14.1518 1.57235 -8.94953
353 1 3.14473 12.5794 -2.71444e-05 -8.94961
354 1 4.71708 14.1517 1.57215 -8.94978
687 3 9.37286 11.007 10.3904 2.42883
356 1 7.86175 14.1521 1.57061 -8.95207
511 1 18.8691 18.8692 9.43453 -8.94965
358 1 11.0066 14.1525 1.5703 -8.95062
510 1 15.7246 18.8696 9.43455 -8.94948
360 1 14.1527 14.1527 1.57008 -8.95132
361 1 15.7245 12.5795 -0.000388223 -8.94942
362 1 17.297 14.1519 1.57209 -8.94954
509 1 12.5797 18.8698 9.43472 -8.94905
364 1 20.4415 14.1518 1.57236 -8.94959
508 1 9.4347 18.8698 9.4347 -8.94645
366 1 1.57236 17.2967 1.57236 -8.94976
367 1 3.14478 15.7242 1.23049e-05 -8.94974
368 1 4.71687 17.297 1.57179 -8.94941
507 1 6.28891 18.871 9.43477 -8.94992
370 1 7.862 17.297 1.57192 -8.94924
537 1 14.152 20.4418 11.0069 -8.94956
372 1 11.007 17.297 1.57191 -8.94942
373 1 12.5794 15.7245 -0.000427091 -8.94967
374 1 14.152 17.297 1.57194 -8.94983
506 1 3.14444 18.8695 9.43449 -8.94951
376 1 17.2971 17.297 1.57201 -8.94863
377 1 18.8691 15.7242 -4.25415e-05 -8.94967
378 1 20.4416 17.2967 1.57237 -8.94962
379 1 -5.73163e-06 18.8691 -5.73163e-06 -8.94963
380 1 1.57235 20.4415 1.57235 -8.94945
505 1 -7.97876e-05 18.8691 9.43452 -8.94963
382 1 4.71724 20.4415 1.57236 -8.9497
383 1 6.28967 18.8691 -6.85917e-05 -8.94958
384 1 7.86209 20.4416 1.57234 -8.94961
504 1 18.8695 15.7246 9.43452 -8.94943
386 1 11.007 20.4416 1.57233 -8.94963
503 1 15.7261 15.726 9.43469 -8.94552
388 1 14.1518 20.4415 1.57235 -8.94961
389 1 15.7242 18.8691 -7.3497e-05 -8.9497
390 1 17.2967 20.4416 1.57233 -8.94951
502 1 12.5792 15.7253 9.43447 -8.94995
392 1 20.4415 20.4415 1.57241 -8.94962
393 1 1.57198 11.007 4.71689 -8.94962
394 1 4.71561 11.007 4.71561 -8.94584
395 1 7.86297 11.007 4.71878 -8.93965
396 1 11.0123 11.007 4.71122 -9.01398
397 1 14.1604 11.007 4.70861 -8.9411
398 1 17.299 11.007 4.71605 -8.9489
399 1 20.4418 11.007 4.71707 -8.94982
400 1 -2.71444e-05 12.5794 3.14473 -8.94961
401 1 1.57215 14.1517 4.71708 -8.94978
402 1 3.14443 12.5794 3.14443 -8.94907
403 1 4.71598 14.1516 4.71598 -8.95232
404 1 6.28918 12.5787 3.14386 -8.94962
405 1 7.8569 14.1571 4.7065 -8.95324
406 1 9.43405 12.5794 3.14156 -8.95164
407 1 11.0069 14.1564 4.7073 -8.95333
408 1 12.5816 12.5808 3.13635 -8.95894
409 1 14.1641 14.1637 4.70499 -8.92393
410 1 15.7261 12.5799 3.14296 -8.9479
411 1 17.2991 14.1528 4.7162 -8.95088
412 1 18.8695 12.5794 3.14455 -8.94941
413 1 20.4418 14.1519 4.71713 -8.94998
414 1 1.23049e-05 15.7242 3.14478 -8.94974
415 1 1.57179 17.297 4.71687 -8.94941
416 1 3.1445 15.7243 3.1445 -8.95025
417 1 4.71481 17.2991 4.71481 -8.94456
418 1 6.28802 15.7258 3.14186 -8.94957
419 1 7.86168 17.2986 4.71577 -8.94921
420 1 9.43415 15.7258 3.14247 -8.94761
421 1 11.0072 17.2989 4.71558 -8.94763
422 1 12.5799 15.7259 3.14245 -8.94974
423 1 14.154 17.3002 4.71513 -8.94861
424 1 15.7267 15.7267 3.14231 -8.94424
425 1 17.2971 17.297 4.71707 -8.94986
426 1 18.8696 15.7245 3.14456 -8.94969
427 1 20.4415 17.2967 4.71721 -8.94973
428 1 22.0138 18.8691 3.14477 -8.94956
429 1 1.57236 20.4415 4.71724 -8.9497
430 1 3.14441 18.8695 3.14441 -8.94861
431 1 4.71698 20.4419 4.71698 -8.94984
432 1 6.28956 18.8694 3.14451 -8.94973
433 1 7.86208 20.4419 4.71702 -8.94955
434 1 9.43449 18.8695 3.14444 -8.94951
435 1 11.007 20.4419 4.71696 -8.94952
436 1 12.5794 18.8695 3.14448 -8.94933
437 1 14.152 20.442 4.71705 -8.95025
438 1 15.7247 18.8698 3.14437 -8.94918
439 1 17.2967 20.4415 4.71727 -8.94969
440 1 18.8691 18.8691 3.1448 -8.94969
441 1 20.4415 20.4415 4.71726 -8.94963
442 1 1.5719 11.007 7.86169 -8.94796
443 1 4.71878 11.007 7.86297 -8.93965
444 1 7.88358 11.007 7.88358 -8.85814
445 1 11.1074 11.007 7.56156 -7.92391
446 1 14.1633 11.007 7.8536 -8.96988
447 1 17.2996 11.007 7.86244 -8.95099
448 1 20.4419 11.007 7.86211 -8.9499
449 1 22.0138 12.5793 6.28952 -8.94981
450 1 1.57061 14.1521 7.86175 -8.95207
451 1 3.14386 12.5787 6.28918 -8.94962
452 1 4.7065 14.1571 7.8569 -8.95324
453 1 6.28724 12.5755 6.28724 -8.95884
454 1 7.82182 14.1907 7.82182 -8.83018
455 1 9.41819 12.6021 6.27622 -8.90796
456 1 11.0335 14.1688 7.82637 -8.87253
457 1 12.6286 12.6223 6.2445 -8.81905
458 1 14.1608 14.1569 7.86196 -8.94834
459 1 15.7338 12.5814 6.2871 -8.95871
460 1 17.2985 14.1523 7.86261 -8.95115
461 1 18.8706 12.5795 6.2895 -8.95149
462 1 20.4415 14.1519 7.86209 -8.95014
463 1 22.0135 15.7244 6.28951 -8.95012
464 1 1.57192 17.297 7.862 -8.94924
465 1 3.14186 15.7258 6.28802 -8.94957
466 1 4.71577 17.2986 7.86168 -8.94921
467 1 6.27866 15.7351 6.27866 -8.92671
468 1 7.8608 17.3038 7.8608 -8.9596
469 1 9.43485 15.7322 6.28431 -8.94921
470 1 11.0072 17.3002 7.86167 -8.95379
471 1 12.5873 15.7373 6.28189 -8.94969
472 1 14.1526 17.2981 7.86269 -8.94968
473 1 15.7267 15.726 6.28913 -8.95019
474 1 17.2971 17.297 7.86211 -8.94915
475 1 18.8695 15.7244 6.28966 -8.94991
476 1 20.4415 17.2968 7.86207 -8.94954
477 1 -6.85917e-05 18.8691 6.28967 -8.94958
478 1 1.57234 20.4416 7.86209 -8.94961
479 1 3.14451 18.8694 6.28956 -8.94973
480 1 4.71702 20.4419 7.86208 -8.94955
481 1 6.28885 18.8713 6.28885 -8.95131
482 1 7.86211 20.4425 7.86211 -8.9514
483 1 9.43477 18.871 6.28891 -8.94992
484 1 11.007 20.4421 7.86217 -8.9502
485 1 12.5798 18.8712 6.28931 -8.95264
486 1 14.152 20.4418 7.86218 -8.94962
487 1 15.7245 18.8694 6.28976 -8.94974
488 1 17.2967 20.4416 7.8621 -8.94958
489 1 18.8691 18.8691 6.28968 -8.94957
490 1 20.4415 20.4415 7.8621 -8.94964
491 1 22.0133 12.5794 9.43439 -8.94975
492 1 3.14156 12.5794 9.43405 -8.95164
493 1 6.27622 12.6021 9.41819 -8.90796
494 1 9.38807 12.8375 9.38807 -7.67331
495 1 12.5742 12.5827 9.41512 -8.84532
496 1 15.7245 12.5788 9.43526 -8.94731
497 1 18.8696 12.5795 9.43463 -8.94876
498 1 22.0135 15.7245 9.43444 -8.94961
499 1 3.14247 15.7258 9.43415 -8.94761
500 1 6.28431 15.7322 9.43485 -8.94921
501 1 9.43252 15.7196 9.43252 -9.01254
512 1 1.57024 11.007 11.0068 -8.94878
517 1 17.2976 11.007 11.0066 -8.946
519 1 1.5703 14.1525 11.0066 -8.95062
520 1 4.7073 14.1564 11.0069 -8.95333
527 1 4.71558 17.2989 11.0072 -8.94763
530 1 14.1526 17.2979 11.0065 -8.94864
531 1 17.2971 17.2971 11.007 -8.94918
532 1 20.4415 17.2968 11.007 -8.94958
534 1 4.71696 20.4419 11.007 -8.94952
518 1 20.4414 11.007 11.0068 -8.94941
523 1 14.1568 14.1542 11.0038 -8.95159
385 1 9.43452 18.8691 -7.97876e-05 -8.94963
686 1 20.4415 20.4415 20.4415 -8.94956
513 1 4.71122 11.007 11.0123 -9.01398
514 1 7.56156 11.007 11.1074 -7.92391
515 1 11.2348 11.007 11.2348 -7.42246
516 1 14.1467 11.007 11.0145 -9.00203
685 1 18.8691 18.8691 18.8691 -8.9494
391 1 18.8691 18.8691 22.0139 -8.94946
684 1 17.2966 20.4415 20.4415 -8.94967
683 1 15.7242 18.8691 18.8691 -8.94975
521 1 7.82637 14.1688 11.0335 -8.87253
522 1 11.0257 14.1526 11.0257 -8.90167
387 1 12.5794 18.8691 22.0138 -8.94959
524 1 17.2982 14.1525 11.0065 -8.9496
525 1 20.4415 14.152 11.0069 -8.94998
526 1 1.57191 17.297 11.007 -8.94942
682 1 14.1518 20.4415 20.4415 -8.94962
528 1 7.86167 17.3002 11.0072 -8.95379
529 1 11.0067 17.2975 11.0067 -8.94962
681 1 12.5794 18.8691 18.8691 -8.94955
680 1 11.007 20.4415 20.4415 -8.94964
679 1 9.43453 18.8692 18.8691 -8.94965
533 1 1.57233 20.4416 11.007 -8.94963
678 1 7.8621 20.4415 20.4415 -8.94964
535 1 7.86217 20.4421 11.007 -8.9502
536 1 11.007 20.4418 11.007 -8.94942
677 1 6.28968 18.8691 18.8691 -8.94957
538 1 17.2967 20.4416 11.007 -8.9496
539 1 20.4415 20.4415 11.007 -8.94964
540 1 1.57012 11.007 14.153 -8.94916
541 1 4.70861 11.007 14.1604 -8.9411
542 1 7.8536 11.007 14.1633 -8.96988
543 1 11.0145 11.007 14.1467 -9.00203
544 1 14.1602 11.007 14.1602 -8.94192
545 1 17.2991 11.007 14.1531 -8.94882
546 1 20.4415 11.007 14.1521 -8.95004
547 1 22.0127 12.5795 12.5795 -8.9515
548 1 1.57008 14.1527 14.1527 -8.95132
549 1 3.13635 12.5808 12.5816 -8.95894
550 1 4.70499 14.1637 14.1641 -8.92393
551 1 6.2445 12.6223 12.6286 -8.81905
552 1 7.86196 14.1569 14.1608 -8.94834
553 1 9.41512 12.5827 12.5742 -8.84532
554 1 11.0038 14.1542 14.1568 -8.95159
555 1 12.6302 12.6311 12.6302 -8.76911
556 1 14.1655 14.1657 14.1655 -8.91833
557 1 15.7332 12.5809 12.5813 -8.9625
558 1 17.2993 14.1529 14.1528 -8.95178
559 1 18.8703 12.5794 12.5794 -8.95196
560 1 20.4415 14.152 14.152 -8.95048
561 1 -0.000427091 15.7245 12.5794 -8.94967
562 1 1.57194 17.297 14.152 -8.94983
563 1 3.14245 15.7259 12.5799 -8.94974
564 1 4.71513 17.3002 14.154 -8.94861
565 1 6.28189 15.7373 12.5873 -8.94969
566 1 7.86269 17.2981 14.1526 -8.94968
567 1 9.43447 15.7253 12.5792 -8.94995
568 1 11.0065 17.2979 14.1526 -8.94864
569 1 12.5838 15.7353 12.5838 -8.95849
570 1 14.1533 17.2998 14.1533 -8.95047
571 1 15.7257 15.7254 12.5792 -8.95049
572 1 17.297 17.2969 14.1518 -8.95002
573 1 18.8694 15.7245 12.5793 -8.94952
574 1 20.4415 17.2967 14.1518 -8.94963
575 1 22.0138 18.8691 12.5794 -8.94959
576 1 1.57235 20.4415 14.1518 -8.94961
577 1 3.14448 18.8695 12.5794 -8.94933
578 1 4.71705 20.442 14.152 -8.95025
579 1 6.28931 18.8712 12.5798 -8.95264
580 1 7.86218 20.4418 14.152 -8.94962
581 1 9.43472 18.8698 12.5797 -8.94905
582 1 11.0069 20.4418 14.152 -8.94956
583 1 12.5795 18.8707 12.5795 -8.95267
584 1 14.1519 20.4419 14.1519 -8.95031
585 1 15.7244 18.8694 12.5793 -8.94949
586 1 17.2967 20.4415 14.1518 -8.94964
587 1 18.8691 18.8691 12.5794 -8.94955
588 1 20.4415 20.4415 14.1518 -8.94962
589 1 1.57205 11.007 17.297 -8.9496
590 1 4.71605 11.007 17.299 -8.9489
591 1 7.86244 11.007 17.2996 -8.95099
592 1 11.0066 11.007 17.2976 -8.946
593 1 14.1531 11.007 17.2991 -8.94882
594 1 17.2971 11.007 17.2971 -8.9496
595 1 20.4415 11.007 17.2968 -8.9496
596 1 -0.000388223 12.5795 15.7245 -8.94942
597 1 1.57209 14.1519 17.297 -8.94954
598 1 3.14296 12.5799 15.7261 -8.9479
599 1 4.7162 14.1528 17.2991 -8.95088
600 1 6.2871 12.5814 15.7338 -8.95871
601 1 7.86261 14.1523 17.2985 -8.95115
602 1 9.43526 12.5788 15.7245 -8.94731
603 1 11.0065 14.1525 17.2982 -8.9496
604 1 12.5813 12.5809 15.7332 -8.9625
605 1 14.1528 14.1529 17.2993 -8.95178
606 1 15.7262 12.5799 15.7262 -8.94766
607 1 17.297 14.1519 17.297 -8.94953
608 1 18.8695 12.5795 15.7246 -8.94934
609 1 20.4415 14.1518 17.2967 -8.94953
610 1 22.0135 15.7245 15.7245 -8.94984
611 1 1.57201 17.297 17.2971 -8.94863
612 1 3.14231 15.7267 15.7267 -8.94424
613 1 4.71707 17.297 17.2971 -8.94986
614 1 6.28913 15.726 15.7267 -8.95019
615 1 7.86211 17.297 17.2971 -8.94915
616 1 9.43469 15.726 15.7261 -8.94552
617 1 11.007 17.2971 17.2971 -8.94918
618 1 12.5792 15.7254 15.7257 -8.95049
619 1 14.1518 17.2969 17.297 -8.95002
620 1 15.7272 15.7272 15.7272 -8.943
621 1 17.2971 17.2972 17.2971 -8.94834
622 1 18.8696 15.7246 15.7246 -8.94985
623 1 20.4415 17.2967 17.2967 -8.94957
624 1 -7.3497e-05 18.8691 15.7242 -8.9497
625 1 1.57233 20.4416 17.2967 -8.94951
626 1 3.14437 18.8698 15.7247 -8.94918
627 1 4.71727 20.4415 17.2967 -8.94969
628 1 6.28976 18.8694 15.7245 -8.94974
629 1 7.8621 20.4416 17.2967 -8.94958
630 1 9.43455 18.8696 15.7246 -8.94948
631 1 11.007 20.4416 17.2967 -8.9496
632 1 12.5793 18.8694 15.7244 -8.94949
633 1 14.1518 20.4415 17.2967 -8.94964
634 1 15.7246 18.8697 15.7246 -8.94953
635 1 17.2967 20.4416 17.2967 -8.94956
636 1 18.8691 18.8691 15.7242 -8.94975
637 1 20.4415 20.4415 17.2966 -8.94967
638 1 1.57236 11.007 20.4415 -8.94962
639 1 4.71707 11.007 20.4418 -8.94982
640 1 7.86211 11.007 20.4419 -8.9499
641 1 11.0068 11.007 20.4414 -8.94941
642 1 14.1521 11.007 20.4415 -8.95004
643 1 17.2968 11.007 20.4415 -8.9496
644 1 20.4415 11.007 20.4415 -8.94965
645 1 22.0139 12.5794 18.8691 -8.94965
646 1 1.57236 14.1518 20.4415 -8.94959
647 1 3.14455 12.5794 18.8695 -8.94941
648 1 4.71713 14.1519 20.4418 -8.94998
649 1 6.2895 12.5795 18.8706 -8.95149
650 1 7.86209 14.1519 20.4415 -8.95014
651 1 9.43463 12.5795 18.8696 -8.94876
652 1 11.0069 14.152 20.4415 -8.94998
653 1 12.5794 12.5794 18.8703 -8.95196
654 1 14.152 14.152 20.4415 -8.95048
655 1 15.7246 12.5795 18.8695 -8.94934
656 1 17.2967 14.1518 20.4415 -8.94953
657 1 18.8691 12.5794 18.8691 -8.94964
658 1 20.4415 14.1518 20.4415 -8.94964
659 1 -4.25415e-05 15.7242 18.8691 -8.94967
660 1 1.57237 17.2967 20.4416 -8.94962
661 1 3.14456 15.7245 18.8696 -8.94969
662 1 4.71721 17.2967 20.4415 -8.94973
663 1 6.28966 15.7244 18.8695 -8.94991
664 1 7.86207 17.2968 20.4415 -8.94954
665 1 9.43452 15.7246 18.8695 -8.94943
666 1 11.007 17.2968 20.4415 -8.94958
667 1 12.5793 15.7245 18.8694 -8.94952
668 1 14.1518 17.2967 20.4415 -8.94963
669 1 15.7246 15.7246 18.8696 -8.94985
670 1 17.2967 17.2967 20.4415 -8.94957
671 1 18.8691 15.7242 18.8691 -8.94969
672 1 20.4415 17.2966 20.4415 -8.94968
673 1 22.0139 18.8691 18.8691 -8.94946
674 1 1.57241 20.4415 20.4415 -8.94962
675 1 3.1448 18.8691 18.8691 -8.94969
676 1 4.71726 20.4415 20.4415 -8.94963
351 1 22.0139 12.5794 22.0139 -8.94964
355 1 6.28952 12.5793 22.0138 -8.94981
357 1 9.43439 12.5794 22.0133 -8.94975
359 1 12.5795 12.5795 22.0127 -8.9515
363 1 18.8691 12.5794 22.0139 -8.94965
365 1 22.0139 15.7242 22.0139 -8.94962
369 1 6.28951 15.7244 22.0135 -8.95012
375 1 15.7245 15.7245 22.0135 -8.94984
381 1 3.14477 18.8691 22.0138 -8.94956
371 1 9.43444 15.7245 22.0135 -8.94961
