ITEM: TIMESTEP
105
ITEM: NUMBER OF ATOMS
688
ITEM: BOX BOUNDS pp pp pp
0.0000000000000000e+00 2.2013900999999997e+01
0.0000000000000000e+00 2.2013900999999997e+01
0.0000000000000000e+00 2.2013900999999997e+01
ITEM: ATOMS id type x y z c_pot
175 1 18.8687 9.43441 9.43444 -8.94755
2 1 1.57163 1.5718 1.57163 -8.94911
3 1 3.14431 1.20828e-15 -0.000456382 -8.94948
4 1 4.7164 1.57161 1.57132 -8.94949
174 1 15.7212 9.43679 9.43363 -8.94756
6 1 7.86168 1.57152 1.57122 -8.94937
191 1 4.69915 7.85334 11.0095 -8.95247
8 1 11.0071 1.57145 1.57113 -8.94941
173 1 12.5704 9.43413 9.40473 -8.81587
10 1 14.1525 1.57134 1.57119 -8.94939
11 1 15.7247 1.83e-15 -0.000662105 -8.94945
12 1 17.2978 1.57132 1.57133 -8.94929
172 1 9.39037 9.19417 9.39037 -7.74061
14 1 20.4417 1.5718 1.57195 -8.94934
15 1 -0.000150439 3.14402 -0.000150439 -8.94943
16 1 1.57165 4.71635 1.57165 -8.95004
171 1 6.2686 9.40402 9.41358 -8.89731
18 1 4.71526 4.71518 1.56988 -8.94906
19 1 6.28905 3.14368 -0.00086887 -8.94931
20 1 7.8611 4.71494 1.56976 -8.94887
170 1 3.13814 9.43311 9.43432 -8.95236
22 1 11.0072 4.71463 1.56936 -8.94907
169 1 22.0117 9.43421 9.43432 -8.94936
24 1 14.1537 4.71418 1.56913 -8.94953
25 1 15.7252 3.14333 -0.00113591 -8.94956
26 1 17.2995 4.71437 1.56992 -8.94769
168 1 18.8701 6.28803 9.43423 -8.94935
28 1 20.4424 4.71616 1.57165 -8.94956
167 1 15.7277 6.28642 9.43345 -8.94347
30 1 1.57205 7.86177 1.57205 -8.94937
31 1 3.14404 6.289 0.000228692 -8.95007
32 1 4.71637 7.86195 1.57162 -8.95013
166 1 12.5784 6.29158 9.43199 -8.94966
34 1 7.86103 7.86064 1.56822 -8.95283
190 1 1.56615 7.85968 11.0072 -8.95118
36 1 11.0072 7.85968 1.56615 -8.95118
37 1 12.58 6.28777 -0.00273799 -8.94981
38 1 14.1559 7.85862 1.5651 -8.95175
165 1 9.43208 6.30288 9.43208 -9.01128
40 1 17.3 7.86026 1.56955 -8.94888
41 1 18.8705 6.28852 -0.000727335 -8.9493
42 1 20.4427 7.86143 1.57157 -8.94937
164 1 6.27928 6.2771 9.43409 -8.94937
44 1 3.14399 9.43429 0.000602157 -8.94961
163 1 3.13818 6.28476 9.4336 -8.947
162 1 22.0117 6.2879 9.43409 -8.94966
161 1 18.8695 3.14366 9.43445 -8.94941
48 1 15.7269 9.43358 -0.00262716 -8.94929
160 1 15.7253 3.14315 9.43438 -8.94926
50 1 -0.000456382 7.91659e-16 3.14431 -8.94948
51 1 1.57132 1.57161 4.7164 -8.94949
52 1 3.14372 2.19008e-16 3.14372 -8.9495
53 1 4.71578 1.57079 4.71578 -8.95004
54 1 6.28898 7.81841e-16 3.14363 -8.94958
55 1 7.86162 1.57068 4.71583 -8.94984
56 1 9.43446 1.0172e-15 3.14354 -8.94954
57 1 11.0074 1.57065 4.71578 -8.94965
58 1 12.5799 1.25832e-15 3.14363 -8.9495
59 1 14.1529 1.57044 4.71628 -8.95115
60 1 15.7253 1.92099e-15 3.14387 -8.95019
61 1 17.2975 1.57147 4.71687 -8.94979
62 1 18.8695 1.4977e-15 3.14442 -8.94966
63 1 20.4414 1.57186 4.71688 -8.94944
64 1 22.0133 3.14377 3.14395 -8.94935
65 1 1.56988 4.71518 4.71526 -8.94906
66 1 3.14278 3.1429 3.14278 -8.94814
67 1 4.7119 4.71185 4.7119 -8.944
68 1 6.28822 3.14236 3.14255 -8.94949
69 1 7.85991 4.71137 4.71256 -8.94904
70 1 9.43426 3.14221 3.14243 -8.94926
71 1 11.0082 4.71136 4.71186 -8.94689
72 1 12.5805 3.14188 3.1424 -8.94898
73 1 14.1575 4.70895 4.71139 -8.94885
74 1 15.7268 3.14137 3.14237 -8.94911
75 1 17.2997 4.7143 4.7155 -8.9499
76 1 18.8702 3.14338 3.14393 -8.94965
77 1 20.4418 4.71602 4.71649 -8.95005
78 1 0.000228692 6.289 3.14404 -8.95007
79 1 1.57162 7.86195 4.71637 -8.95013
80 1 3.14302 6.28866 3.14302 -8.95125
81 1 4.71431 7.86151 4.71431 -8.95467
82 1 6.28526 6.28505 3.1381 -8.94866
83 1 7.85345 7.85139 4.70127 -8.95013
84 1 9.4336 6.28476 3.13818 -8.947
85 1 11.0095 7.85334 4.69915 -8.95247
86 1 12.5826 6.28401 3.13691 -8.94911
87 1 14.1718 7.84427 4.69626 -8.92326
88 1 15.7318 6.28254 3.13734 -8.94271
89 1 17.3041 7.85861 4.71315 -8.95099
90 1 18.8722 6.28766 3.14294 -8.94969
91 1 20.4434 7.86134 4.71627 -8.95036
92 1 0.000602157 9.43429 3.14399 -8.94961
93 1 3.14384 9.43444 3.14384 -8.94876
94 1 6.28901 9.4352 3.14347 -8.94918
95 1 9.43432 9.43311 3.13814 -8.95236
96 1 12.5861 9.43106 3.12858 -8.95934
97 1 15.7317 9.43202 3.13735 -8.94674
98 1 18.8726 9.43373 3.14265 -8.9492
99 1 22.0133 8.67652e-16 6.28929 -8.94941
100 1 1.57122 1.57152 7.86168 -8.94937
101 1 3.14363 1.0343e-15 6.28898 -8.94958
102 1 4.71583 1.57068 7.86162 -8.94984
103 1 6.28902 9.57662e-16 6.28902 -8.9508
104 1 7.86198 1.57072 7.86198 -8.95174
105 1 9.43471 1.27898e-15 6.28904 -8.95061
106 1 11.0068 1.57177 7.86233 -8.94986
107 1 12.5796 1.85324e-15 6.28959 -8.95103
108 1 14.1523 1.57154 7.86235 -8.94975
109 1 15.7249 8.32602e-16 6.28971 -8.94976
110 1 17.2973 1.57166 7.86206 -8.94935
111 1 18.8694 2.84588e-16 6.28952 -8.94939
112 1 20.4413 1.57183 7.86191 -8.94943
113 1 -0.00086887 3.14368 6.28905 -8.94931
114 1 1.56976 4.71494 7.8611 -8.94887
115 1 3.14255 3.14236 6.28822 -8.94949
116 1 4.71256 4.71137 7.85991 -8.94904
117 1 6.28749 3.14014 6.28749 -8.95166
118 1 7.8598 4.70856 7.8598 -8.96114
119 1 9.43473 3.1407 6.28746 -8.95084
120 1 11.0068 4.71469 7.86013 -8.95454
121 1 12.5804 3.14067 6.28835 -8.95376
122 1 14.1536 4.71429 7.86171 -8.95007
123 1 15.7257 3.1426 6.28929 -8.94993
124 1 17.2984 4.71527 7.86172 -8.94839
125 1 18.8697 3.14366 6.28937 -8.94924
126 1 20.4413 4.71587 7.86169 -8.94933
127 1 22.0125 6.28847 6.28874 -8.95066
128 1 1.56822 7.86064 7.86103 -8.95283
129 1 3.1381 6.28505 6.28526 -8.94866
130 1 4.70127 7.85139 7.85345 -8.95013
131 1 6.27536 6.27489 6.27536 -8.92686
132 1 7.82183 7.82079 7.82183 -8.8395
133 1 9.43409 6.2771 6.27928 -8.94937
134 1 11.0327 7.84704 7.81797 -8.8775
135 1 12.591 6.27247 6.27568 -8.9505
136 1 14.1639 7.85492 7.85633 -8.94823
137 1 15.7309 6.2845 6.28626 -8.95016
138 1 17.3 7.86104 7.86218 -8.95221
139 1 18.871 6.2883 6.28915 -8.95056
140 1 20.4414 7.86147 7.86193 -8.9504
141 1 22.0142 9.43446 6.2891 -8.94978
142 1 3.14347 9.4352 6.28901 -8.94918
143 1 6.28807 9.43856 6.28807 -8.9651
144 1 9.41358 9.40402 6.2686 -8.89731
145 1 12.6341 9.38972 6.23332 -8.82636
146 1 15.7397 9.43073 6.28165 -8.95858
147 1 18.8733 9.43399 6.28847 -8.9522
148 1 22.0132 6.63673e-17 9.43443 -8.94945
149 1 3.14354 1.71805e-15 9.43446 -8.94954
150 1 6.28904 1.28172e-15 9.43471 -8.95061
151 1 9.43464 1.47777e-15 9.43464 -8.94738
152 1 12.5794 1.43366e-15 9.43474 -8.94916
153 1 15.7248 -8.81931e-17 9.4346 -8.94966
154 1 18.8693 -4.38777e-16 9.43454 -8.94947
155 1 -0.00105604 3.14352 9.43434 -8.94937
156 1 3.14243 3.14221 9.43426 -8.94926
157 1 6.28746 3.1407 9.43473 -8.95084
158 1 9.43438 3.14627 9.43438 -8.94412
159 1 12.5793 3.1448 9.43447 -8.94856
177 1 4.71578 1.57065 11.0074 -8.94965
180 1 14.1521 1.57174 11.0067 -8.94952
184 1 4.71186 4.71136 11.0082 -8.94689
187 1 14.1531 4.71516 11.0055 -8.94829
188 1 17.298 4.71539 11.0068 -8.94865
189 1 20.441 4.71577 11.007 -8.94939
194 1 14.1591 7.85845 11.0015 -8.94945
21 1 9.43434 3.14352 -0.00105604 -8.94937
176 1 1.57113 1.57145 11.0071 -8.94941
343 1 18.8702 9.43402 18.8702 -8.9493
178 1 7.86233 1.57177 11.0068 -8.94986
179 1 11.0066 1.57272 11.0066 -8.9485
342 1 15.7265 9.43363 18.871 -8.94911
181 1 17.2971 1.57172 11.007 -8.94943
182 1 20.4412 1.57181 11.007 -8.94944
183 1 1.56936 4.71463 11.0072 -8.94907
341 1 12.5797 9.43421 18.871 -8.95362
185 1 7.86013 4.71469 11.0068 -8.95454
186 1 11.0057 4.71975 11.0057 -8.94876
340 1 9.43444 9.43441 18.8687 -8.94755
339 1 6.28847 9.43399 18.8733 -8.9522
338 1 3.14265 9.43373 18.8726 -8.9492
337 1 22.0131 9.43407 18.8707 -8.94931
336 1 20.4419 7.86148 20.4419 -8.94936
192 1 7.81797 7.84704 11.0327 -8.8775
193 1 11.0292 7.86885 11.0292 -8.90191
49 1 18.8707 9.43407 22.0131 -8.94931
195 1 17.2988 7.86073 11.0056 -8.95028
196 1 20.4404 7.86111 11.0067 -8.95023
197 1 22.0132 1.45638e-15 12.5796 -8.94942
198 1 1.57119 1.57134 14.1525 -8.94939
199 1 3.14363 1.27223e-15 12.5799 -8.9495
200 1 4.71628 1.57044 14.1529 -8.95115
201 1 6.28959 1.69518e-15 12.5796 -8.95103
202 1 7.86235 1.57154 14.1523 -8.94975
203 1 9.43474 1.35176e-15 12.5794 -8.94916
204 1 11.0067 1.57174 14.1521 -8.94952
205 1 12.5791 -1.16778e-16 12.5791 -8.9511
206 1 14.1522 1.57079 14.1522 -8.95154
207 1 15.7246 -1.23296e-16 12.5793 -8.94956
208 1 17.297 1.57165 14.1519 -8.94965
209 1 18.8692 1.20898e-15 12.5795 -8.94942
210 1 20.4412 1.5718 14.1521 -8.94939
211 1 22.0127 3.14343 12.5798 -8.94927
212 1 1.56913 4.71418 14.1537 -8.94953
213 1 3.1424 3.14188 12.5805 -8.94898
214 1 4.71139 4.70895 14.1575 -8.94885
215 1 6.28835 3.14067 12.5804 -8.95376
216 1 7.86171 4.71429 14.1536 -8.95007
217 1 9.43447 3.1448 12.5793 -8.94856
218 1 11.0055 4.71516 14.1531 -8.94829
219 1 12.5793 3.1419 12.5793 -8.95498
220 1 14.1558 4.7093 14.1558 -8.95155
221 1 15.725 3.14315 12.5792 -8.94946
222 1 17.2984 4.71486 14.1526 -8.95035
223 1 18.8693 3.1437 12.5795 -8.94922
224 1 20.4409 4.71574 14.1524 -8.94969
225 1 -0.00273799 6.28777 12.58 -8.94981
226 1 1.5651 7.85862 14.1559 -8.95175
227 1 3.13691 6.28401 12.5826 -8.94911
228 1 4.69626 7.84427 14.1718 -8.92326
229 1 6.27568 6.27247 12.591 -8.9505
230 1 7.85633 7.85492 14.1639 -8.94823
231 1 9.43199 6.29158 12.5784 -8.94966
232 1 11.0015 7.85845 14.1591 -8.94945
233 1 12.5866 6.27294 12.5866 -8.96279
234 1 14.1759 7.83805 14.1759 -8.90396
235 1 15.7282 6.28596 12.5796 -8.95071
236 1 17.3033 7.85856 14.1551 -8.95339
237 1 18.8698 6.28824 12.5794 -8.94974
238 1 20.4409 7.8608 14.153 -8.9515
239 1 22.0097 9.4339 12.5804 -8.9524
240 1 3.12858 9.43106 12.5861 -8.95934
241 1 6.23332 9.38972 12.6341 -8.82636
242 1 9.40473 9.43413 12.5704 -8.81587
243 1 12.648 9.36366 12.648 -8.71436
244 1 15.7386 9.43134 12.584 -8.96621
245 1 18.871 9.43421 12.5797 -8.95362
246 1 -0.000662105 1.48909e-15 15.7247 -8.94945
247 1 1.57133 1.57132 17.2978 -8.94929
248 1 3.14387 1.20854e-15 15.7253 -8.95019
249 1 4.71687 1.57147 17.2975 -8.94979
250 1 6.28971 9.6313e-16 15.7249 -8.94976
251 1 7.86206 1.57166 17.2973 -8.94935
252 1 9.4346 -1.8818e-17 15.7248 -8.94966
253 1 11.007 1.57172 17.2971 -8.94943
254 1 12.5793 4.6956e-16 15.7246 -8.94956
255 1 14.1519 1.57165 17.297 -8.94965
256 1 15.7248 1.74038e-15 15.7248 -8.95047
257 1 17.2975 1.57131 17.2975 -8.94946
258 1 18.8692 1.57285e-15 15.7245 -8.94966
259 1 20.4414 1.57172 17.2972 -8.94956
260 1 -0.00113591 3.14333 15.7252 -8.94956
261 1 1.56992 4.71437 17.2995 -8.94769
262 1 3.14237 3.14137 15.7268 -8.94911
263 1 4.7155 4.7143 17.2997 -8.9499
264 1 6.28929 3.1426 15.7257 -8.94993
265 1 7.86172 4.71527 17.2984 -8.94839
266 1 9.43438 3.14315 15.7253 -8.94926
267 1 11.0068 4.71539 17.298 -8.94865
268 1 12.5792 3.14315 15.725 -8.94946
269 1 14.1526 4.71486 17.2984 -8.95035
270 1 15.7261 3.14149 15.7261 -8.94973
271 1 17.2992 4.71396 17.2992 -8.9467
272 1 18.8696 3.14343 15.7248 -8.94984
273 1 20.4415 4.71551 17.2981 -8.94942
274 1 22.0115 6.28737 15.7265 -8.95012
275 1 1.56955 7.86026 17.3 -8.94888
276 1 3.13734 6.28254 15.7318 -8.94271
277 1 4.71315 7.85861 17.3041 -8.95099
278 1 6.28626 6.2845 15.7309 -8.95016
279 1 7.86218 7.86104 17.3 -8.95221
280 1 9.43345 6.28642 15.7277 -8.94347
281 1 11.0056 7.86073 17.2988 -8.95028
282 1 12.5796 6.28596 15.7282 -8.95071
283 1 14.1551 7.85856 17.3033 -8.95339
284 1 15.7322 6.2811 15.7322 -8.93849
285 1 17.2992 7.86029 17.2992 -8.94893
286 1 18.8711 6.28728 15.7262 -8.95031
287 1 20.4414 7.86102 17.2983 -8.9492
288 1 -0.00262716 9.43358 15.7269 -8.94929
289 1 3.13735 9.43202 15.7317 -8.94674
290 1 6.28165 9.43073 15.7397 -8.95858
291 1 9.43363 9.43679 15.7212 -8.94756
292 1 12.584 9.43134 15.7386 -8.96621
293 1 15.7306 9.43221 15.7306 -8.94604
294 1 18.871 9.43363 15.7265 -8.94911
295 1 22.0135 1.71947e-15 18.8696 -8.9491
296 1 1.57195 1.5718 20.4417 -8.94934
297 1 3.14442 1.56026e-15 18.8695 -8.94966
298 1 4.71688 1.57186 20.4414 -8.94944
299 1 6.28952 1.18053e-15 18.8694 -8.94939
300 1 7.86191 1.57183 20.4413 -8.94943
301 1 9.43454 6.86895e-16 18.8693 -8.94947
302 1 11.007 1.57181 20.4412 -8.94944
303 1 12.5795 1.22962e-15 18.8692 -8.94942
304 1 14.1521 1.5718 20.4412 -8.94939
305 1 15.7245 1.83999e-15 18.8692 -8.94966
306 1 17.2972 1.57172 20.4414 -8.94956
307 1 18.8695 1.88858e-15 18.8695 -8.94923
308 1 20.4417 1.57182 20.4417 -8.94879
309 1 22.0133 3.14358 18.8701 -8.94888
310 1 1.57165 4.71616 20.4424 -8.94956
311 1 3.14393 3.14338 18.8702 -8.94965
312 1 4.71649 4.71602 20.4418 -8.95005
313 1 6.28937 3.14366 18.8697 -8.94924
314 1 7.86169 4.71587 20.4413 -8.94933
315 1 9.43445 3.14366 18.8695 -8.94941
316 1 11.007 4.71577 20.441 -8.94939
317 1 12.5795 3.1437 18.8693 -8.94922
318 1 14.1524 4.71574 20.4409 -8.94969
319 1 15.7248 3.14343 18.8696 -8.94984
320 1 17.2981 4.71551 20.4415 -8.94942
321 1 18.8699 3.14339 18.8699 -8.9486
322 1 20.4418 4.7163 20.4418 -8.94941
323 1 -0.000727335 6.28852 18.8705 -8.9493
324 1 1.57157 7.86143 20.4427 -8.94937
325 1 3.14294 6.28766 18.8722 -8.94969
326 1 4.71627 7.86134 20.4434 -8.95036
327 1 6.28915 6.2883 18.871 -8.95056
328 1 7.86193 7.86147 20.4414 -8.9504
329 1 9.43423 6.28803 18.8701 -8.94935
330 1 11.0067 7.86111 20.4404 -8.95023
331 1 12.5794 6.28824 18.8698 -8.94974
332 1 14.153 7.8608 20.4409 -8.9515
333 1 15.7262 6.28728 18.8711 -8.95031
334 1 17.2983 7.86102 20.4414 -8.9492
335 1 18.8701 6.2884 18.8701 -8.94936
1 1 22.0137 1.03712e-15 22.0137 -8.9491
5 1 6.28929 6.28547e-16 22.0133 -8.94941
9 1 12.5796 1.48781e-15 22.0132 -8.94942
13 1 18.8696 1.74597e-15 22.0135 -8.9491
17 1 3.14395 3.14377 22.0133 -8.94935
47 1 12.5804 9.4339 22.0097 -8.9524
23 1 12.5798 3.14343 22.0127 -8.94927
27 1 18.8701 3.14358 22.0133 -8.94888
29 1 22.0139 6.28904 22.0139 -8.94942
33 1 6.28874 6.28847 22.0125 -8.95066
39 1 15.7265 6.28737 22.0115 -8.95012
43 1 22.014 9.43428 22.014 -8.94946
45 1 6.2891 9.43446 22.0142 -8.94978
46 1 9.43432 9.43421 22.0117 -8.94936
7 1 9.43443 2.62812e-18 22.0132 -8.94945
35 1 9.43409 6.2879 22.0117 -8.94966
344 1 1.57211 11.007 1.57211 -8.94952
345 1 4.71633 11.007 1.57198 -8.9498
346 1 7.86169 11.007 1.57143 -8.94673
347 1 11.0078 11.007 1.56673 -8.94911
348 1 14.1567 11.007 1.56475 -8.94934
349 1 17.3002 11.007 1.56941 -8.94915
350 1 20.4428 11.007 1.57151 -8.94944
688 3 10.4716 11.007 9.41537 2.33451
352 1 1.57205 14.1521 1.57205 -8.94937
353 1 3.14399 12.5796 0.000602157 -8.94961
354 1 4.71637 14.1519 1.57162 -8.95013
687 3 9.41537 11.007 10.4716 2.33451
356 1 7.86103 14.1533 1.56822 -8.95283
511 1 18.8695 18.8702 9.43445 -8.94941
358 1 11.0072 14.1542 1.56615 -8.95118
510 1 15.7253 18.8707 9.43438 -8.94926
360 1 14.1559 14.1553 1.5651 -8.95175
361 1 15.7269 12.5803 -0.00262716 -8.94929
362 1 17.3 14.1536 1.56955 -8.94888
509 1 12.5793 18.8691 9.43447 -8.94856
364 1 20.4427 14.1525 1.57157 -8.94937
508 1 9.43438 18.8676 9.43438 -8.94412
366 1 1.57165 17.2976 1.57165 -8.95004
367 1 3.14404 15.7249 0.000228692 -8.95007
368 1 4.71526 17.2987 1.56988 -8.94906
507 1 6.28746 18.8732 9.43473 -8.95084
370 1 7.8611 17.299 1.56976 -8.94887
537 1 14.1521 20.4422 11.0067 -8.94952
372 1 11.0072 17.2993 1.56936 -8.94907
373 1 12.58 15.7261 -0.00273799 -8.94981
374 1 14.1537 17.2997 1.56913 -8.94953
506 1 3.14243 18.8717 9.43426 -8.94926
376 1 17.2995 17.2995 1.56992 -8.94769
377 1 18.8705 15.7254 -0.000727335 -8.9493
378 1 20.4424 17.2977 1.57165 -8.94956
379 1 -0.000150439 18.8699 -0.000150439 -8.94943
380 1 1.57163 20.4421 1.57163 -8.94911
505 1 -0.00105604 18.8704 9.43434 -8.94937
382 1 4.7164 20.4423 1.57132 -8.94949
383 1 6.28905 18.8702 -0.00086887 -8.94931
384 1 7.86168 20.4424 1.57122 -8.94937
504 1 18.8701 15.7259 9.43423 -8.94935
386 1 11.0071 20.4425 1.57113 -8.94941
503 1 15.7277 15.7275 9.43345 -8.94347
388 1 14.1525 20.4426 1.57119 -8.94939
389 1 15.7252 18.8706 -0.00113591 -8.94956
390 1 17.2978 20.4426 1.57133 -8.94929
502 1 12.5784 15.7223 9.43199 -8.94966
392 1 20.4417 20.4421 1.57195 -8.94934
393 1 1.57198 11.007 4.71633 -8.9498
394 1 4.71525 11.007 4.71525 -8.94553
395 1 7.86394 11.007 4.71952 -8.93213
396 1 11.0154 11.007 4.70383 -9.01612
397 1 14.1682 11.007 4.69876 -8.93961
398 1 17.3043 11.007 4.71242 -8.94868
399 1 20.4438 11.007 4.71602 -8.95005
400 1 0.000602157 12.5796 3.14399 -8.94961
401 1 1.57162 14.1519 4.71637 -8.95013
402 1 3.14384 12.5795 3.14384 -8.94876
403 1 4.71431 14.1524 4.71431 -8.95467
404 1 6.28901 12.5787 3.14347 -8.94918
405 1 7.85345 14.1625 4.70127 -8.95013
406 1 9.43432 12.5808 3.13814 -8.95236
407 1 11.0095 14.1606 4.69915 -8.95247
408 1 12.5861 12.5828 3.12858 -8.95934
409 1 14.1718 14.1696 4.69626 -8.92326
410 1 15.7317 12.5819 3.13735 -8.94674
411 1 17.3041 14.1553 4.71315 -8.95099
412 1 18.8726 12.5802 3.14265 -8.9492
413 1 20.4434 14.1526 4.71627 -8.95036
414 1 0.000228692 15.7249 3.14404 -8.95007
415 1 1.56988 17.2987 4.71526 -8.94906
416 1 3.14302 15.7252 3.14302 -8.95125
417 1 4.7119 17.302 4.7119 -8.944
418 1 6.28526 15.7289 3.1381 -8.94866
419 1 7.85991 17.3025 4.71256 -8.94904
420 1 9.4336 15.7291 3.13818 -8.947
421 1 11.0082 17.3025 4.71186 -8.94689
422 1 12.5826 15.7299 3.13691 -8.94911
423 1 14.1575 17.305 4.71139 -8.94885
424 1 15.7318 15.7314 3.13734 -8.94271
425 1 17.2997 17.2996 4.7155 -8.9499
426 1 18.8722 15.7262 3.14294 -8.94969
427 1 20.4418 17.2979 4.71649 -8.95005
428 1 22.0133 18.8701 3.14395 -8.94935
429 1 1.57132 20.4423 4.7164 -8.94949
430 1 3.14278 18.871 3.14278 -8.94814
431 1 4.71578 20.4431 4.71578 -8.95004
432 1 6.28822 18.8715 3.14255 -8.94949
433 1 7.86162 20.4432 4.71583 -8.94984
434 1 9.43426 18.8717 3.14243 -8.94926
435 1 11.0074 20.4433 4.71578 -8.94965
436 1 12.5805 18.872 3.1424 -8.94898
437 1 14.1529 20.4435 4.71628 -8.95115
438 1 15.7268 18.8725 3.14237 -8.94911
439 1 17.2975 20.4424 4.71687 -8.94979
440 1 18.8702 18.8705 3.14393 -8.94965
441 1 20.4414 20.442 4.71688 -8.94944
442 1 1.57143 11.007 7.86169 -8.94673
443 1 4.71952 11.007 7.86394 -8.93213
444 1 7.8959 11.007 7.8959 -8.89608
445 1 11.091 11.007 7.54535 -7.9789
446 1 14.1628 11.007 7.84335 -8.96334
447 1 17.3004 11.007 7.86092 -8.95075
448 1 20.4421 11.007 7.8619 -8.94941
449 1 22.0142 12.5794 6.2891 -8.94978
450 1 1.56822 14.1533 7.86103 -8.95283
451 1 3.14347 12.5787 6.28901 -8.94918
452 1 4.70127 14.1625 7.85345 -8.95013
453 1 6.28807 12.5753 6.28807 -8.9651
454 1 7.82183 14.1931 7.82183 -8.8395
455 1 9.41358 12.6099 6.2686 -8.89731
456 1 11.0327 14.1669 7.81797 -8.8775
457 1 12.6341 12.6242 6.23332 -8.82636
458 1 14.1639 14.159 7.85633 -8.94823
459 1 15.7397 12.5832 6.28165 -8.95858
460 1 17.3 14.1529 7.86218 -8.95221
461 1 18.8733 12.5799 6.28847 -8.9522
462 1 20.4414 14.1524 7.86193 -8.9504
463 1 22.0125 15.7254 6.28874 -8.95066
464 1 1.56976 17.299 7.8611 -8.94887
465 1 3.1381 15.7289 6.28526 -8.94866
466 1 4.71256 17.3025 7.85991 -8.94904
467 1 6.27536 15.739 6.27536 -8.92686
468 1 7.8598 17.3053 7.8598 -8.96114
469 1 9.43409 15.7368 6.27928 -8.94937
470 1 11.0068 17.2992 7.86013 -8.95454
471 1 12.591 15.7414 6.27568 -8.9505
472 1 14.1536 17.2996 7.86171 -8.95007
473 1 15.7309 15.7294 6.28626 -8.95016
474 1 17.2984 17.2986 7.86172 -8.94839
475 1 18.871 15.7256 6.28915 -8.95056
476 1 20.4413 17.298 7.86169 -8.94933
477 1 -0.00086887 18.8702 6.28905 -8.94931
478 1 1.57122 20.4424 7.86168 -8.94937
479 1 3.14255 18.8715 6.28822 -8.94949
480 1 4.71583 20.4432 7.86162 -8.94984
481 1 6.28749 18.8738 6.28749 -8.95166
482 1 7.86198 20.4432 7.86198 -8.95174
483 1 9.43473 18.8732 6.28746 -8.95084
484 1 11.0068 20.4421 7.86233 -8.94986
485 1 12.5804 18.8732 6.28835 -8.95376
486 1 14.1523 20.4424 7.86235 -8.94975
487 1 15.7257 18.8713 6.28929 -8.94993
488 1 17.2973 20.4422 7.86206 -8.94935
489 1 18.8697 18.8702 6.28937 -8.94924
490 1 20.4413 20.4421 7.86191 -8.94943
491 1 22.0117 12.5797 9.43432 -8.94936
492 1 3.13814 12.5808 9.43432 -8.95236
493 1 6.2686 12.6099 9.41358 -8.89731
494 1 9.39037 12.8197 9.39037 -7.74061
495 1 12.5704 12.5798 9.40473 -8.81587
496 1 15.7212 12.5771 9.43363 -8.94756
497 1 18.8687 12.5795 9.43444 -8.94755
498 1 22.0117 15.726 9.43409 -8.94966
499 1 3.13818 15.7291 9.4336 -8.947
500 1 6.27928 15.7368 9.43409 -8.94937
501 1 9.43208 15.711 9.43208 -9.01128
512 1 1.56673 11.007 11.0078 -8.94911
517 1 17.2959 11.007 11.0063 -8.94409
519 1 1.56615 14.1542 11.0072 -8.95118
520 1 4.69915 14.1606 11.0095 -8.95247
527 1 4.71186 17.3025 11.0082 -8.94689
530 1 14.1531 17.2987 11.0055 -8.94829
531 1 17.298 17.2985 11.0068 -8.94865
532 1 20.441 17.2981 11.007 -8.94939
534 1 4.71578 20.4433 11.0074 -8.94965
518 1 20.4399 11.007 11.0066 -8.94846
523 1 14.1591 14.1554 11.0015 -8.94945
385 1 9.43434 18.8704 -0.00105604 -8.94937
686 1 20.4417 20.4421 20.4417 -8.94879
513 1 4.70383 11.007 11.0154 -9.01612
514 1 7.54535 11.007 11.091 -7.9789
515 1 11.2783 11.007 11.2783 -7.32544
516 1 14.1416 11.007 11.0187 -9.01204
685 1 18.8699 18.8705 18.8699 -8.9486
391 1 18.8701 18.8703 22.0133 -8.94888
684 1 17.2972 20.4422 20.4414 -8.94956
683 1 15.7248 18.8705 18.8696 -8.94984
521 1 7.81797 14.1669 11.0327 -8.8775
522 1 11.0292 14.1451 11.0292 -8.90191
387 1 12.5798 18.8705 22.0127 -8.94927
524 1 17.2988 14.1532 11.0056 -8.95028
525 1 20.4404 14.1528 11.0067 -8.95023
526 1 1.56936 17.2993 11.0072 -8.94907
682 1 14.1521 20.4421 20.4412 -8.94939
528 1 7.86013 17.2992 11.0068 -8.95454
529 1 11.0057 17.2941 11.0057 -8.94876
681 1 12.5795 18.8702 18.8693 -8.94922
680 1 11.007 20.4421 20.4412 -8.94944
679 1 9.43445 18.8702 18.8695 -8.94941
533 1 1.57113 20.4425 11.0071 -8.94941
678 1 7.86191 20.4421 20.4413 -8.94943
535 1 7.86233 20.4421 11.0068 -8.94986
536 1 11.0066 20.4412 11.0066 -8.9485
677 1 6.28937 18.8702 18.8697 -8.94924
538 1 17.2971 20.4422 11.007 -8.94943
539 1 20.4412 20.4421 11.007 -8.94944
540 1 1.56475 11.007 14.1567 -8.94934
541 1 4.69876 11.007 14.1682 -8.93961
542 1 7.84335 11.007 14.1628 -8.96334
543 1 11.0187 11.007 14.1416 -9.01204
544 1 14.1669 11.007 14.1669 -8.93787
545 1 17.3027 11.007 14.1559 -8.94853
546 1 20.4408 11.007 14.1535 -8.95068
547 1 22.0097 12.58 12.5804 -8.9524
548 1 1.5651 14.1553 14.1559 -8.95175
549 1 3.12858 12.5828 12.5861 -8.95934
550 1 4.69626 14.1696 14.1718 -8.92326
551 1 6.23332 12.6242 12.6341 -8.82636
552 1 7.85633 14.159 14.1639 -8.94823
553 1 9.40473 12.5798 12.5704 -8.81587
554 1 11.0015 14.1554 14.1591 -8.94945
555 1 12.648 12.6502 12.648 -8.71436
556 1 14.1759 14.1758 14.1759 -8.90396
557 1 15.7386 12.5826 12.584 -8.96621
558 1 17.3033 14.1553 14.1551 -8.95339
559 1 18.871 12.5797 12.5797 -8.95362
560 1 20.4409 14.1531 14.153 -8.9515
561 1 -0.00273799 15.7261 12.58 -8.94981
562 1 1.56913 17.2997 14.1537 -8.94953
563 1 3.13691 15.7299 12.5826 -8.94911
564 1 4.71139 17.305 14.1575 -8.94885
565 1 6.27568 15.7414 12.591 -8.9505
566 1 7.86171 17.2996 14.1536 -8.95007
567 1 9.43199 15.7223 12.5784 -8.94966
568 1 11.0055 17.2987 14.1531 -8.94829
569 1 12.5866 15.741 12.5866 -8.96279
570 1 14.1558 17.3046 14.1558 -8.95155
571 1 15.7282 15.7279 12.5796 -8.95071
572 1 17.2984 17.299 14.1526 -8.95035
573 1 18.8698 15.7257 12.5794 -8.94974
574 1 20.4409 17.2982 14.1524 -8.94969
575 1 22.0127 18.8705 12.5798 -8.94927
576 1 1.57119 20.4426 14.1525 -8.94939
577 1 3.1424 18.872 12.5805 -8.94898
578 1 4.71628 20.4435 14.1529 -8.95115
579 1 6.28835 18.8732 12.5804 -8.95376
580 1 7.86235 20.4424 14.1523 -8.94975
581 1 9.43447 18.8691 12.5793 -8.94856
582 1 11.0067 20.4422 14.1521 -8.94952
583 1 12.5793 18.872 12.5793 -8.95498
584 1 14.1522 20.4431 14.1522 -8.95154
585 1 15.725 18.8708 12.5792 -8.94946
586 1 17.297 20.4423 14.1519 -8.94965
587 1 18.8693 18.8702 12.5795 -8.94922
588 1 20.4412 20.4421 14.1521 -8.94939
589 1 1.56941 11.007 17.3002 -8.94915
590 1 4.71242 11.007 17.3043 -8.94868
591 1 7.86092 11.007 17.3004 -8.95075
592 1 11.0063 11.007 17.2959 -8.94409
593 1 14.1559 11.007 17.3027 -8.94853
594 1 17.2994 11.007 17.2994 -8.94921
595 1 20.4414 11.007 17.2985 -8.94937
596 1 -0.00262716 12.5803 15.7269 -8.94929
597 1 1.56955 14.1536 17.3 -8.94888
598 1 3.13735 12.5819 15.7317 -8.94674
599 1 4.71315 14.1553 17.3041 -8.95099
600 1 6.28165 12.5832 15.7397 -8.95858
601 1 7.86218 14.1529 17.3 -8.95221
602 1 9.43363 12.5771 15.7212 -8.94756
603 1 11.0056 14.1532 17.2988 -8.95028
604 1 12.584 12.5826 15.7386 -8.96621
605 1 14.1551 14.1553 17.3033 -8.95339
606 1 15.7306 12.5817 15.7306 -8.94604
607 1 17.2992 14.1536 17.2992 -8.94893
608 1 18.871 12.5803 15.7265 -8.94911
609 1 20.4414 14.1529 17.2983 -8.9492
610 1 22.0115 15.7265 15.7265 -8.95012
611 1 1.56992 17.2995 17.2995 -8.94769
612 1 3.13734 15.7314 15.7318 -8.94271
613 1 4.7155 17.2996 17.2997 -8.9499
614 1 6.28626 15.7294 15.7309 -8.95016
615 1 7.86172 17.2986 17.2984 -8.94839
616 1 9.43345 15.7275 15.7277 -8.94347
617 1 11.0068 17.2985 17.298 -8.94865
618 1 12.5796 15.7279 15.7282 -8.95071
619 1 14.1526 17.299 17.2984 -8.95035
620 1 15.7322 15.7328 15.7322 -8.93849
621 1 17.2992 17.2999 17.2992 -8.9467
622 1 18.8711 15.7266 15.7262 -8.95031
623 1 20.4415 17.2984 17.2981 -8.94942
624 1 -0.00113591 18.8706 15.7252 -8.94956
625 1 1.57133 20.4426 17.2978 -8.94929
626 1 3.14237 18.8725 15.7268 -8.94911
627 1 4.71687 20.4424 17.2975 -8.94979
628 1 6.28929 18.8713 15.7257 -8.94993
629 1 7.86206 20.4422 17.2973 -8.94935
630 1 9.43438 18.8707 15.7253 -8.94926
631 1 11.007 20.4422 17.2971 -8.94943
632 1 12.5792 18.8708 15.725 -8.94946
633 1 14.1519 20.4423 17.297 -8.94965
634 1 15.7261 18.8724 15.7261 -8.94973
635 1 17.2975 20.4426 17.2975 -8.94946
636 1 18.8696 18.8705 15.7248 -8.94984
637 1 20.4414 20.4422 17.2972 -8.94956
638 1 1.57151 11.007 20.4428 -8.94944
639 1 4.71602 11.007 20.4438 -8.95005
640 1 7.8619 11.007 20.4421 -8.94941
641 1 11.0066 11.007 20.4399 -8.94846
642 1 14.1535 11.007 20.4408 -8.95068
643 1 17.2985 11.007 20.4414 -8.94937
644 1 20.4419 11.007 20.4419 -8.9494
645 1 22.0131 12.5798 18.8707 -8.94931
646 1 1.57157 14.1525 20.4427 -8.94937
647 1 3.14265 12.5802 18.8726 -8.9492
648 1 4.71627 14.1526 20.4434 -8.95036
649 1 6.28847 12.5799 18.8733 -8.9522
650 1 7.86193 14.1524 20.4414 -8.9504
651 1 9.43444 12.5795 18.8687 -8.94755
652 1 11.0067 14.1528 20.4404 -8.95023
653 1 12.5797 12.5797 18.871 -8.95362
654 1 14.153 14.1531 20.4409 -8.9515
655 1 15.7265 12.5803 18.871 -8.94911
656 1 17.2983 14.1529 20.4414 -8.9492
657 1 18.8702 12.5799 18.8702 -8.9493
658 1 20.4419 14.1524 20.4419 -8.94936
659 1 -0.000727335 15.7254 18.8705 -8.9493
660 1 1.57165 17.2977 20.4424 -8.94956
661 1 3.14294 15.7262 18.8722 -8.94969
662 1 4.71649 17.2979 20.4418 -8.95005
663 1 6.28915 15.7256 18.871 -8.95056
664 1 7.86169 17.298 20.4413 -8.94933
665 1 9.43423 15.7259 18.8701 -8.94935
666 1 11.007 17.2981 20.441 -8.94939
667 1 12.5794 15.7257 18.8698 -8.94974
668 1 14.1524 17.2982 20.4409 -8.94969
669 1 15.7262 15.7266 18.8711 -8.95031
670 1 17.2981 17.2984 20.4415 -8.94942
671 1 18.8701 15.7255 18.8701 -8.94936
672 1 20.4418 17.2976 20.4418 -8.94941
673 1 22.0133 18.8703 18.8701 -8.94888
674 1 1.57195 20.4421 20.4417 -8.94934
675 1 3.14393 18.8705 18.8702 -8.94965
676 1 4.71688 20.442 20.4414 -8.94944
351 1 22.014 12.5796 22.014 -8.94946
355 1 6.2891 12.5794 22.0142 -8.94978
357 1 9.43432 12.5797 22.0117 -8.94936
359 1 12.5804 12.58 22.0097 -8.9524
363 1 18.8707 12.5798 22.0131 -8.94931
365 1 22.0139 15.7249 22.0139 -8.94942
369 1 6.28874 15.7254 22.0125 -8.95066
375 1 15.7265 15.7265 22.0115 -8.95012
381 1 3.14395 18.8701 22.0133 -8.94935
371 1 9.43409 15.726 22.0117 -8.94966
