ITEM: TIMESTEP
80
ITEM: NUMBER OF ATOMS
688
ITEM: BOX BOUNDS pp pp pp
0.0000000000000000e+00 2.2013900999999997e+01
0.0000000000000000e+00 2.2013900999999997e+01
0.0000000000000000e+00 2.2013900999999997e+01
ITEM: ATOMS id type x y z c_pot
175 1 18.8692 9.43444 9.43472 -8.94769
2 1 1.57189 1.57204 1.57189 -8.94917
3 1 3.14458 7.53854e-16 -0.000272287 -8.94958
4 1 4.71677 1.57189 1.57172 -8.94957
174 1 15.7219 9.4366 9.43454 -8.94774
6 1 7.86187 1.57183 1.57166 -8.94943
191 1 4.70109 7.85411 11.0088 -8.95271
8 1 11.007 1.57177 1.57161 -8.94947
173 1 12.5712 9.43278 9.40609 -8.82593
10 1 14.1522 1.57173 1.57168 -8.94944
11 1 15.7244 1.90817e-15 -0.000342674 -8.94953
12 1 17.2974 1.57171 1.57171 -8.94933
172 1 9.38995 9.1866 9.38995 -7.71888
14 1 20.4416 1.57208 1.57216 -8.94946
15 1 -0.000110433 3.14445 -0.000110433 -8.94952
16 1 1.57187 4.71678 1.57187 -8.94998
171 1 6.27102 9.40523 9.41462 -8.89944
18 1 4.71572 4.71576 1.57034 -8.94913
19 1 6.28932 3.14412 -0.000577177 -8.94938
20 1 7.86138 4.71562 1.57041 -8.94891
170 1 3.13946 9.43366 9.43413 -8.95224
22 1 11.007 4.71539 1.57024 -8.94911
169 1 22.0123 9.43439 9.43424 -8.94934
24 1 14.153 4.71512 1.57009 -8.9496
25 1 15.7248 3.14398 -0.000698407 -8.94962
26 1 17.2987 4.71524 1.57057 -8.94772
168 1 18.8702 6.28836 9.43448 -8.94934
28 1 20.4421 4.71668 1.57191 -8.94959
167 1 15.7276 6.28663 9.43426 -8.9438
30 1 1.57204 7.86198 1.57204 -8.94937
31 1 3.14429 6.28937 8.75361e-05 -8.95
32 1 4.71655 7.86221 1.57165 -8.95007
166 1 12.5787 6.29039 9.4328 -8.94966
34 1 7.86116 7.86116 1.56884 -8.95287
190 1 1.5674 7.86032 11.0068 -8.95118
36 1 11.0068 7.86032 1.5674 -8.95118
37 1 12.5797 6.28842 -0.00189762 -8.94978
38 1 14.1548 7.8594 1.5665 -8.9518
165 1 9.43217 6.30074 9.43217 -9.01252
40 1 17.2989 7.86097 1.57044 -8.94898
41 1 18.8699 6.28913 -0.000482482 -8.94942
42 1 20.4422 7.86178 1.57182 -8.94942
164 1 6.28045 6.27762 9.43423 -8.94912
44 1 3.14415 9.4344 0.000203551 -8.94959
163 1 3.13934 6.28568 9.43358 -8.94707
162 1 22.0123 6.28842 9.43414 -8.94965
161 1 18.8695 3.14402 9.43454 -8.94949
48 1 15.7259 9.43395 -0.00183422 -8.9493
160 1 15.7253 3.14333 9.4346 -8.9493
50 1 -0.000272287 5.62597e-16 3.14458 -8.94958
51 1 1.57172 1.57189 4.71677 -8.94957
52 1 3.14411 1.44813e-15 3.14411 -8.94954
53 1 4.71618 1.5711 4.71618 -8.95004
54 1 6.28929 9.30367e-16 3.14406 -8.94958
55 1 7.86181 1.57102 4.71622 -8.94974
56 1 9.43449 9.03447e-16 3.14397 -8.94954
57 1 11.0073 1.57093 4.71617 -8.94959
58 1 12.5797 9.23167e-16 3.14403 -8.94948
59 1 14.1526 1.57078 4.71656 -8.95105
60 1 15.7249 1.85818e-15 3.1442 -8.95012
61 1 17.2972 1.57181 4.71709 -8.94975
62 1 18.8693 1.80908e-15 3.14466 -8.94969
63 1 20.4415 1.57211 4.71709 -8.94951
64 1 22.0134 3.1442 3.14427 -8.94941
65 1 1.57034 4.71576 4.71572 -8.94913
66 1 3.14324 3.14337 3.14324 -8.94811
67 1 4.71244 4.7125 4.71244 -8.94389
68 1 6.28868 3.143 3.14315 -8.94952
69 1 7.86031 4.71227 4.71337 -8.94899
70 1 9.43432 3.14285 3.1431 -8.94929
71 1 11.0079 4.71209 4.71298 -8.9469
72 1 12.58 3.1426 3.14314 -8.949
73 1 14.1568 4.70977 4.7124 -8.94879
74 1 15.7262 3.14216 3.14299 -8.94907
75 1 17.299 4.71512 4.71613 -8.94986
76 1 18.8698 3.14396 3.14431 -8.94968
77 1 20.4416 4.71652 4.7168 -8.94999
78 1 8.75361e-05 6.28937 3.14429 -8.95
79 1 1.57165 7.86221 4.71655 -8.95007
80 1 3.14336 6.2891 3.14336 -8.95104
81 1 4.71455 7.86193 4.71455 -8.95421
82 1 6.2858 6.2859 3.13881 -8.94893
83 1 7.85396 7.85258 4.70231 -8.95109
84 1 9.43358 6.28568 3.13934 -8.94707
85 1 11.0088 7.85411 4.70109 -8.95271
86 1 12.5817 6.285 3.13845 -8.94921
87 1 14.1706 7.84485 4.6981 -8.92275
88 1 15.7306 6.28357 3.13857 -8.94261
89 1 17.303 7.85925 4.71421 -8.95107
90 1 18.8713 6.28832 3.1435 -8.94972
91 1 20.4429 7.86163 4.71658 -8.95031
92 1 0.000203551 9.4344 3.14415 -8.94959
93 1 3.14381 9.43455 3.14381 -8.94875
94 1 6.28898 9.43548 3.14354 -8.94937
95 1 9.43413 9.43366 3.13946 -8.95224
96 1 12.5849 9.43154 3.1306 -8.95955
97 1 15.7301 9.43254 3.13905 -8.9468
98 1 18.8715 9.43402 3.14334 -8.94924
99 1 22.0136 -1.15565e-17 6.2895 -8.9495
100 1 1.57166 1.57183 7.86187 -8.94943
101 1 3.14406 1.53019e-15 6.28929 -8.94958
102 1 4.71622 1.57102 7.86181 -8.94974
103 1 6.28922 1.19831e-15 6.28922 -8.95077
104 1 7.86209 1.5707 7.86209 -8.95175
105 1 9.43472 1.55818e-15 6.28919 -8.95051
106 1 11.0069 1.57155 7.86241 -8.94994
107 1 12.5796 1.81204e-15 6.28966 -8.951
108 1 14.1523 1.57156 7.86239 -8.94971
109 1 15.7247 1.5912e-15 6.28974 -8.9497
110 1 17.2972 1.57186 7.86212 -8.94941
111 1 18.8693 1.55749e-15 6.28961 -8.94947
112 1 20.4414 1.57206 7.86201 -8.94952
113 1 -0.000577177 3.14412 6.28932 -8.94938
114 1 1.57041 4.71562 7.86138 -8.94891
115 1 3.14315 3.143 6.28868 -8.94952
116 1 4.71337 4.71227 7.86031 -8.94899
117 1 6.28785 3.1406 6.28785 -8.95165
118 1 7.86003 4.7084 7.86003 -8.96099
119 1 9.43481 3.14095 6.28793 -8.95066
120 1 11.0069 4.71397 7.86078 -8.95451
121 1 12.5803 3.14083 6.28881 -8.95373
122 1 14.1536 4.71428 7.86237 -8.94995
123 1 15.7254 3.14307 6.28961 -8.94985
124 1 17.2982 4.7157 7.86208 -8.94853
125 1 18.8695 3.1441 6.28956 -8.94933
126 1 20.4414 4.71633 7.86187 -8.94936
127 1 22.0127 6.28889 6.28899 -8.95062
128 1 1.56884 7.86116 7.86116 -8.95287
129 1 3.13881 6.2859 6.2858 -8.94893
130 1 4.70231 7.85258 7.85396 -8.95109
131 1 6.27562 6.27538 6.27562 -8.92635
132 1 7.82121 7.82038 7.82121 -8.83573
133 1 9.43423 6.27762 6.28045 -8.94912
134 1 11.0338 7.84579 7.81904 -8.87503
135 1 12.5907 6.2725 6.27713 -8.95027
136 1 14.164 7.85482 7.85811 -8.94801
137 1 15.7301 6.28514 6.2874 -8.95007
138 1 17.3 7.86118 7.86285 -8.95214
139 1 18.8706 6.28872 6.28951 -8.95045
140 1 20.4416 7.86168 7.86207 -8.95038
141 1 22.014 9.43457 6.28918 -8.94982
142 1 3.14354 9.43548 6.28898 -8.94937
143 1 6.28779 9.43861 6.28779 -8.96346
144 1 9.41462 9.40523 6.27102 -8.89944
145 1 12.6342 9.3891 6.23537 -8.82406
146 1 15.739 9.43097 6.28347 -8.95876
147 1 18.8727 9.43414 6.28902 -8.95218
148 1 22.0135 -1.21031e-15 9.43448 -8.94953
149 1 3.14397 1.43409e-15 9.43449 -8.94954
150 1 6.28919 1.80099e-15 9.43472 -8.95051
151 1 9.43471 1.526e-15 9.43471 -8.94766
152 1 12.5796 1.77335e-15 9.43477 -8.94931
153 1 15.7248 4.7282e-16 9.43463 -8.94968
154 1 18.8693 -4.47996e-16 9.43455 -8.94955
155 1 -0.000648112 3.14399 9.43441 -8.94945
156 1 3.1431 3.14285 9.43432 -8.94929
157 1 6.28793 3.14095 9.43481 -8.95066
158 1 9.43457 3.14542 9.43457 -8.9445
159 1 12.5796 3.14424 9.43472 -8.94868
177 1 4.71617 1.57093 11.0073 -8.94959
180 1 14.1522 1.57174 11.0069 -8.94947
184 1 4.71298 4.71209 11.0079 -8.9469
187 1 14.1531 4.71523 11.0059 -8.94831
188 1 17.2979 4.71577 11.007 -8.94871
189 1 20.4413 4.71627 11.007 -8.94942
194 1 14.1584 7.85892 11.0022 -8.95044
21 1 9.43441 3.14399 -0.000648112 -8.94945
176 1 1.57161 1.57177 11.007 -8.94947
343 1 18.8697 9.4343 18.8697 -8.94941
178 1 7.86241 1.57155 11.0069 -8.94994
179 1 11.0068 1.57233 11.0068 -8.94874
342 1 15.7258 9.43398 18.8706 -8.94917
181 1 17.2972 1.5719 11.007 -8.94948
182 1 20.4414 1.57205 11.007 -8.94953
183 1 1.57024 4.71539 11.007 -8.94911
341 1 12.5795 9.43438 18.871 -8.95317
185 1 7.86078 4.71397 11.0069 -8.95451
186 1 11.006 4.71848 11.006 -8.94925
340 1 9.43472 9.43444 18.8692 -8.94769
339 1 6.28902 9.43414 18.8727 -8.95218
338 1 3.14334 9.43402 18.8715 -8.94924
337 1 22.0134 9.43432 18.87 -8.94942
336 1 20.4417 7.86186 20.4417 -8.94949
192 1 7.81904 7.84579 11.0338 -8.87503
193 1 11.0288 7.86637 11.0288 -8.90087
49 1 18.87 9.43432 22.0134 -8.94942
195 1 17.2989 7.86099 11.006 -8.95017
196 1 20.4409 7.86141 11.0067 -8.95016
197 1 22.0135 9.22569e-16 12.5795 -8.94951
198 1 1.57168 1.57173 14.1522 -8.94944
199 1 3.14403 1.06615e-15 12.5797 -8.94948
200 1 4.71656 1.57078 14.1526 -8.95105
201 1 6.28966 1.75561e-15 12.5796 -8.951
202 1 7.86239 1.57156 14.1523 -8.94971
203 1 9.43477 1.70495e-15 12.5796 -8.94931
204 1 11.0069 1.57174 14.1522 -8.94947
205 1 12.5793 -5.71049e-16 12.5793 -8.95089
206 1 14.1522 1.5711 14.1522 -8.95124
207 1 15.7246 -2.79542e-16 12.5794 -8.94951
208 1 17.297 1.57194 14.1519 -8.94963
209 1 18.8692 5.83315e-16 12.5795 -8.94948
210 1 20.4414 1.57209 14.1519 -8.94947
211 1 22.0132 3.14398 12.5796 -8.94936
212 1 1.57009 4.71512 14.153 -8.9496
213 1 3.14314 3.1426 12.58 -8.949
214 1 4.7124 4.70977 14.1568 -8.94879
215 1 6.28881 3.14083 12.5803 -8.95373
216 1 7.86237 4.71428 14.1536 -8.94995
217 1 9.43472 3.14424 12.5796 -8.94868
218 1 11.0059 4.71523 14.1531 -8.94831
219 1 12.5794 3.14202 12.5794 -8.95445
220 1 14.1553 4.7105 14.1553 -8.95118
221 1 15.7249 3.14355 12.5793 -8.94943
222 1 17.2981 4.71566 14.1523 -8.9503
223 1 18.8694 3.14412 12.5795 -8.94928
224 1 20.4412 4.71639 14.1521 -8.94967
225 1 -0.00189762 6.28842 12.5797 -8.94978
226 1 1.5665 7.8594 14.1548 -8.9518
227 1 3.13845 6.285 12.5817 -8.94921
228 1 4.6981 7.84485 14.1706 -8.92275
229 1 6.27713 6.2725 12.5907 -8.95027
230 1 7.85811 7.85482 14.164 -8.94801
231 1 9.4328 6.29039 12.5787 -8.94966
232 1 11.0022 7.85892 14.1584 -8.95044
233 1 12.5862 6.27421 12.5862 -8.96143
234 1 14.173 7.84104 14.173 -8.90867
235 1 15.7276 6.2868 12.5795 -8.95082
236 1 17.3022 7.85945 14.1543 -8.9531
237 1 18.8699 6.28873 12.5793 -8.94969
238 1 20.4413 7.86129 14.1525 -8.95126
239 1 22.0107 9.43415 12.5799 -8.95224
240 1 3.1306 9.43154 12.5849 -8.95955
241 1 6.23537 9.3891 12.6342 -8.82406
242 1 9.40609 9.43278 12.5712 -8.82593
243 1 12.6425 9.36967 12.6425 -8.73129
244 1 15.7369 9.43208 12.5831 -8.96565
245 1 18.871 9.43438 12.5795 -8.95317
246 1 -0.000342674 1.68386e-15 15.7244 -8.94953
247 1 1.57171 1.57171 17.2974 -8.94933
248 1 3.1442 1.75122e-15 15.7249 -8.95012
249 1 4.71709 1.57181 17.2972 -8.94975
250 1 6.28974 1.76618e-15 15.7247 -8.9497
251 1 7.86212 1.57186 17.2972 -8.94941
252 1 9.43463 7.73247e-16 15.7248 -8.94968
253 1 11.007 1.5719 17.2972 -8.94948
254 1 12.5794 -6.77286e-16 15.7246 -8.94951
255 1 14.1519 1.57194 17.297 -8.94963
256 1 15.7247 1.47822e-15 15.7247 -8.95027
257 1 17.2972 1.57172 17.2972 -8.94948
258 1 18.8692 1.77908e-15 15.7243 -8.94967
259 1 20.4414 1.57206 17.2969 -8.94964
260 1 -0.000698407 3.14398 15.7248 -8.94962
261 1 1.57057 4.71524 17.2987 -8.94772
262 1 3.14299 3.14216 15.7262 -8.94907
263 1 4.71613 4.71512 17.299 -8.94986
264 1 6.28961 3.14307 15.7254 -8.94985
265 1 7.86208 4.7157 17.2982 -8.94853
266 1 9.4346 3.14333 15.7253 -8.9493
267 1 11.007 4.71577 17.2979 -8.94871
268 1 12.5793 3.14355 15.7249 -8.94943
269 1 14.1523 4.71566 17.2981 -8.9503
270 1 15.7257 3.14235 15.7257 -8.94962
271 1 17.2986 4.71503 17.2986 -8.94714
272 1 18.8695 3.14406 15.7246 -8.94984
273 1 20.4415 4.71627 17.2975 -8.94949
274 1 22.0122 6.28819 15.7257 -8.95011
275 1 1.57044 7.86097 17.2989 -8.94898
276 1 3.13857 6.28357 15.7306 -8.94261
277 1 4.71421 7.85925 17.303 -8.95107
278 1 6.2874 6.28514 15.7301 -8.95007
279 1 7.86285 7.86118 17.3 -8.95214
280 1 9.43426 6.28663 15.7276 -8.9438
281 1 11.006 7.86099 17.2989 -8.95017
282 1 12.5795 6.2868 15.7276 -8.95082
283 1 14.1543 7.85945 17.3022 -8.9531
284 1 15.7308 6.2828 15.7308 -8.93982
285 1 17.2985 7.86102 17.2985 -8.94906
286 1 18.8707 6.28815 15.7256 -8.95025
287 1 20.4415 7.86156 17.2977 -8.94928
288 1 -0.00183422 9.43395 15.7259 -8.9493
289 1 3.13905 9.43254 15.7301 -8.9468
290 1 6.28347 9.43097 15.739 -8.95876
291 1 9.43454 9.4366 15.7219 -8.94774
292 1 12.5831 9.43208 15.7369 -8.96565
293 1 15.7293 9.43277 15.7293 -8.94633
294 1 18.8706 9.43398 15.7258 -8.94917
295 1 22.0136 1.35514e-15 18.8693 -8.94926
296 1 1.57216 1.57208 20.4416 -8.94946
297 1 3.14466 1.9502e-15 18.8693 -8.94969
298 1 4.71709 1.57211 20.4415 -8.94951
299 1 6.28961 1.58042e-15 18.8693 -8.94947
300 1 7.86201 1.57206 20.4414 -8.94952
301 1 9.43455 -6.24768e-16 18.8693 -8.94955
302 1 11.007 1.57205 20.4414 -8.94953
303 1 12.5795 6.96633e-16 18.8692 -8.94948
304 1 14.1519 1.57209 20.4414 -8.94947
305 1 15.7243 1.87303e-15 18.8692 -8.94967
306 1 17.2969 1.57206 20.4414 -8.94964
307 1 18.8693 1.57652e-15 18.8693 -8.94939
308 1 20.4416 1.57213 20.4416 -8.94903
309 1 22.0135 3.14415 18.8697 -8.94902
310 1 1.57191 4.71668 20.4421 -8.94959
311 1 3.14431 3.14396 18.8698 -8.94968
312 1 4.7168 4.71652 20.4416 -8.94999
313 1 6.28956 3.1441 18.8695 -8.94933
314 1 7.86187 4.71633 20.4414 -8.94936
315 1 9.43454 3.14402 18.8695 -8.94949
316 1 11.007 4.71627 20.4413 -8.94942
317 1 12.5795 3.14412 18.8694 -8.94928
318 1 14.1521 4.71639 20.4412 -8.94967
319 1 15.7246 3.14406 18.8695 -8.94984
320 1 17.2975 4.71627 20.4415 -8.94949
321 1 18.8696 3.14404 18.8696 -8.94884
322 1 20.4417 4.71687 20.4417 -8.94955
323 1 -0.000482482 6.28913 18.8699 -8.94942
324 1 1.57182 7.86178 20.4422 -8.94942
325 1 3.1435 6.28832 18.8713 -8.94972
326 1 4.71658 7.86163 20.4429 -8.95031
327 1 6.28951 6.28872 18.8706 -8.95045
328 1 7.86207 7.86168 20.4416 -8.95038
329 1 9.43448 6.28836 18.8702 -8.94934
330 1 11.0067 7.86141 20.4409 -8.95016
331 1 12.5793 6.28873 18.8699 -8.94969
332 1 14.1525 7.86129 20.4413 -8.95126
333 1 15.7256 6.28815 18.8707 -8.95025
334 1 17.2977 7.86156 20.4415 -8.94928
335 1 18.8697 6.28908 18.8697 -8.94947
1 1 22.0138 5.74417e-16 22.0138 -8.94928
5 1 6.2895 5.54741e-17 22.0136 -8.9495
9 1 12.5795 1.13789e-15 22.0135 -8.94951
13 1 18.8693 1.5743e-15 22.0136 -8.94926
17 1 3.14427 3.1442 22.0134 -8.94941
47 1 12.5799 9.43415 22.0107 -8.95224
23 1 12.5796 3.14398 22.0132 -8.94936
27 1 18.8697 3.14415 22.0135 -8.94902
29 1 22.0139 6.28943 22.0139 -8.94947
33 1 6.28899 6.28889 22.0127 -8.95062
39 1 15.7257 6.28819 22.0122 -8.95011
43 1 22.0138 9.43443 22.0138 -8.94952
45 1 6.28918 9.43457 22.014 -8.94982
46 1 9.43424 9.43439 22.0123 -8.94934
7 1 9.43448 -9.33104e-16 22.0135 -8.94953
35 1 9.43414 6.28842 22.0123 -8.94965
344 1 1.572 11.007 1.572 -8.94956
345 1 4.71631 11.007 1.57173 -8.94975
346 1 7.86157 11.007 1.5717 -8.94692
347 1 11.0073 11.007 1.568 -8.94896
348 1 14.1554 11.007 1.56635 -8.94927
349 1 17.299 11.007 1.57037 -8.94922
350 1 20.4422 11.007 1.57177 -8.9495
688 3 10.4428 11.007 9.39654 2.35655
352 1 1.57204 14.1519 1.57204 -8.94937
353 1 3.14415 12.5795 0.000203551 -8.94959
354 1 4.71655 14.1517 1.57165 -8.95007
687 3 9.39654 11.007 10.4428 2.35655
356 1 7.86116 14.1527 1.56884 -8.95287
511 1 18.8695 18.8699 9.43454 -8.94949
358 1 11.0068 14.1536 1.5674 -8.95118
510 1 15.7253 18.8706 9.4346 -8.9493
360 1 14.1548 14.1545 1.5665 -8.9518
361 1 15.7259 12.5799 -0.00183422 -8.9493
362 1 17.2989 14.1529 1.57044 -8.94898
509 1 12.5796 18.8697 9.43472 -8.94868
364 1 20.4422 14.1521 1.57182 -8.94942
508 1 9.43457 18.8685 9.43457 -8.9445
366 1 1.57187 17.2971 1.57187 -8.94998
367 1 3.14429 15.7245 8.75361e-05 -8.95
368 1 4.71572 17.2981 1.57034 -8.94913
507 1 6.28793 18.8729 9.43481 -8.95066
370 1 7.86138 17.2983 1.57041 -8.94891
537 1 14.1522 20.4422 11.0069 -8.94947
372 1 11.007 17.2985 1.57024 -8.94911
373 1 12.5797 15.7255 -0.00189762 -8.94978
374 1 14.153 17.2988 1.57009 -8.9496
506 1 3.1431 18.871 9.43432 -8.94929
376 1 17.2987 17.2987 1.57057 -8.94772
377 1 18.8699 15.7248 -0.000482482 -8.94942
378 1 20.4421 17.2972 1.57191 -8.94959
379 1 -0.000110433 18.8695 -0.000110433 -8.94952
380 1 1.57189 20.4419 1.57189 -8.94917
505 1 -0.000648112 18.8699 9.43441 -8.94945
382 1 4.71677 20.442 1.57172 -8.94957
383 1 6.28932 18.8698 -0.000577177 -8.94938
384 1 7.86187 20.4421 1.57166 -8.94943
504 1 18.8702 15.7255 9.43448 -8.94934
386 1 11.007 20.4421 1.57161 -8.94947
503 1 15.7276 15.7273 9.43426 -8.9438
388 1 14.1522 20.4422 1.57168 -8.94944
389 1 15.7248 18.8699 -0.000698407 -8.94962
390 1 17.2974 20.4422 1.57171 -8.94933
502 1 12.5787 15.7235 9.4328 -8.94966
392 1 20.4416 20.4418 1.57216 -8.94946
393 1 1.57173 11.007 4.71631 -8.94975
394 1 4.71516 11.007 4.71516 -8.94526
395 1 7.86398 11.007 4.72 -8.93388
396 1 11.015 11.007 4.70637 -9.01609
397 1 14.1668 11.007 4.70127 -8.93956
398 1 17.303 11.007 4.71372 -8.94873
399 1 20.4431 11.007 4.71636 -8.95001
400 1 0.000203551 12.5795 3.14415 -8.94959
401 1 1.57165 14.1517 4.71655 -8.95007
402 1 3.14381 12.5793 3.14381 -8.94875
403 1 4.71455 14.152 4.71455 -8.95421
404 1 6.28898 12.5784 3.14354 -8.94937
405 1 7.85396 14.1613 4.70231 -8.95109
406 1 9.43413 12.5802 3.13946 -8.95224
407 1 11.0088 14.1598 4.70109 -8.95271
408 1 12.5849 12.5824 3.1306 -8.95955
409 1 14.1706 14.1691 4.6981 -8.92275
410 1 15.7301 12.5814 3.13905 -8.9468
411 1 17.303 14.1547 4.71421 -8.95107
412 1 18.8715 12.5799 3.14334 -8.94924
413 1 20.4429 14.1523 4.71658 -8.95031
414 1 8.75361e-05 15.7245 3.14429 -8.95
415 1 1.57034 17.2981 4.71572 -8.94913
416 1 3.14336 15.7248 3.14336 -8.95104
417 1 4.71244 17.3014 4.71244 -8.94389
418 1 6.2858 15.728 3.13881 -8.94893
419 1 7.86031 17.3016 4.71337 -8.94899
420 1 9.43358 15.7282 3.13934 -8.94707
421 1 11.0079 17.3018 4.71298 -8.9469
422 1 12.5817 15.7289 3.13845 -8.94921
423 1 14.1568 17.3041 4.7124 -8.94879
424 1 15.7306 15.7303 3.13857 -8.94261
425 1 17.299 17.2988 4.71613 -8.94986
426 1 18.8713 15.7256 3.1435 -8.94972
427 1 20.4416 17.2974 4.7168 -8.94999
428 1 22.0134 18.8697 3.14427 -8.94941
429 1 1.57172 20.442 4.71677 -8.94957
430 1 3.14324 18.8705 3.14324 -8.94811
431 1 4.71618 20.4428 4.71618 -8.95004
432 1 6.28868 18.8709 3.14315 -8.94952
433 1 7.86181 20.4429 4.71622 -8.94974
434 1 9.43432 18.871 3.1431 -8.94929
435 1 11.0073 20.443 4.71617 -8.94959
436 1 12.58 18.8713 3.14314 -8.949
437 1 14.1526 20.4431 4.71656 -8.95105
438 1 15.7262 18.8717 3.14299 -8.94907
439 1 17.2972 20.4421 4.71709 -8.94975
440 1 18.8698 18.8699 3.14431 -8.94968
441 1 20.4415 20.4418 4.71709 -8.94951
442 1 1.5717 11.007 7.86157 -8.94692
443 1 4.72 11.007 7.86398 -8.93388
444 1 7.89292 11.007 7.89292 -8.88429
445 1 11.0961 11.007 7.54828 -7.95777
446 1 14.1634 11.007 7.84565 -8.96507
447 1 17.3005 11.007 7.86185 -8.95087
448 1 20.4423 11.007 7.86205 -8.94949
449 1 22.014 12.5793 6.28918 -8.94982
450 1 1.56884 14.1527 7.86116 -8.95287
451 1 3.14354 12.5784 6.28898 -8.94937
452 1 4.70231 14.1613 7.85396 -8.95109
453 1 6.28779 12.5753 6.28779 -8.96346
454 1 7.82121 14.1935 7.82121 -8.83573
455 1 9.41462 12.6087 6.27102 -8.89944
456 1 11.0338 14.1681 7.81904 -8.87503
457 1 12.6342 12.6248 6.23537 -8.82406
458 1 14.164 14.1591 7.85811 -8.94801
459 1 15.739 12.5829 6.28347 -8.95876
460 1 17.3 14.1527 7.86285 -8.95214
461 1 18.8727 12.5798 6.28902 -8.95218
462 1 20.4416 14.1522 7.86207 -8.95038
463 1 22.0127 15.725 6.28899 -8.95062
464 1 1.57041 17.2983 7.86138 -8.94891
465 1 3.13881 15.728 6.2858 -8.94893
466 1 4.71337 17.3016 7.86031 -8.94899
467 1 6.27562 15.7385 6.27562 -8.92635
468 1 7.86003 17.3055 7.86003 -8.96099
469 1 9.43423 15.7363 6.28045 -8.94912
470 1 11.0069 17.2999 7.86078 -8.95451
471 1 12.5907 15.7414 6.27713 -8.95027
472 1 14.1536 17.2996 7.86237 -8.94995
473 1 15.7301 15.7288 6.2874 -8.95007
474 1 17.2982 17.2982 7.86208 -8.94853
475 1 18.8706 15.7252 6.28951 -8.95045
476 1 20.4414 17.2976 7.86187 -8.94936
477 1 -0.000577177 18.8698 6.28932 -8.94938
478 1 1.57166 20.4421 7.86187 -8.94943
479 1 3.14315 18.8709 6.28868 -8.94952
480 1 4.71622 20.4429 7.86181 -8.94974
481 1 6.28785 18.8733 6.28785 -8.95165
482 1 7.86209 20.4432 7.86209 -8.95175
483 1 9.43481 18.8729 6.28793 -8.95066
484 1 11.0069 20.4423 7.86241 -8.94994
485 1 12.5803 18.8731 6.28881 -8.95373
486 1 14.1523 20.4423 7.86239 -8.94971
487 1 15.7254 18.8708 6.28961 -8.94985
488 1 17.2972 20.442 7.86212 -8.94941
489 1 18.8695 18.8698 6.28956 -8.94933
490 1 20.4414 20.4418 7.86201 -8.94952
491 1 22.0123 12.5795 9.43424 -8.94934
492 1 3.13946 12.5802 9.43413 -8.95224
493 1 6.27102 12.6087 9.41462 -8.89944
494 1 9.38995 12.8273 9.38995 -7.71888
495 1 12.5712 12.5811 9.40609 -8.82593
496 1 15.7219 12.5773 9.43454 -8.94774
497 1 18.8692 12.5795 9.43472 -8.94769
498 1 22.0123 15.7255 9.43414 -8.94965
499 1 3.13934 15.7282 9.43358 -8.94707
500 1 6.28045 15.7363 9.43423 -8.94912
501 1 9.43217 15.7132 9.43217 -9.01252
512 1 1.568 11.007 11.0073 -8.94896
517 1 17.2962 11.007 11.0065 -8.94386
519 1 1.5674 14.1536 11.0068 -8.95118
520 1 4.70109 14.1598 11.0088 -8.95271
527 1 4.71298 17.3018 11.0079 -8.9469
530 1 14.1531 17.2987 11.0059 -8.94831
531 1 17.2979 17.2981 11.007 -8.94871
532 1 20.4413 17.2976 11.007 -8.94942
534 1 4.71617 20.443 11.0073 -8.94959
518 1 20.4406 11.007 11.0066 -8.94849
523 1 14.1584 14.155 11.0022 -8.95044
385 1 9.43441 18.8699 -0.000648112 -8.94945
686 1 20.4416 20.4418 20.4416 -8.94903
513 1 4.70637 11.007 11.015 -9.01609
514 1 7.54828 11.007 11.0961 -7.95777
515 1 11.2638 11.007 11.2638 -7.37261
516 1 14.1406 11.007 11.0172 -9.00906
685 1 18.8696 18.8699 18.8696 -8.94884
391 1 18.8697 18.8698 22.0135 -8.94902
684 1 17.2969 20.4418 20.4414 -8.94964
683 1 15.7246 18.8698 18.8695 -8.94984
521 1 7.81904 14.1681 11.0338 -8.87503
522 1 11.0288 14.1475 11.0288 -8.90087
387 1 12.5796 18.8699 22.0132 -8.94936
524 1 17.2989 14.1529 11.006 -8.95017
525 1 20.4409 14.1525 11.0067 -8.95016
526 1 1.57024 17.2985 11.007 -8.94911
682 1 14.1519 20.4418 20.4414 -8.94947
528 1 7.86078 17.2999 11.0069 -8.95451
529 1 11.006 17.2954 11.006 -8.94925
681 1 12.5795 18.8698 18.8694 -8.94928
680 1 11.007 20.4419 20.4414 -8.94953
679 1 9.43454 18.8699 18.8695 -8.94949
533 1 1.57161 20.4421 11.007 -8.94947
678 1 7.86201 20.4418 20.4414 -8.94952
535 1 7.86241 20.4423 11.0069 -8.94994
536 1 11.0068 20.4416 11.0068 -8.94874
677 1 6.28956 18.8698 18.8695 -8.94933
538 1 17.2972 20.442 11.007 -8.94948
539 1 20.4414 20.4419 11.007 -8.94953
540 1 1.56635 11.007 14.1554 -8.94927
541 1 4.70127 11.007 14.1668 -8.93956
542 1 7.84565 11.007 14.1634 -8.96507
543 1 11.0172 11.007 14.1406 -9.00906
544 1 14.1652 11.007 14.1652 -8.93868
545 1 17.3018 11.007 14.155 -8.94874
546 1 20.4412 11.007 14.1529 -8.9505
547 1 22.0107 12.5797 12.5799 -8.95224
548 1 1.5665 14.1545 14.1548 -8.9518
549 1 3.1306 12.5824 12.5849 -8.95955
550 1 4.6981 14.1691 14.1706 -8.92275
551 1 6.23537 12.6248 12.6342 -8.82406
552 1 7.85811 14.1591 14.164 -8.94801
553 1 9.40609 12.5811 12.5712 -8.82593
554 1 11.0022 14.155 14.1584 -8.95044
555 1 12.6425 12.6442 12.6425 -8.73129
556 1 14.173 14.1729 14.173 -8.90867
557 1 15.7369 12.5818 12.5831 -8.96565
558 1 17.3022 14.1544 14.1543 -8.9531
559 1 18.871 12.5795 12.5795 -8.95317
560 1 20.4413 14.1526 14.1525 -8.95126
561 1 -0.00189762 15.7255 12.5797 -8.94978
562 1 1.57009 17.2988 14.153 -8.9496
563 1 3.13845 15.7289 12.5817 -8.94921
564 1 4.7124 17.3041 14.1568 -8.94879
565 1 6.27713 15.7414 12.5907 -8.95027
566 1 7.86237 17.2996 14.1536 -8.94995
567 1 9.4328 15.7235 12.5787 -8.94966
568 1 11.0059 17.2987 14.1531 -8.94831
569 1 12.5862 15.7397 12.5862 -8.96143
570 1 14.1553 17.3034 14.1553 -8.95118
571 1 15.7276 15.7271 12.5795 -8.95082
572 1 17.2981 17.2982 14.1523 -8.9503
573 1 18.8699 15.7252 12.5793 -8.94969
574 1 20.4412 17.2975 14.1521 -8.94967
575 1 22.0132 18.8699 12.5796 -8.94936
576 1 1.57168 20.4422 14.1522 -8.94944
577 1 3.14314 18.8713 12.58 -8.949
578 1 4.71656 20.4431 14.1526 -8.95105
579 1 6.28881 18.8731 12.5803 -8.95373
580 1 7.86239 20.4423 14.1523 -8.94971
581 1 9.43472 18.8697 12.5796 -8.94868
582 1 11.0069 20.4422 14.1522 -8.94947
583 1 12.5794 18.8719 12.5794 -8.95445
584 1 14.1522 20.4428 14.1522 -8.95124
585 1 15.7249 18.8704 12.5793 -8.94943
586 1 17.297 20.442 14.1519 -8.94963
587 1 18.8694 18.8698 12.5795 -8.94928
588 1 20.4414 20.4418 14.1519 -8.94947
589 1 1.57037 11.007 17.299 -8.94922
590 1 4.71372 11.007 17.303 -8.94873
591 1 7.86185 11.007 17.3005 -8.95087
592 1 11.0065 11.007 17.2962 -8.94386
593 1 14.155 11.007 17.3018 -8.94874
594 1 17.2986 11.007 17.2986 -8.94935
595 1 20.4415 11.007 17.2977 -8.94943
596 1 -0.00183422 12.5799 15.7259 -8.9493
597 1 1.57044 14.1529 17.2989 -8.94898
598 1 3.13905 12.5814 15.7301 -8.9468
599 1 4.71421 14.1547 17.303 -8.95107
600 1 6.28347 12.5829 15.739 -8.95876
601 1 7.86285 14.1527 17.3 -8.95214
602 1 9.43454 12.5773 15.7219 -8.94774
603 1 11.006 14.1529 17.2989 -8.95017
604 1 12.5831 12.5818 15.7369 -8.96565
605 1 14.1543 14.1544 17.3022 -8.9531
606 1 15.7293 12.5811 15.7293 -8.94633
607 1 17.2985 14.1529 17.2985 -8.94906
608 1 18.8706 12.5799 15.7258 -8.94917
609 1 20.4415 14.1523 17.2977 -8.94928
610 1 22.0122 15.7257 15.7257 -8.95011
611 1 1.57057 17.2987 17.2987 -8.94772
612 1 3.13857 15.7303 15.7306 -8.94261
613 1 4.71613 17.2988 17.299 -8.94986
614 1 6.2874 15.7288 15.7301 -8.95007
615 1 7.86208 17.2982 17.2982 -8.94853
616 1 9.43426 15.7273 15.7276 -8.9438
617 1 11.007 17.2981 17.2979 -8.94871
618 1 12.5795 15.7271 15.7276 -8.95082
619 1 14.1523 17.2982 17.2981 -8.9503
620 1 15.7308 15.7311 15.7308 -8.93982
621 1 17.2986 17.2989 17.2986 -8.94714
622 1 18.8707 15.7258 15.7256 -8.95025
623 1 20.4415 17.2976 17.2975 -8.94949
624 1 -0.000698407 18.8699 15.7248 -8.94962
625 1 1.57171 20.4422 17.2974 -8.94933
626 1 3.14299 18.8717 15.7262 -8.94907
627 1 4.71709 20.4421 17.2972 -8.94975
628 1 6.28961 18.8708 15.7254 -8.94985
629 1 7.86212 20.442 17.2972 -8.94941
630 1 9.4346 18.8706 15.7253 -8.9493
631 1 11.007 20.442 17.2972 -8.94948
632 1 12.5793 18.8704 15.7249 -8.94943
633 1 14.1519 20.442 17.297 -8.94963
634 1 15.7257 18.8716 15.7257 -8.94962
635 1 17.2972 20.4422 17.2972 -8.94948
636 1 18.8695 18.8698 15.7246 -8.94984
637 1 20.4414 20.4418 17.2969 -8.94964
638 1 1.57177 11.007 20.4422 -8.9495
639 1 4.71636 11.007 20.4431 -8.95001
640 1 7.86205 11.007 20.4423 -8.94949
641 1 11.0066 11.007 20.4406 -8.94849
642 1 14.1529 11.007 20.4412 -8.9505
643 1 17.2977 11.007 20.4415 -8.94943
644 1 20.4417 11.007 20.4417 -8.94952
645 1 22.0134 12.5796 18.87 -8.94942
646 1 1.57182 14.1521 20.4422 -8.94942
647 1 3.14334 12.5799 18.8715 -8.94924
648 1 4.71658 14.1523 20.4429 -8.95031
649 1 6.28902 12.5798 18.8727 -8.95218
650 1 7.86207 14.1522 20.4416 -8.95038
651 1 9.43472 12.5795 18.8692 -8.94769
652 1 11.0067 14.1525 20.4409 -8.95016
653 1 12.5795 12.5795 18.871 -8.95317
654 1 14.1525 14.1526 20.4413 -8.95126
655 1 15.7258 12.5799 18.8706 -8.94917
656 1 17.2977 14.1523 20.4415 -8.94928
657 1 18.8697 12.5796 18.8697 -8.94941
658 1 20.4417 14.152 20.4417 -8.94949
659 1 -0.000482482 15.7248 18.8699 -8.94942
660 1 1.57191 17.2972 20.4421 -8.94959
661 1 3.1435 15.7256 18.8713 -8.94972
662 1 4.7168 17.2974 20.4416 -8.94999
663 1 6.28951 15.7252 18.8706 -8.95045
664 1 7.86187 17.2976 20.4414 -8.94936
665 1 9.43448 15.7255 18.8702 -8.94934
666 1 11.007 17.2976 20.4413 -8.94942
667 1 12.5793 15.7252 18.8699 -8.94969
668 1 14.1521 17.2975 20.4412 -8.94967
669 1 15.7256 15.7258 18.8707 -8.95025
670 1 17.2975 17.2976 20.4415 -8.94949
671 1 18.8697 15.7248 18.8697 -8.94947
672 1 20.4417 17.297 20.4417 -8.94955
673 1 22.0135 18.8698 18.8697 -8.94902
674 1 1.57216 20.4418 20.4416 -8.94946
675 1 3.14431 18.8699 18.8698 -8.94968
676 1 4.71709 20.4418 20.4415 -8.94951
351 1 22.0138 12.5795 22.0138 -8.94952
355 1 6.28918 12.5793 22.014 -8.94982
357 1 9.43424 12.5795 22.0123 -8.94934
359 1 12.5799 12.5797 22.0107 -8.95224
363 1 18.87 12.5796 22.0134 -8.94942
365 1 22.0139 15.7245 22.0139 -8.94947
369 1 6.28899 15.725 22.0127 -8.95062
375 1 15.7257 15.7257 22.0122 -8.95011
381 1 3.14427 18.8697 22.0134 -8.94941
371 1 9.43414 15.7255 22.0123 -8.94965
