ITEM: TIMESTEP
55
ITEM: NUMBER OF ATOMS
688
ITEM: BOX BOUNDS pp pp pp
0.0000000000000000e+00 2.2013900999999997e+01
0.0000000000000000e+00 2.2013900999999997e+01
0.0000000000000000e+00 2.2013900999999997e+01
ITEM: ATOMS id type x y z c_pot
175 1 18.8695 9.43441 9.43476 -8.94794
2 1 1.5721 1.5722 1.5721 -8.94924
3 1 3.14473 1.16389e-15 -0.00013471 -8.94964
4 1 4.71702 1.57211 1.57203 -8.94963
174 1 15.7227 9.4363 9.43508 -8.94763
6 1 7.86199 1.57206 1.57197 -8.9495
191 1 4.70291 7.85503 11.0081 -8.95292
8 1 11.007 1.57202 1.57194 -8.94953
173 1 12.5717 9.43222 9.40815 -8.83236
10 1 14.152 1.57202 1.57201 -8.94951
11 1 15.7243 1.47281e-15 -0.000155482 -8.94959
12 1 17.2971 1.57199 1.572 -8.94938
172 1 9.38921 9.18117 9.38921 -7.70334
14 1 20.4415 1.57226 1.5723 -8.94955
15 1 -5.81808e-05 3.14467 -5.81808e-05 -8.94958
16 1 1.57208 4.71702 1.57208 -8.94991
171 1 6.27288 9.40666 9.4154 -8.90108
18 1 4.71616 4.71619 1.57083 -8.94921
19 1 6.28951 3.14443 -0.00035269 -8.94945
20 1 7.86165 4.71614 1.57097 -8.94898
170 1 3.14026 9.43407 9.43403 -8.95207
22 1 11.007 4.71598 1.57089 -8.94919
169 1 22.0127 9.43446 9.43425 -8.94942
24 1 14.1525 4.71585 1.57083 -8.94968
25 1 15.7245 3.14438 -0.000401748 -8.94967
26 1 17.298 4.7159 1.57112 -8.94787
168 1 18.8701 6.28867 9.43453 -8.94934
28 1 20.4418 4.71697 1.57212 -8.94961
167 1 15.7273 6.28691 9.43463 -8.94417
30 1 1.57214 7.86205 1.57214 -8.94939
31 1 3.14451 6.28954 3.85652e-05 -8.94992
32 1 4.71675 7.86228 1.57178 -8.94997
166 1 12.5789 6.28963 9.43342 -8.94962
34 1 7.86135 7.86148 1.56936 -8.95276
190 1 1.56837 7.86077 11.0066 -8.95107
36 1 11.0066 7.86077 1.56837 -8.95107
37 1 12.5795 6.28886 -0.00130442 -8.94974
38 1 14.154 7.86006 1.56768 -8.95177
165 1 9.43225 6.29889 9.43225 -9.01326
40 1 17.2981 7.86145 1.57112 -8.94913
41 1 18.8695 6.28944 -0.000277406 -8.94954
42 1 20.4419 7.86195 1.57206 -8.94948
164 1 6.28164 6.27859 9.43441 -8.94906
44 1 3.14437 9.43445 3.42614e-05 -8.94959
163 1 3.14035 6.28651 9.4337 -8.94715
162 1 22.0127 6.2888 9.43424 -8.94963
161 1 18.8694 3.14433 9.43454 -8.94956
48 1 15.7253 9.43419 -0.00124628 -8.94931
160 1 15.7251 3.14361 9.43462 -8.94935
50 1 -0.00013471 1.22547e-15 3.14473 -8.94964
51 1 1.57203 1.57211 4.71702 -8.94963
52 1 3.1444 9.82899e-16 3.1444 -8.94956
53 1 4.7165 1.5714 4.7165 -8.95001
54 1 6.28949 3.35324e-16 3.14438 -8.94958
55 1 7.86194 1.57137 4.71654 -8.94965
56 1 9.43451 6.75532e-16 3.14429 -8.94956
57 1 11.0072 1.57127 4.71646 -8.94954
58 1 12.5796 1.02647e-15 3.14434 -8.94948
59 1 14.1524 1.57115 4.71675 -8.95086
60 1 15.7247 1.40119e-15 3.14444 -8.95
61 1 17.297 1.57207 4.7172 -8.94973
62 1 18.8692 1.63561e-15 3.14478 -8.9497
63 1 20.4415 1.57228 4.7172 -8.94957
64 1 22.0135 3.14447 3.1445 -8.94946
65 1 1.57083 4.71619 4.71616 -8.94921
66 1 3.14367 3.14375 3.14367 -8.94816
67 1 4.71309 4.71318 4.71309 -8.94389
68 1 6.28907 3.14356 3.14368 -8.94957
69 1 7.86077 4.71324 4.71416 -8.94901
70 1 9.4344 3.14341 3.14362 -8.94934
71 1 11.0076 4.71296 4.71388 -8.94702
72 1 12.5797 3.14326 3.14368 -8.94905
73 1 14.1559 4.71084 4.71327 -8.94873
74 1 15.7256 3.14289 3.14351 -8.94905
75 1 17.2983 4.71582 4.71656 -8.94987
76 1 18.8695 3.14436 3.14455 -8.9497
77 1 20.4415 4.71684 4.717 -8.94991
78 1 3.85652e-05 6.28954 3.14451 -8.94992
79 1 1.57178 7.86228 4.71675 -8.94997
80 1 3.14376 6.28935 3.14376 -8.95079
81 1 4.71493 7.86221 4.71493 -8.95373
82 1 6.28646 6.28664 3.13965 -8.94916
83 1 7.85463 7.85384 4.70336 -8.95186
84 1 9.4337 6.28651 3.14035 -8.94715
85 1 11.0081 7.85503 4.70291 -8.95292
86 1 12.5809 6.28602 3.13979 -8.94935
87 1 14.1691 7.84591 4.69987 -8.9223
88 1 15.7294 6.28468 3.13972 -8.94274
89 1 17.3017 7.85987 4.71496 -8.95113
90 1 18.8706 6.28879 3.14393 -8.94973
91 1 20.4424 7.8618 4.71681 -8.95023
92 1 3.42614e-05 9.43445 3.14437 -8.94959
93 1 3.14394 9.43456 3.14394 -8.94878
94 1 6.28901 9.43557 3.14358 -8.94949
95 1 9.43403 9.43407 3.14026 -8.95207
96 1 12.5838 9.43201 3.13232 -8.95961
97 1 15.7287 9.43305 3.14044 -8.94697
98 1 18.8707 9.43422 3.14384 -8.94927
99 1 22.0137 4.18597e-17 6.28961 -8.94957
100 1 1.57197 1.57206 7.86199 -8.9495
101 1 3.14438 3.3903e-16 6.28949 -8.94958
102 1 4.71654 1.57137 7.86194 -8.94965
103 1 6.28936 1.1492e-15 6.28936 -8.95071
104 1 7.86212 1.57081 7.86212 -8.9517
105 1 9.43469 5.26627e-16 6.28929 -8.95039
106 1 11.007 1.57152 7.86236 -8.95002
107 1 12.5796 1.29806e-15 6.28964 -8.95092
108 1 14.1522 1.5717 7.86232 -8.94967
109 1 15.7245 1.46526e-15 6.28972 -8.94965
110 1 17.297 1.57205 7.8621 -8.94948
111 1 18.8692 1.28298e-15 6.28965 -8.94954
112 1 20.4415 1.57223 7.86206 -8.94958
113 1 -0.00035269 3.14443 6.28951 -8.94945
114 1 1.57097 4.71614 7.86165 -8.94898
115 1 3.14368 3.14356 6.28907 -8.94957
116 1 4.71416 4.71324 7.86077 -8.94901
117 1 6.28819 3.14116 6.28819 -8.95162
118 1 7.86027 4.70863 7.86027 -8.96074
119 1 9.43483 3.14144 6.28829 -8.95044
120 1 11.007 4.71365 7.86122 -8.95437
121 1 12.5801 3.14125 6.28906 -8.95358
122 1 14.1533 4.71459 7.8627 -8.94981
123 1 15.725 3.14358 6.28974 -8.94978
124 1 17.2978 4.71611 7.86216 -8.9487
125 1 18.8694 3.14441 6.28963 -8.94941
126 1 20.4415 4.71668 7.86196 -8.94941
127 1 22.0129 6.28916 6.2892 -8.95051
128 1 1.56936 7.86148 7.86135 -8.95276
129 1 3.13965 6.28664 6.28646 -8.94916
130 1 4.70336 7.85384 7.85463 -8.95186
131 1 6.2762 6.27614 6.2762 -8.92611
132 1 7.82093 7.82061 7.82093 -8.83256
133 1 9.43441 6.27859 6.28164 -8.94906
134 1 11.0343 7.84527 7.82063 -8.87327
135 1 12.5899 6.27313 6.27854 -8.95025
136 1 14.1634 7.85521 7.8597 -8.94795
137 1 15.7291 6.28598 6.28818 -8.95008
138 1 17.2997 7.8613 7.86301 -8.95195
139 1 18.8702 6.28903 6.28964 -8.95028
140 1 20.4416 7.8618 7.86211 -8.95033
141 1 22.0139 9.43459 6.28928 -8.94983
142 1 3.14358 9.43557 6.28901 -8.94949
143 1 6.28757 9.43872 6.28757 -8.96221
144 1 9.4154 9.40666 6.27288 -8.90108
145 1 12.6338 9.38876 6.23742 -8.82035
146 1 15.7378 9.43139 6.28486 -8.95901
147 1 18.8721 9.43425 6.28928 -8.95208
148 1 22.0137 -3.43755e-16 9.43451 -8.94959
149 1 3.14429 1.05379e-15 9.43451 -8.94956
150 1 6.28929 9.59205e-16 9.43469 -8.95039
151 1 9.4347 1.02786e-15 9.4347 -8.94806
152 1 12.5796 5.95974e-16 9.43471 -8.94945
153 1 15.7246 1.0518e-15 9.43458 -8.94968
154 1 18.8692 -3.66889e-18 9.43454 -8.9496
155 1 -0.000391789 3.14434 9.43447 -8.94952
156 1 3.14362 3.14341 9.4344 -8.94934
157 1 6.28829 3.14144 9.43483 -8.95044
158 1 9.43464 3.14484 9.43464 -8.94492
159 1 12.5796 3.144 9.43478 -8.94878
177 1 4.71646 1.57127 11.0072 -8.94954
180 1 14.1522 1.57183 11.0069 -8.94948
184 1 4.71388 4.71296 11.0076 -8.94702
187 1 14.1529 4.71539 11.0061 -8.94836
188 1 17.2977 4.71612 11.007 -8.94881
189 1 20.4414 4.71664 11.007 -8.94947
194 1 14.1579 7.85925 11.0027 -8.95117
21 1 9.43447 3.14434 -0.000391789 -8.94952
176 1 1.57194 1.57202 11.007 -8.94953
343 1 18.8695 9.43442 18.8695 -8.94951
178 1 7.86236 1.57152 11.007 -8.95002
179 1 11.0069 1.57213 11.0069 -8.94896
342 1 15.7253 9.43418 18.8703 -8.94919
181 1 17.297 1.57206 11.007 -8.94953
182 1 20.4415 1.57223 11.007 -8.94959
183 1 1.57089 4.71598 11.007 -8.94919
341 1 12.5794 9.43444 18.8709 -8.9528
185 1 7.86122 4.71365 11.007 -8.95437
186 1 11.0062 4.71757 11.0062 -8.94953
340 1 9.43476 9.43441 18.8695 -8.94794
339 1 6.28928 9.43425 18.8721 -8.95208
338 1 3.14384 9.43422 18.8707 -8.94927
337 1 22.0136 9.43444 18.8695 -8.94952
336 1 20.4416 7.86202 20.4416 -8.94958
192 1 7.82063 7.84527 11.0343 -8.87327
193 1 11.0283 7.86453 11.0283 -8.90053
49 1 18.8695 9.43444 22.0136 -8.94952
195 1 17.2988 7.86111 11.0061 -8.95
196 1 20.4412 7.8616 11.0067 -8.9501
197 1 22.0137 4.55307e-16 12.5794 -8.94958
198 1 1.57201 1.57202 14.152 -8.94951
199 1 3.14434 1.21132e-15 12.5796 -8.94948
200 1 4.71675 1.57115 14.1524 -8.95086
201 1 6.28964 1.26156e-15 12.5796 -8.95092
202 1 7.86232 1.5717 14.1522 -8.94967
203 1 9.43471 9.17527e-16 12.5796 -8.94945
204 1 11.0069 1.57183 14.1522 -8.94948
205 1 12.5794 -6.2156e-16 12.5794 -8.95072
206 1 14.1521 1.57139 14.1521 -8.95095
207 1 15.7245 1.63093e-16 12.5794 -8.94952
208 1 17.2969 1.57214 14.1518 -8.94963
209 1 18.8692 8.2627e-16 12.5794 -8.94955
210 1 20.4414 1.57226 14.1519 -8.94954
211 1 22.0135 3.14435 12.5795 -8.94945
212 1 1.57083 4.71585 14.1525 -8.94968
213 1 3.14368 3.14326 12.5797 -8.94905
214 1 4.71327 4.71084 14.1559 -8.94873
215 1 6.28906 3.14125 12.5801 -8.95358
216 1 7.8627 4.71459 14.1533 -8.94981
217 1 9.43478 3.144 12.5796 -8.94878
218 1 11.0061 4.71539 14.1529 -8.94836
219 1 12.5795 3.14226 12.5795 -8.95396
220 1 14.1547 4.71156 14.1547 -8.95092
221 1 15.7247 3.14389 12.5793 -8.94942
222 1 17.2977 4.7162 14.1521 -8.95022
223 1 18.8693 3.14441 12.5794 -8.94937
224 1 20.4414 4.71678 14.1519 -8.94965
225 1 -0.00130442 6.28886 12.5795 -8.94974
226 1 1.56768 7.86006 14.154 -8.95177
227 1 3.13979 6.28602 12.5809 -8.94935
228 1 4.69987 7.84591 14.1691 -8.9223
229 1 6.27854 6.27313 12.5899 -8.95025
230 1 7.8597 7.85521 14.1634 -8.94795
231 1 9.43342 6.28963 12.5789 -8.94962
232 1 11.0027 7.85925 14.1579 -8.95117
233 1 12.5857 6.27534 12.5857 -8.96041
234 1 14.1707 7.84324 14.1707 -8.912
235 1 15.727 6.28739 12.5793 -8.95081
236 1 17.3013 7.86002 14.1538 -8.95275
237 1 18.8698 6.28903 12.5793 -8.94961
238 1 20.4414 7.86159 14.1523 -8.95106
239 1 22.0114 9.43431 12.5797 -8.95207
240 1 3.13232 9.43201 12.5838 -8.95961
241 1 6.23742 9.38876 12.6338 -8.82035
242 1 9.40815 9.43222 12.5717 -8.83236
243 1 12.6385 9.37412 12.6385 -8.74453
244 1 15.7358 9.43247 12.5824 -8.96495
245 1 18.8709 9.43444 12.5794 -8.9528
246 1 -0.000155482 1.48909e-15 15.7243 -8.94959
247 1 1.572 1.57199 17.2971 -8.94938
248 1 3.14444 1.57344e-15 15.7247 -8.95
249 1 4.7172 1.57207 17.297 -8.94973
250 1 6.28972 1.56292e-15 15.7245 -8.94965
251 1 7.8621 1.57205 17.297 -8.94948
252 1 9.43458 1.24374e-15 15.7246 -8.94968
253 1 11.007 1.57206 17.297 -8.94953
254 1 12.5794 4.39929e-17 15.7245 -8.94952
255 1 14.1518 1.57214 17.2969 -8.94963
256 1 15.7245 1.23474e-15 15.7245 -8.95011
257 1 17.297 1.57199 17.297 -8.9495
258 1 18.8691 1.52974e-15 15.7243 -8.94967
259 1 20.4415 1.57226 17.2967 -8.94968
260 1 -0.000401748 3.14438 15.7245 -8.94967
261 1 1.57112 4.7159 17.298 -8.94787
262 1 3.14351 3.14289 15.7256 -8.94905
263 1 4.71656 4.71582 17.2983 -8.94987
264 1 6.28974 3.14358 15.725 -8.94978
265 1 7.86216 4.71611 17.2978 -8.9487
266 1 9.43462 3.14361 15.7251 -8.94935
267 1 11.007 4.71612 17.2977 -8.94881
268 1 12.5793 3.14389 15.7247 -8.94942
269 1 14.1521 4.7162 17.2977 -8.95022
270 1 15.7253 3.14302 15.7253 -8.94955
271 1 17.298 4.71574 17.298 -8.94747
272 1 18.8693 3.14443 15.7244 -8.94982
273 1 20.4415 4.71671 17.2972 -8.94953
274 1 22.0127 6.28873 15.7252 -8.95006
275 1 1.57112 7.86145 17.2981 -8.94913
276 1 3.13972 6.28468 15.7294 -8.94274
277 1 4.71496 7.85987 17.3017 -8.95113
278 1 6.28818 6.28598 15.7291 -8.95008
279 1 7.86301 7.8613 17.2997 -8.95195
280 1 9.43463 6.28691 15.7273 -8.94417
281 1 11.0061 7.86111 17.2988 -8.95
282 1 12.5793 6.28739 15.727 -8.95081
283 1 14.1538 7.86002 17.3013 -8.95275
284 1 15.7296 6.28409 15.7296 -8.94078
285 1 17.2979 7.86146 17.2979 -8.94919
286 1 18.8704 6.28867 15.7252 -8.95014
287 1 20.4415 7.86184 17.2972 -8.94937
288 1 -0.00124628 9.43419 15.7253 -8.94931
289 1 3.14044 9.43305 15.7287 -8.94697
290 1 6.28486 9.43139 15.7378 -8.95901
291 1 9.43508 9.4363 15.7227 -8.94763
292 1 12.5824 9.43247 15.7358 -8.96495
293 1 15.7283 9.43318 15.7283 -8.94667
294 1 18.8703 9.43418 15.7253 -8.94919
295 1 22.0138 1.53882e-15 18.8692 -8.9494
296 1 1.5723 1.57226 20.4415 -8.94955
297 1 3.14478 1.38614e-15 18.8692 -8.9497
298 1 4.7172 1.57228 20.4415 -8.94957
299 1 6.28965 1.4325e-15 18.8692 -8.94954
300 1 7.86206 1.57223 20.4415 -8.94958
301 1 9.43454 3.25827e-16 18.8692 -8.9496
302 1 11.007 1.57223 20.4415 -8.94959
303 1 12.5794 9.90232e-16 18.8692 -8.94955
304 1 14.1519 1.57226 20.4414 -8.94954
305 1 15.7243 1.75371e-15 18.8691 -8.94967
306 1 17.2967 1.57226 20.4415 -8.94968
307 1 18.8692 1.62631e-15 18.8692 -8.94949
308 1 20.4415 1.57229 20.4415 -8.94925
309 1 22.0137 3.14448 18.8694 -8.94916
310 1 1.57212 4.71697 20.4418 -8.94961
311 1 3.14455 3.14436 18.8695 -8.9497
312 1 4.717 4.71684 20.4415 -8.94991
313 1 6.28963 3.14441 18.8694 -8.94941
314 1 7.86196 4.71668 20.4415 -8.94941
315 1 9.43454 3.14433 18.8694 -8.94956
316 1 11.007 4.71664 20.4414 -8.94947
317 1 12.5794 3.14441 18.8693 -8.94937
318 1 14.1519 4.71678 20.4414 -8.94965
319 1 15.7244 3.14443 18.8693 -8.94982
320 1 17.2972 4.71671 20.4415 -8.94953
321 1 18.8694 3.1444 18.8694 -8.94903
322 1 20.4416 4.71712 20.4416 -8.94964
323 1 -0.000277406 6.28944 18.8695 -8.94954
324 1 1.57206 7.86195 20.4419 -8.94948
325 1 3.14393 6.28879 18.8706 -8.94973
326 1 4.71681 7.8618 20.4424 -8.95023
327 1 6.28964 6.28903 18.8702 -8.95028
328 1 7.86211 7.8618 20.4416 -8.95033
329 1 9.43453 6.28867 18.8701 -8.94934
330 1 11.0067 7.8616 20.4412 -8.9501
331 1 12.5793 6.28903 18.8698 -8.94961
332 1 14.1523 7.86159 20.4414 -8.95106
333 1 15.7252 6.28867 18.8704 -8.95014
334 1 17.2972 7.86184 20.4415 -8.94937
335 1 18.8694 6.28941 18.8694 -8.94957
1 1 22.0138 1.72623e-15 22.0138 -8.94942
5 1 6.28961 8.57198e-17 22.0137 -8.94957
9 1 12.5794 1.23319e-15 22.0137 -8.94958
13 1 18.8692 1.60853e-15 22.0138 -8.9494
17 1 3.1445 3.14447 22.0135 -8.94946
47 1 12.5797 9.43431 22.0114 -8.95207
23 1 12.5795 3.14435 22.0135 -8.94945
27 1 18.8694 3.14448 22.0137 -8.94916
29 1 22.0139 6.28959 22.0139 -8.94953
33 1 6.2892 6.28916 22.0129 -8.95051
39 1 15.7252 6.28873 22.0127 -8.95006
43 1 22.0138 9.43449 22.0138 -8.94958
45 1 6.28928 9.43459 22.0139 -8.94983
46 1 9.43425 9.43446 22.0127 -8.94942
7 1 9.43451 -2.46449e-16 22.0137 -8.94959
35 1 9.43424 6.2888 22.0127 -8.94963
344 1 1.57208 11.007 1.57208 -8.94959
345 1 4.71645 11.007 1.57168 -8.94971
346 1 7.86155 11.007 1.57176 -8.94715
347 1 11.007 11.007 1.56881 -8.94886
348 1 14.1545 11.007 1.56764 -8.94922
349 1 17.2981 11.007 1.57106 -8.94933
350 1 20.4419 11.007 1.57203 -8.94955
688 3 10.4239 11.007 9.38902 2.37147
352 1 1.57214 14.1518 1.57214 -8.94939
353 1 3.14437 12.5794 3.42614e-05 -8.94959
354 1 4.71675 14.1516 1.57178 -8.94997
687 3 9.38902 11.007 10.4239 2.37147
356 1 7.86135 14.1524 1.56936 -8.95276
511 1 18.8694 18.8696 9.43454 -8.94956
358 1 11.0066 14.1531 1.56837 -8.95107
510 1 15.7251 18.8703 9.43462 -8.94935
360 1 14.154 14.1538 1.56768 -8.95177
361 1 15.7253 12.5797 -0.00124628 -8.94931
362 1 17.2981 14.1524 1.57112 -8.94913
509 1 12.5796 18.8699 9.43478 -8.94878
364 1 20.4419 14.1519 1.57206 -8.94948
508 1 9.43464 18.8691 9.43464 -8.94492
366 1 1.57208 17.2969 1.57208 -8.94991
367 1 3.14451 15.7244 3.85652e-05 -8.94992
368 1 4.71616 17.2977 1.57083 -8.94921
507 1 6.28829 18.8725 9.43483 -8.95044
370 1 7.86165 17.2978 1.57097 -8.94898
537 1 14.1522 20.4421 11.0069 -8.94948
372 1 11.007 17.2979 1.57089 -8.94919
373 1 12.5795 15.725 -0.00130442 -8.94974
374 1 14.1525 17.298 1.57083 -8.94968
506 1 3.14362 18.8705 9.4344 -8.94934
376 1 17.298 17.298 1.57112 -8.94787
377 1 18.8695 15.7245 -0.000277406 -8.94954
378 1 20.4418 17.2969 1.57212 -8.94961
379 1 -5.81808e-05 18.8692 -5.81808e-05 -8.94958
380 1 1.5721 20.4417 1.5721 -8.94924
505 1 -0.000391789 18.8696 9.43447 -8.94952
382 1 4.71702 20.4418 1.57203 -8.94963
383 1 6.28951 18.8695 -0.00035269 -8.94945
384 1 7.86199 20.4418 1.57197 -8.9495
504 1 18.8701 15.7252 9.43453 -8.94934
386 1 11.007 20.4419 1.57194 -8.94953
503 1 15.7273 15.727 9.43463 -8.94417
388 1 14.152 20.4419 1.57201 -8.94951
389 1 15.7245 18.8695 -0.000401748 -8.94967
390 1 17.2971 20.4419 1.572 -8.94938
502 1 12.5789 15.7243 9.43342 -8.94962
392 1 20.4415 20.4416 1.5723 -8.94955
393 1 1.57168 11.007 4.71645 -8.94971
394 1 4.71517 11.007 4.71517 -8.94525
395 1 7.8638 11.007 4.71997 -8.9354
396 1 11.0144 11.007 4.70803 -9.0162
397 1 14.1651 11.007 4.70353 -8.93965
398 1 17.3017 11.007 4.71462 -8.94876
399 1 20.4426 11.007 4.71663 -8.94996
400 1 3.42614e-05 12.5794 3.14437 -8.94959
401 1 1.57178 14.1516 4.71675 -8.94997
402 1 3.14394 12.5793 3.14394 -8.94878
403 1 4.71493 14.1517 4.71493 -8.95373
404 1 6.28901 12.5783 3.14358 -8.94949
405 1 7.85463 14.1601 4.70336 -8.95186
406 1 9.43403 12.5798 3.14026 -8.95207
407 1 11.0081 14.1589 4.70291 -8.95292
408 1 12.5838 12.5819 3.13232 -8.95961
409 1 14.1691 14.168 4.69987 -8.9223
410 1 15.7287 12.5808 3.14044 -8.94697
411 1 17.3017 14.154 4.71496 -8.95113
412 1 18.8707 12.5797 3.14384 -8.94927
413 1 20.4424 14.1521 4.71681 -8.95023
414 1 3.85652e-05 15.7244 3.14451 -8.94992
415 1 1.57083 17.2977 4.71616 -8.94921
416 1 3.14376 15.7245 3.14376 -8.95079
417 1 4.71309 17.3007 4.71309 -8.94389
418 1 6.28646 15.7273 3.13965 -8.94916
419 1 7.86077 17.3007 4.71416 -8.94901
420 1 9.4337 15.7274 3.14035 -8.94715
421 1 11.0076 17.3009 4.71388 -8.94702
422 1 12.5809 15.7279 3.13979 -8.94935
423 1 14.1559 17.3031 4.71327 -8.94873
424 1 15.7294 15.7292 3.13972 -8.94274
425 1 17.2983 17.2981 4.71656 -8.94987
426 1 18.8706 15.7251 3.14393 -8.94973
427 1 20.4415 17.2971 4.717 -8.94991
428 1 22.0135 18.8694 3.1445 -8.94946
429 1 1.57203 20.4418 4.71702 -8.94963
430 1 3.14367 18.8701 3.14367 -8.94816
431 1 4.7165 20.4425 4.7165 -8.95001
432 1 6.28907 18.8703 3.14368 -8.94957
433 1 7.86194 20.4425 4.71654 -8.94965
434 1 9.4344 18.8705 3.14362 -8.94934
435 1 11.0072 20.4426 4.71646 -8.94954
436 1 12.5797 18.8706 3.14368 -8.94905
437 1 14.1524 20.4427 4.71675 -8.95086
438 1 15.7256 18.871 3.14351 -8.94905
439 1 17.297 20.4418 4.7172 -8.94973
440 1 18.8695 18.8695 3.14455 -8.9497
441 1 20.4415 20.4416 4.7172 -8.94957
442 1 1.57176 11.007 7.86155 -8.94715
443 1 4.71997 11.007 7.8638 -8.9354
444 1 7.89064 11.007 7.89064 -8.87455
445 1 11.101 11.007 7.54852 -7.95247
446 1 14.1636 11.007 7.84805 -8.96671
447 1 17.3004 11.007 7.86231 -8.95087
448 1 20.4422 11.007 7.8621 -8.94961
449 1 22.0139 12.5793 6.28928 -8.94983
450 1 1.56936 14.1524 7.86135 -8.95276
451 1 3.14358 12.5783 6.28901 -8.94949
452 1 4.70336 14.1601 7.85463 -8.95186
453 1 6.28757 12.5752 6.28757 -8.96221
454 1 7.82093 14.1933 7.82093 -8.83256
455 1 9.4154 12.6072 6.27288 -8.90108
456 1 11.0343 14.1686 7.82063 -8.87327
457 1 12.6338 12.6251 6.23742 -8.82035
458 1 14.1634 14.1587 7.8597 -8.94795
459 1 15.7378 12.5825 6.28486 -8.95901
460 1 17.2997 14.1526 7.86301 -8.95195
461 1 18.8721 12.5796 6.28928 -8.95208
462 1 20.4416 14.1521 7.86211 -8.95033
463 1 22.0129 15.7247 6.2892 -8.95051
464 1 1.57097 17.2978 7.86165 -8.94898
465 1 3.13965 15.7273 6.28646 -8.94916
466 1 4.71416 17.3007 7.86077 -8.94901
467 1 6.2762 15.7378 6.2762 -8.92611
468 1 7.86027 17.3053 7.86027 -8.96074
469 1 9.43441 15.7353 6.28164 -8.94906
470 1 11.007 17.3002 7.86122 -8.95437
471 1 12.5899 15.7408 6.27854 -8.95025
472 1 14.1533 17.2993 7.8627 -8.94981
473 1 15.7291 15.7279 6.28818 -8.95008
474 1 17.2978 17.2978 7.86216 -8.9487
475 1 18.8702 15.7249 6.28964 -8.95028
476 1 20.4415 17.2972 7.86196 -8.94941
477 1 -0.00035269 18.8695 6.28951 -8.94945
478 1 1.57197 20.4418 7.86199 -8.9495
479 1 3.14368 18.8703 6.28907 -8.94957
480 1 4.71654 20.4425 7.86194 -8.94965
481 1 6.28819 18.8727 6.28819 -8.95162
482 1 7.86212 20.4431 7.86212 -8.9517
483 1 9.43483 18.8725 6.28829 -8.95044
484 1 11.007 20.4424 7.86236 -8.95002
485 1 12.5801 18.8727 6.28906 -8.95358
486 1 14.1522 20.4422 7.86232 -8.94967
487 1 15.725 18.8703 6.28974 -8.94978
488 1 17.297 20.4418 7.8621 -8.94948
489 1 18.8694 18.8695 6.28963 -8.94941
490 1 20.4415 20.4417 7.86206 -8.94958
491 1 22.0127 12.5794 9.43425 -8.94942
492 1 3.14026 12.5798 9.43403 -8.95207
493 1 6.27288 12.6072 9.4154 -8.90108
494 1 9.38921 12.8327 9.38921 -7.70334
495 1 12.5717 12.5817 9.40815 -8.83236
496 1 15.7227 12.5776 9.43508 -8.94763
497 1 18.8695 12.5795 9.43476 -8.94794
498 1 22.0127 15.7251 9.43424 -8.94963
499 1 3.14035 15.7274 9.4337 -8.94715
500 1 6.28164 15.7353 9.43441 -8.94906
501 1 9.43225 15.715 9.43225 -9.01326
512 1 1.56881 11.007 11.007 -8.94886
517 1 17.2968 11.007 11.0065 -8.94411
519 1 1.56837 14.1531 11.0066 -8.95107
520 1 4.70291 14.1589 11.0081 -8.95292
527 1 4.71388 17.3009 11.0076 -8.94702
530 1 14.1529 17.2985 11.0061 -8.94836
531 1 17.2977 17.2978 11.007 -8.94881
532 1 20.4414 17.2973 11.007 -8.94947
534 1 4.71646 20.4426 11.0072 -8.94954
518 1 20.441 11.007 11.0066 -8.94869
523 1 14.1579 14.1547 11.0027 -8.95117
385 1 9.43447 18.8696 -0.000391789 -8.94952
686 1 20.4415 20.4416 20.4415 -8.94925
513 1 4.70803 11.007 11.0144 -9.0162
514 1 7.54852 11.007 11.101 -7.95247
515 1 11.2529 11.007 11.2529 -7.38738
516 1 14.1413 11.007 11.0164 -9.00678
685 1 18.8694 18.8695 18.8694 -8.94903
391 1 18.8694 18.8694 22.0137 -8.94916
684 1 17.2967 20.4416 20.4415 -8.94968
683 1 15.7244 18.8695 18.8693 -8.94982
521 1 7.82063 14.1686 11.0343 -8.87327
522 1 11.0283 14.1494 11.0283 -8.90053
387 1 12.5795 18.8695 22.0135 -8.94945
524 1 17.2988 14.1528 11.0061 -8.95
525 1 20.4412 14.1523 11.0067 -8.9501
526 1 1.57089 17.2979 11.007 -8.94919
682 1 14.1519 20.4416 20.4414 -8.94954
528 1 7.86122 17.3002 11.007 -8.95437
529 1 11.0062 17.2963 11.0062 -8.94953
681 1 12.5794 18.8695 18.8693 -8.94937
680 1 11.007 20.4417 20.4415 -8.94959
679 1 9.43454 18.8696 18.8694 -8.94956
533 1 1.57194 20.4419 11.007 -8.94953
678 1 7.86206 20.4417 20.4415 -8.94958
535 1 7.86236 20.4424 11.007 -8.95002
536 1 11.0069 20.4418 11.0069 -8.94896
677 1 6.28963 18.8695 18.8694 -8.94941
538 1 17.297 20.4418 11.007 -8.94953
539 1 20.4415 20.4417 11.007 -8.94959
540 1 1.56764 11.007 14.1545 -8.94922
541 1 4.70353 11.007 14.1651 -8.93965
542 1 7.84805 11.007 14.1636 -8.96671
543 1 11.0164 11.007 14.1413 -9.00678
544 1 14.1637 11.007 14.1637 -8.93954
545 1 17.3011 11.007 14.1543 -8.94879
546 1 20.4414 11.007 14.1526 -8.95037
547 1 22.0114 12.5796 12.5797 -8.95207
548 1 1.56768 14.1538 14.154 -8.95177
549 1 3.13232 12.5819 12.5838 -8.95961
550 1 4.69987 14.168 14.1691 -8.9223
551 1 6.23742 12.6251 12.6338 -8.82035
552 1 7.8597 14.1587 14.1634 -8.94795
553 1 9.40815 12.5817 12.5717 -8.83236
554 1 11.0027 14.1547 14.1579 -8.95117
555 1 12.6385 12.6398 12.6385 -8.74453
556 1 14.1707 14.1707 14.1707 -8.912
557 1 15.7358 12.5814 12.5824 -8.96495
558 1 17.3013 14.1539 14.1538 -8.95275
559 1 18.8709 12.5795 12.5794 -8.9528
560 1 20.4414 14.1523 14.1523 -8.95106
561 1 -0.00130442 15.725 12.5795 -8.94974
562 1 1.57083 17.298 14.1525 -8.94968
563 1 3.13979 15.7279 12.5809 -8.94935
564 1 4.71327 17.3031 14.1559 -8.94873
565 1 6.27854 15.7408 12.5899 -8.95025
566 1 7.8627 17.2993 14.1533 -8.94981
567 1 9.43342 15.7243 12.5789 -8.94962
568 1 11.0061 17.2985 14.1529 -8.94836
569 1 12.5857 15.7386 12.5857 -8.96041
570 1 14.1547 17.3023 14.1547 -8.95092
571 1 15.727 15.7265 12.5793 -8.95081
572 1 17.2977 17.2977 14.1521 -8.95022
573 1 18.8698 15.7249 12.5793 -8.94961
574 1 20.4414 17.2971 14.1519 -8.94965
575 1 22.0135 18.8695 12.5795 -8.94945
576 1 1.57201 20.4419 14.152 -8.94951
577 1 3.14368 18.8706 12.5797 -8.94905
578 1 4.71675 20.4427 14.1524 -8.95086
579 1 6.28906 18.8727 12.5801 -8.95358
580 1 7.86232 20.4422 14.1522 -8.94967
581 1 9.43478 18.8699 12.5796 -8.94878
582 1 11.0069 20.4421 14.1522 -8.94948
583 1 12.5795 18.8716 12.5795 -8.95396
584 1 14.1521 20.4425 14.1521 -8.95095
585 1 15.7247 18.87 12.5793 -8.94942
586 1 17.2969 20.4418 14.1518 -8.94963
587 1 18.8693 18.8695 12.5794 -8.94937
588 1 20.4414 20.4416 14.1519 -8.94954
589 1 1.57106 11.007 17.2981 -8.94933
590 1 4.71462 11.007 17.3017 -8.94876
591 1 7.86231 11.007 17.3004 -8.95087
592 1 11.0065 11.007 17.2968 -8.94411
593 1 14.1543 11.007 17.3011 -8.94879
594 1 17.298 11.007 17.298 -8.94944
595 1 20.4415 11.007 17.2973 -8.94949
596 1 -0.00124628 12.5797 15.7253 -8.94931
597 1 1.57112 14.1524 17.2981 -8.94913
598 1 3.14044 12.5808 15.7287 -8.94697
599 1 4.71496 14.154 17.3017 -8.95113
600 1 6.28486 12.5825 15.7378 -8.95901
601 1 7.86301 14.1526 17.2997 -8.95195
602 1 9.43508 12.5776 15.7227 -8.94763
603 1 11.0061 14.1528 17.2988 -8.95
604 1 12.5824 12.5814 15.7358 -8.96495
605 1 14.1538 14.1539 17.3013 -8.95275
606 1 15.7283 12.5807 15.7283 -8.94667
607 1 17.2979 14.1524 17.2979 -8.94919
608 1 18.8703 12.5797 15.7253 -8.94919
609 1 20.4415 14.1521 17.2972 -8.94937
610 1 22.0127 15.7252 15.7252 -8.95006
611 1 1.57112 17.298 17.298 -8.94787
612 1 3.13972 15.7292 15.7294 -8.94274
613 1 4.71656 17.2981 17.2983 -8.94987
614 1 6.28818 15.7279 15.7291 -8.95008
615 1 7.86216 17.2978 17.2978 -8.9487
616 1 9.43463 15.727 15.7273 -8.94417
617 1 11.007 17.2978 17.2977 -8.94881
618 1 12.5793 15.7265 15.727 -8.95081
619 1 14.1521 17.2977 17.2977 -8.95022
620 1 15.7296 15.7298 15.7296 -8.94078
621 1 17.298 17.2982 17.298 -8.94747
622 1 18.8704 15.7252 15.7252 -8.95014
623 1 20.4415 17.2972 17.2972 -8.94953
624 1 -0.000401748 18.8695 15.7245 -8.94967
625 1 1.572 20.4419 17.2971 -8.94938
626 1 3.14351 18.871 15.7256 -8.94905
627 1 4.7172 20.4418 17.297 -8.94973
628 1 6.28974 18.8703 15.725 -8.94978
629 1 7.8621 20.4418 17.297 -8.94948
630 1 9.43462 18.8703 15.7251 -8.94935
631 1 11.007 20.4418 17.297 -8.94953
632 1 12.5793 18.87 15.7247 -8.94942
633 1 14.1518 20.4418 17.2969 -8.94963
634 1 15.7253 18.8709 15.7253 -8.94955
635 1 17.297 20.4419 17.297 -8.9495
636 1 18.8693 18.8695 15.7244 -8.94982
637 1 20.4415 20.4416 17.2967 -8.94968
638 1 1.57203 11.007 20.4419 -8.94955
639 1 4.71663 11.007 20.4426 -8.94996
640 1 7.8621 11.007 20.4422 -8.94961
641 1 11.0066 11.007 20.441 -8.94869
642 1 14.1526 11.007 20.4414 -8.95037
643 1 17.2973 11.007 20.4415 -8.94949
644 1 20.4416 11.007 20.4416 -8.94959
645 1 22.0136 12.5795 18.8695 -8.94952
646 1 1.57206 14.1519 20.4419 -8.94948
647 1 3.14384 12.5797 18.8707 -8.94927
648 1 4.71681 14.1521 20.4424 -8.95023
649 1 6.28928 12.5796 18.8721 -8.95208
650 1 7.86211 14.1521 20.4416 -8.95033
651 1 9.43476 12.5795 18.8695 -8.94794
652 1 11.0067 14.1523 20.4412 -8.9501
653 1 12.5794 12.5795 18.8709 -8.9528
654 1 14.1523 14.1523 20.4414 -8.95106
655 1 15.7253 12.5797 18.8703 -8.94919
656 1 17.2972 14.1521 20.4415 -8.94937
657 1 18.8695 12.5795 18.8695 -8.94951
658 1 20.4416 14.1519 20.4416 -8.94958
659 1 -0.000277406 15.7245 18.8695 -8.94954
660 1 1.57212 17.2969 20.4418 -8.94961
661 1 3.14393 15.7251 18.8706 -8.94973
662 1 4.717 17.2971 20.4415 -8.94991
663 1 6.28964 15.7249 18.8702 -8.95028
664 1 7.86196 17.2972 20.4415 -8.94941
665 1 9.43453 15.7252 18.8701 -8.94934
666 1 11.007 17.2973 20.4414 -8.94947
667 1 12.5793 15.7249 18.8698 -8.94961
668 1 14.1519 17.2971 20.4414 -8.94965
669 1 15.7252 15.7252 18.8704 -8.95014
670 1 17.2972 17.2972 20.4415 -8.94953
671 1 18.8694 15.7245 18.8694 -8.94957
672 1 20.4416 17.2968 20.4416 -8.94964
673 1 22.0137 18.8694 18.8694 -8.94916
674 1 1.5723 20.4416 20.4415 -8.94955
675 1 3.14455 18.8695 18.8695 -8.9497
676 1 4.7172 20.4416 20.4415 -8.94957
351 1 22.0138 12.5794 22.0138 -8.94958
355 1 6.28928 12.5793 22.0139 -8.94983
357 1 9.43425 12.5794 22.0127 -8.94942
359 1 12.5797 12.5796 22.0114 -8.95207
363 1 18.8695 12.5795 22.0136 -8.94952
365 1 22.0139 15.7243 22.0139 -8.94953
369 1 6.2892 15.7247 22.0129 -8.95051
375 1 15.7252 15.7252 22.0127 -8.95006
381 1 3.1445 18.8694 22.0135 -8.94946
371 1 9.43424 15.7251 22.0127 -8.94963
