ITEM: TIMESTEP
116
ITEM: NUMBER OF ATOMS
688
ITEM: BOX BOUNDS pp pp pp
0.0000000000000000e+00 2.2013900999999997e+01
0.0000000000000000e+00 2.2013900999999997e+01
0.0000000000000000e+00 2.2013900999999997e+01
ITEM: ATOMS id type x y z c_pot
175 1 18.8686 9.4344 9.43438 -8.94755
2 1 1.57161 1.57177 1.57161 -8.9491
3 1 3.14428 9.54937e-16 -0.000473384 -8.94947
4 1 4.71636 1.57158 1.57128 -8.94949
174 1 15.7211 9.4368 9.43351 -8.94755
6 1 7.86166 1.57149 1.57116 -8.94936
191 1 4.69897 7.85329 11.0095 -8.95242
8 1 11.0071 1.57141 1.57107 -8.9494
173 1 12.5704 9.43428 9.40469 -8.81464
10 1 14.1526 1.5713 1.57113 -8.94939
11 1 15.7248 2.18953e-15 -0.000703117 -8.94944
12 1 17.2978 1.57128 1.57129 -8.94929
172 1 9.39059 9.19598 9.39059 -7.74332
14 1 20.4417 1.57176 1.57193 -8.94932
15 1 -0.000146853 3.14396 -0.000146853 -8.94942
16 1 1.57164 4.71629 1.57164 -8.95004
171 1 6.26833 9.40398 9.41349 -8.89718
18 1 4.71522 4.71511 1.56985 -8.94905
19 1 6.28902 3.14362 -0.000901856 -8.9493
20 1 7.86108 4.71486 1.56969 -8.94886
170 1 3.13796 9.43306 9.43434 -8.9524
22 1 11.0073 4.71454 1.56925 -8.94906
169 1 22.0116 9.43418 9.43434 -8.94936
24 1 14.1538 4.71409 1.56901 -8.94952
25 1 15.7253 3.14325 -0.00118814 -8.94955
26 1 17.2996 4.71427 1.56985 -8.9477
168 1 18.87 6.28799 9.43418 -8.94935
28 1 20.4424 4.71609 1.57163 -8.94955
167 1 15.7277 6.28641 9.43333 -8.94345
30 1 1.57207 7.86173 1.57207 -8.94937
31 1 3.14402 6.28895 0.000255231 -8.95007
32 1 4.71637 7.86191 1.57162 -8.95013
166 1 12.5784 6.29175 9.4319 -8.94968
34 1 7.86102 7.86057 1.56814 -8.95281
190 1 1.566 7.85961 11.0072 -8.95117
36 1 11.0072 7.85961 1.566 -8.95117
37 1 12.58 6.28769 -0.00284676 -8.94981
38 1 14.156 7.85854 1.56493 -8.95175
165 1 9.43209 6.30322 9.43209 -9.01091
40 1 17.3002 7.86018 1.56945 -8.94888
41 1 18.8706 6.28843 -0.000749569 -8.94929
42 1 20.4428 7.86138 1.57155 -8.94937
164 1 6.27918 6.2771 9.43407 -8.94942
44 1 3.14399 9.43428 0.000664179 -8.94962
163 1 3.13805 6.28467 9.43361 -8.947
162 1 22.0116 6.28784 9.43409 -8.94966
161 1 18.8694 3.14363 9.43443 -8.94941
48 1 15.727 9.43354 -0.00272462 -8.94929
160 1 15.7253 3.14314 9.43433 -8.94926
50 1 -0.000473384 3.61715e-16 3.14428 -8.94947
51 1 1.57128 1.57158 4.71636 -8.94949
52 1 3.14368 5.19704e-16 3.14368 -8.94949
53 1 4.71574 1.57076 4.71574 -8.95004
54 1 6.28895 9.98838e-16 3.14358 -8.94958
55 1 7.86161 1.57066 4.71578 -8.94985
56 1 9.43445 1.12631e-15 3.14349 -8.94954
57 1 11.0074 1.57063 4.71574 -8.94966
58 1 12.58 9.4247e-16 3.14358 -8.9495
59 1 14.1529 1.57041 4.71624 -8.95115
60 1 15.7253 2.03462e-15 3.14383 -8.9502
61 1 17.2976 1.57143 4.71684 -8.94979
62 1 18.8696 1.3647e-15 3.1444 -8.94966
63 1 20.4414 1.57183 4.71686 -8.94943
64 1 22.0132 3.14372 3.14392 -8.94935
65 1 1.56985 4.71511 4.71522 -8.94905
66 1 3.14275 3.14285 3.14275 -8.94814
67 1 4.71187 4.7118 4.71187 -8.94404
68 1 6.28818 3.14229 3.1425 -8.94949
69 1 7.85989 4.7113 4.71249 -8.94905
70 1 9.43426 3.14215 3.14235 -8.94927
71 1 11.0082 4.71132 4.71174 -8.9469
72 1 12.5805 3.14182 3.14231 -8.94897
73 1 14.1576 4.7089 4.71128 -8.94887
74 1 15.7269 3.1413 3.1423 -8.94911
75 1 17.2998 4.71423 4.71542 -8.9499
76 1 18.8702 3.14331 3.14389 -8.94964
77 1 20.4418 4.71596 4.71646 -8.95005
78 1 0.000255231 6.28895 3.14402 -8.95007
79 1 1.57162 7.86191 4.71637 -8.95013
80 1 3.143 6.2886 3.143 -8.95127
81 1 4.71431 7.86146 4.71431 -8.95473
82 1 6.28522 6.28496 3.13804 -8.94862
83 1 7.85342 7.85128 4.70118 -8.95
84 1 9.43361 6.28467 3.13805 -8.947
85 1 11.0095 7.85329 4.69897 -8.95242
86 1 12.5827 6.28393 3.13674 -8.9491
87 1 14.1718 7.84427 4.69609 -8.9234
88 1 15.7319 6.28245 3.13721 -8.94274
89 1 17.3042 7.85855 4.71302 -8.95098
90 1 18.8722 6.28758 3.14287 -8.94969
91 1 20.4435 7.8613 4.71623 -8.95036
92 1 0.000664179 9.43428 3.14399 -8.94962
93 1 3.14386 9.43441 3.14386 -8.94877
94 1 6.28902 9.43517 3.14345 -8.94915
95 1 9.43434 9.43306 3.13796 -8.9524
96 1 12.5862 9.43103 3.12836 -8.95931
97 1 15.7319 9.43198 3.13716 -8.94675
98 1 18.8727 9.4337 3.14257 -8.94919
99 1 22.0133 6.97789e-16 6.28926 -8.9494
100 1 1.57116 1.57149 7.86166 -8.94936
101 1 3.14358 1.11092e-15 6.28895 -8.94958
102 1 4.71578 1.57066 7.86161 -8.94985
103 1 6.28899 9.61261e-16 6.28899 -8.9508
104 1 7.86197 1.57074 7.86197 -8.95173
105 1 9.4347 1.02016e-15 6.28902 -8.95062
106 1 11.0068 1.57181 7.8623 -8.94985
107 1 12.5796 1.78426e-15 6.28957 -8.95103
108 1 14.1522 1.57155 7.86232 -8.94975
109 1 15.7249 5.80333e-16 6.28969 -8.94976
110 1 17.2973 1.57164 7.86204 -8.94935
111 1 18.8694 1.72874e-16 6.28951 -8.94938
112 1 20.4413 1.5718 7.8619 -8.94942
113 1 -0.000901856 3.14362 6.28902 -8.9493
114 1 1.56969 4.71486 7.86108 -8.94886
115 1 3.1425 3.14229 6.28818 -8.94949
116 1 4.71249 4.7113 7.85989 -8.94905
117 1 6.28747 3.14012 6.28747 -8.95166
118 1 7.85979 4.70864 7.85979 -8.96114
119 1 9.43472 3.14071 6.28741 -8.95086
120 1 11.0067 4.71481 7.86006 -8.95453
121 1 12.5804 3.14068 6.28829 -8.95376
122 1 14.1536 4.71432 7.86161 -8.95009
123 1 15.7257 3.14257 6.28924 -8.94993
124 1 17.2984 4.71524 7.86165 -8.94838
125 1 18.8697 3.14362 6.28933 -8.94924
126 1 20.4413 4.71582 7.86166 -8.94933
127 1 22.0125 6.28841 6.28871 -8.95066
128 1 1.56814 7.86057 7.86102 -8.95281
129 1 3.13804 6.28496 6.28522 -8.94862
130 1 4.70118 7.85128 7.85342 -8.95
131 1 6.27539 6.27491 6.27539 -8.92704
132 1 7.82209 7.82104 7.82209 -8.84046
133 1 9.43407 6.2771 6.27918 -8.94942
134 1 11.0325 7.8473 7.81801 -8.87813
135 1 12.5909 6.27255 6.27556 -8.95056
136 1 14.1638 7.85499 7.85614 -8.94824
137 1 15.7309 6.28447 6.28612 -8.95017
138 1 17.3 7.86103 7.86207 -8.9522
139 1 18.8711 6.28826 6.28909 -8.95056
140 1 20.4414 7.86144 7.8619 -8.9504
141 1 22.0142 9.43444 6.2891 -8.94977
142 1 3.14345 9.43517 6.28902 -8.94915
143 1 6.28812 9.43857 6.28812 -8.96535
144 1 9.41349 9.40398 6.26833 -8.89718
145 1 12.6339 9.38992 6.2332 -8.82693
146 1 15.7397 9.43073 6.28144 -8.95856
147 1 18.8733 9.43397 6.28839 -8.95219
148 1 22.0132 3.60931e-16 9.43443 -8.94944
149 1 3.14349 1.6369e-15 9.43445 -8.94954
150 1 6.28902 7.72347e-16 9.4347 -8.95062
151 1 9.43461 1.21234e-15 9.43461 -8.94736
152 1 12.5794 7.48129e-16 9.43472 -8.94914
153 1 15.7248 -1.43472e-16 9.43458 -8.94967
154 1 18.8692 -7.62328e-16 9.43453 -8.94946
155 1 -0.00111473 3.14347 9.43433 -8.94936
156 1 3.14235 3.14215 9.43426 -8.94927
157 1 6.28741 3.14071 9.43472 -8.95086
158 1 9.43434 3.14639 9.43434 -8.94406
159 1 12.5793 3.14488 9.43442 -8.94855
177 1 4.71574 1.57063 11.0074 -8.94966
180 1 14.1521 1.57175 11.0067 -8.94952
184 1 4.71174 4.71132 11.0082 -8.9469
187 1 14.1531 4.71516 11.0054 -8.94829
188 1 17.2979 4.71535 11.0068 -8.94864
189 1 20.4409 4.71571 11.007 -8.94939
194 1 14.1592 7.85842 11.0014 -8.94932
21 1 9.43433 3.14347 -0.00111473 -8.94936
176 1 1.57107 1.57141 11.0071 -8.9494
343 1 18.8702 9.43398 18.8702 -8.94929
178 1 7.8623 1.57181 11.0068 -8.94985
179 1 11.0065 1.57278 11.0065 -8.94848
342 1 15.7266 9.43358 18.871 -8.9491
181 1 17.2971 1.57171 11.007 -8.94942
182 1 20.4411 1.57179 11.007 -8.94943
183 1 1.56925 4.71454 11.0073 -8.94906
341 1 12.5797 9.43418 18.871 -8.95366
185 1 7.86006 4.71481 11.0067 -8.95453
186 1 11.0056 4.71991 11.0056 -8.94871
340 1 9.43438 9.4344 18.8686 -8.94755
339 1 6.28839 9.43397 18.8733 -8.95219
338 1 3.14257 9.4337 18.8727 -8.94919
337 1 22.0131 9.43403 18.8708 -8.94931
336 1 20.442 7.86142 20.442 -8.94934
192 1 7.81801 7.8473 11.0325 -8.87813
193 1 11.0292 7.86916 11.0292 -8.90217
49 1 18.8708 9.43403 22.0131 -8.94931
195 1 17.2988 7.86069 11.0056 -8.9503
196 1 20.4403 7.86107 11.0067 -8.95024
197 1 22.0131 1.77887e-15 12.5796 -8.94941
198 1 1.57113 1.5713 14.1526 -8.94939
199 1 3.14358 1.211e-15 12.58 -8.9495
200 1 4.71624 1.57041 14.1529 -8.95115
201 1 6.28957 1.78423e-15 12.5796 -8.95103
202 1 7.86232 1.57155 14.1522 -8.94975
203 1 9.43472 9.2517e-16 12.5794 -8.94914
204 1 11.0067 1.57175 14.1521 -8.94952
205 1 12.5791 -4.10664e-16 12.5791 -8.95112
206 1 14.1522 1.57076 14.1522 -8.95157
207 1 15.7245 -6.01003e-16 12.5793 -8.94957
208 1 17.297 1.57161 14.1519 -8.94966
209 1 18.8691 8.12999e-16 12.5795 -8.94941
210 1 20.4411 1.57177 14.1521 -8.94938
211 1 22.0126 3.14337 12.5798 -8.94927
212 1 1.56901 4.71409 14.1538 -8.94952
213 1 3.14231 3.14182 12.5805 -8.94897
214 1 4.71128 4.7089 14.1576 -8.94887
215 1 6.28829 3.14068 12.5804 -8.95376
216 1 7.86161 4.71432 14.1536 -8.95009
217 1 9.43442 3.14488 12.5793 -8.94855
218 1 11.0054 4.71516 14.1531 -8.94829
219 1 12.5792 3.14191 12.5792 -8.95502
220 1 14.1559 4.70918 14.1559 -8.95159
221 1 15.7249 3.14311 12.5792 -8.94946
222 1 17.2985 4.71475 14.1526 -8.95035
223 1 18.8693 3.14365 12.5795 -8.94921
224 1 20.4409 4.71566 14.1524 -8.94969
225 1 -0.00284676 6.28769 12.58 -8.94981
226 1 1.56493 7.85854 14.156 -8.95175
227 1 3.13674 6.28393 12.5827 -8.9491
228 1 4.69609 7.84427 14.1718 -8.9234
229 1 6.27556 6.27255 12.5909 -8.95056
230 1 7.85614 7.85499 14.1638 -8.94824
231 1 9.4319 6.29175 12.5784 -8.94968
232 1 11.0014 7.85842 14.1592 -8.94932
233 1 12.5866 6.27285 12.5866 -8.96296
234 1 14.1762 7.83773 14.1762 -8.90342
235 1 15.7283 6.28586 12.5796 -8.95069
236 1 17.3034 7.85843 14.1552 -8.95341
237 1 18.8698 6.28817 12.5794 -8.94974
238 1 20.4409 7.86073 14.1531 -8.95153
239 1 22.0096 9.43386 12.5805 -8.95241
240 1 3.12836 9.43103 12.5862 -8.95931
241 1 6.2332 9.38992 12.6339 -8.82693
242 1 9.40469 9.43428 12.5704 -8.81464
243 1 12.6486 9.36299 12.6486 -8.71162
244 1 15.7388 9.43124 12.5841 -8.96625
245 1 18.871 9.43418 12.5797 -8.95366
246 1 -0.000703117 1.89906e-15 15.7248 -8.94944
247 1 1.57129 1.57128 17.2978 -8.94929
248 1 3.14383 1.77059e-15 15.7253 -8.9502
249 1 4.71684 1.57143 17.2976 -8.94979
250 1 6.28969 6.13006e-16 15.7249 -8.94976
251 1 7.86204 1.57164 17.2973 -8.94935
252 1 9.43458 -3.07735e-17 15.7248 -8.94967
253 1 11.007 1.57171 17.2971 -8.94942
254 1 12.5793 -3.38651e-16 15.7245 -8.94957
255 1 14.1519 1.57161 17.297 -8.94966
256 1 15.7248 1.70617e-15 15.7248 -8.95049
257 1 17.2975 1.57126 17.2975 -8.94945
258 1 18.8692 1.68498e-15 15.7245 -8.94966
259 1 20.4413 1.57167 17.2972 -8.94955
260 1 -0.00118814 3.14325 15.7253 -8.94955
261 1 1.56985 4.71427 17.2996 -8.9477
262 1 3.1423 3.1413 15.7269 -8.94911
263 1 4.71542 4.71423 17.2998 -8.9499
264 1 6.28924 3.14257 15.7257 -8.94993
265 1 7.86165 4.71524 17.2984 -8.94838
266 1 9.43433 3.14314 15.7253 -8.94926
267 1 11.0068 4.71535 17.2979 -8.94864
268 1 12.5792 3.14311 15.7249 -8.94946
269 1 14.1526 4.71475 17.2985 -8.95035
270 1 15.7261 3.14138 15.7261 -8.94974
271 1 17.2993 4.71382 17.2993 -8.94665
272 1 18.8696 3.14334 15.7249 -8.94984
273 1 20.4415 4.7154 17.2981 -8.94941
274 1 22.0114 6.28727 15.7266 -8.95012
275 1 1.56945 7.86018 17.3002 -8.94888
276 1 3.13721 6.28245 15.7319 -8.94274
277 1 4.71302 7.85855 17.3042 -8.95098
278 1 6.28612 6.28447 15.7309 -8.95017
279 1 7.86207 7.86103 17.3 -8.9522
280 1 9.43333 6.28641 15.7277 -8.94345
281 1 11.0056 7.86069 17.2988 -8.9503
282 1 12.5796 6.28586 15.7283 -8.95069
283 1 14.1552 7.85843 17.3034 -8.95341
284 1 15.7324 6.28089 15.7324 -8.93835
285 1 17.2993 7.86019 17.2993 -8.94891
286 1 18.8712 6.28716 15.7263 -8.9503
287 1 20.4414 7.86094 17.2984 -8.94919
288 1 -0.00272462 9.43354 15.727 -8.94929
289 1 3.13716 9.43198 15.7319 -8.94675
290 1 6.28144 9.43073 15.7397 -8.95856
291 1 9.43351 9.4368 15.7211 -8.94755
292 1 12.5841 9.43124 15.7388 -8.96625
293 1 15.7307 9.43213 15.7307 -8.94603
294 1 18.871 9.43358 15.7266 -8.9491
295 1 22.0134 1.92437e-15 18.8696 -8.94909
296 1 1.57193 1.57176 20.4417 -8.94932
297 1 3.1444 1.50578e-15 18.8696 -8.94966
298 1 4.71686 1.57183 20.4414 -8.94943
299 1 6.28951 7.97319e-16 18.8694 -8.94938
300 1 7.8619 1.5718 20.4413 -8.94942
301 1 9.43453 8.48216e-17 18.8692 -8.94946
302 1 11.007 1.57179 20.4411 -8.94943
303 1 12.5795 1.35109e-15 18.8691 -8.94941
304 1 14.1521 1.57177 20.4411 -8.94938
305 1 15.7245 1.85989e-15 18.8692 -8.94966
306 1 17.2972 1.57167 20.4413 -8.94955
307 1 18.8695 2.24797e-15 18.8695 -8.94921
308 1 20.4417 1.57178 20.4417 -8.94876
309 1 22.0133 3.1435 18.8702 -8.94887
310 1 1.57163 4.71609 20.4424 -8.94955
311 1 3.14389 3.14331 18.8702 -8.94964
312 1 4.71646 4.71596 20.4418 -8.95005
313 1 6.28933 3.14362 18.8697 -8.94924
314 1 7.86166 4.71582 20.4413 -8.94933
315 1 9.43443 3.14363 18.8694 -8.94941
316 1 11.007 4.71571 20.4409 -8.94939
317 1 12.5795 3.14365 18.8693 -8.94921
318 1 14.1524 4.71566 20.4409 -8.94969
319 1 15.7249 3.14334 18.8696 -8.94984
320 1 17.2981 4.7154 20.4415 -8.94941
321 1 18.8699 3.1433 18.8699 -8.94857
322 1 20.4419 4.71622 20.4419 -8.9494
323 1 -0.000749569 6.28843 18.8706 -8.94929
324 1 1.57155 7.86138 20.4428 -8.94937
325 1 3.14287 6.28758 18.8722 -8.94969
326 1 4.71623 7.8613 20.4435 -8.95036
327 1 6.28909 6.28826 18.8711 -8.95056
328 1 7.8619 7.86144 20.4414 -8.9504
329 1 9.43418 6.28799 18.87 -8.94935
330 1 11.0067 7.86107 20.4403 -8.95024
331 1 12.5794 6.28817 18.8698 -8.94974
332 1 14.1531 7.86073 20.4409 -8.95153
333 1 15.7263 6.28716 18.8712 -8.9503
334 1 17.2984 7.86094 20.4414 -8.94919
335 1 18.8701 6.2883 18.8701 -8.94935
1 1 22.0137 6.00637e-16 22.0137 -8.94908
5 1 6.28926 5.90354e-16 22.0133 -8.9494
9 1 12.5796 1.70423e-15 22.0131 -8.94941
13 1 18.8696 1.82739e-15 22.0134 -8.94909
17 1 3.14392 3.14372 22.0132 -8.94935
47 1 12.5805 9.43386 22.0096 -8.95241
23 1 12.5798 3.14337 22.0126 -8.94927
27 1 18.8702 3.1435 22.0133 -8.94887
29 1 22.014 6.28898 22.014 -8.94941
33 1 6.28871 6.28841 22.0125 -8.95066
39 1 15.7266 6.28727 22.0114 -8.95012
43 1 22.014 9.43426 22.014 -8.94945
45 1 6.2891 9.43444 22.0142 -8.94977
46 1 9.43434 9.43418 22.0116 -8.94936
7 1 9.43443 1.69297e-16 22.0132 -8.94944
35 1 9.43409 6.28784 22.0116 -8.94966
344 1 1.57214 11.007 1.57214 -8.94952
345 1 4.71635 11.007 1.57201 -8.94981
346 1 7.86171 11.007 1.57136 -8.94671
347 1 11.0079 11.007 1.56656 -8.9491
348 1 14.1568 11.007 1.56456 -8.94935
349 1 17.3004 11.007 1.5693 -8.94915
350 1 20.4429 11.007 1.57149 -8.94944
688 3 10.4756 11.007 9.41695 2.3328
352 1 1.57207 14.1522 1.57207 -8.94937
353 1 3.14399 12.5796 0.000664179 -8.94962
354 1 4.71637 14.152 1.57162 -8.95013
687 3 9.41695 11.007 10.4756 2.3328
356 1 7.86102 14.1533 1.56814 -8.95281
511 1 18.8694 18.8703 9.43443 -8.94941
358 1 11.0072 14.1543 1.566 -8.95117
510 1 15.7253 18.8708 9.43433 -8.94926
360 1 14.156 14.1554 1.56493 -8.95175
361 1 15.727 12.5804 -0.00272462 -8.94929
362 1 17.3002 14.1537 1.56945 -8.94888
509 1 12.5793 18.869 9.43442 -8.94855
364 1 20.4428 14.1525 1.57155 -8.94937
508 1 9.43434 18.8675 9.43434 -8.94406
366 1 1.57164 17.2976 1.57164 -8.95004
367 1 3.14402 15.725 0.000255231 -8.95007
368 1 4.71522 17.2988 1.56985 -8.94905
507 1 6.28741 18.8732 9.43472 -8.95086
370 1 7.86108 17.299 1.56969 -8.94886
537 1 14.1521 20.4421 11.0067 -8.94952
372 1 11.0073 17.2994 1.56925 -8.94906
373 1 12.58 15.7262 -0.00284676 -8.94981
374 1 14.1538 17.2998 1.56901 -8.94952
506 1 3.14235 18.8718 9.43426 -8.94927
376 1 17.2996 17.2996 1.56985 -8.9477
377 1 18.8706 15.7255 -0.000749569 -8.94929
378 1 20.4424 17.2978 1.57163 -8.94955
379 1 -0.000146853 18.8699 -0.000146853 -8.94942
380 1 1.57161 20.4421 1.57161 -8.9491
505 1 -0.00111473 18.8704 9.43433 -8.94936
382 1 4.71636 20.4423 1.57128 -8.94949
383 1 6.28902 18.8703 -0.000901856 -8.9493
384 1 7.86166 20.4424 1.57116 -8.94936
504 1 18.87 15.7259 9.43418 -8.94935
386 1 11.0071 20.4425 1.57107 -8.9494
503 1 15.7277 15.7275 9.43333 -8.94345
388 1 14.1526 20.4426 1.57113 -8.94939
389 1 15.7253 18.8707 -0.00118814 -8.94955
390 1 17.2978 20.4426 1.57129 -8.94929
502 1 12.5784 15.7222 9.4319 -8.94968
392 1 20.4417 20.4421 1.57193 -8.94932
393 1 1.57201 11.007 4.71635 -8.94981
394 1 4.71526 11.007 4.71526 -8.94558
395 1 7.86393 11.007 4.71942 -8.93188
396 1 11.0154 11.007 4.70363 -9.01605
397 1 14.1683 11.007 4.6985 -8.93964
398 1 17.3044 11.007 4.71226 -8.94868
399 1 20.4438 11.007 4.71599 -8.95005
400 1 0.000664179 12.5796 3.14399 -8.94962
401 1 1.57162 14.152 4.71637 -8.95013
402 1 3.14386 12.5795 3.14386 -8.94877
403 1 4.71431 14.1524 4.71431 -8.95473
404 1 6.28902 12.5787 3.14345 -8.94915
405 1 7.85342 14.1626 4.70118 -8.95
406 1 9.43434 12.5808 3.13796 -8.9524
407 1 11.0095 14.1606 4.69897 -8.95242
408 1 12.5862 12.5829 3.12836 -8.95931
409 1 14.1718 14.1696 4.69609 -8.9234
410 1 15.7319 12.5819 3.13716 -8.94675
411 1 17.3042 14.1553 4.71302 -8.95098
412 1 18.8727 12.5802 3.14257 -8.94919
413 1 20.4435 14.1526 4.71623 -8.95036
414 1 0.000255231 15.725 3.14402 -8.95007
415 1 1.56985 17.2988 4.71522 -8.94905
416 1 3.143 15.7253 3.143 -8.95127
417 1 4.71187 17.3021 4.71187 -8.94404
418 1 6.28522 15.7289 3.13804 -8.94862
419 1 7.85989 17.3026 4.71249 -8.94905
420 1 9.43361 15.7292 3.13805 -8.947
421 1 11.0082 17.3026 4.71174 -8.9469
422 1 12.5827 15.73 3.13674 -8.9491
423 1 14.1576 17.305 4.71128 -8.94887
424 1 15.7319 15.7315 3.13721 -8.94274
425 1 17.2998 17.2997 4.71542 -8.9499
426 1 18.8722 15.7263 3.14287 -8.94969
427 1 20.4418 17.2979 4.71646 -8.95005
428 1 22.0132 18.8702 3.14392 -8.94935
429 1 1.57128 20.4423 4.71636 -8.94949
430 1 3.14275 18.8711 3.14275 -8.94814
431 1 4.71574 20.4431 4.71574 -8.95004
432 1 6.28818 18.8716 3.1425 -8.94949
433 1 7.86161 20.4432 4.71578 -8.94985
434 1 9.43426 18.8718 3.14235 -8.94927
435 1 11.0074 20.4433 4.71574 -8.94966
436 1 12.5805 18.8721 3.14231 -8.94897
437 1 14.1529 20.4435 4.71624 -8.95115
438 1 15.7269 18.8726 3.1423 -8.94911
439 1 17.2976 20.4425 4.71684 -8.94979
440 1 18.8702 18.8706 3.14389 -8.94964
441 1 20.4414 20.4421 4.71686 -8.94943
442 1 1.57136 11.007 7.86171 -8.94671
443 1 4.71942 11.007 7.86393 -8.93188
444 1 7.89641 11.007 7.89641 -8.89749
445 1 11.0903 11.007 7.54565 -7.97955
446 1 14.1627 11.007 7.84314 -8.96313
447 1 17.3003 11.007 7.86079 -8.95072
448 1 20.4421 11.007 7.86187 -8.9494
449 1 22.0142 12.5795 6.2891 -8.94977
450 1 1.56814 14.1533 7.86102 -8.95281
451 1 3.14345 12.5787 6.28902 -8.94915
452 1 4.70118 14.1626 7.85342 -8.95
453 1 6.28812 12.5753 6.28812 -8.96535
454 1 7.82209 14.1929 7.82209 -8.84046
455 1 9.41349 12.6099 6.26833 -8.89718
456 1 11.0325 14.1666 7.81801 -8.87813
457 1 12.6339 12.624 6.2332 -8.82693
458 1 14.1638 14.1589 7.85614 -8.94824
459 1 15.7397 12.5832 6.28144 -8.95856
460 1 17.3 14.1529 7.86207 -8.9522
461 1 18.8733 12.5799 6.28839 -8.95219
462 1 20.4414 14.1525 7.8619 -8.9504
463 1 22.0125 15.7255 6.28871 -8.95066
464 1 1.56969 17.299 7.86108 -8.94886
465 1 3.13804 15.7289 6.28522 -8.94862
466 1 4.71249 17.3026 7.85989 -8.94905
467 1 6.27539 15.739 6.27539 -8.92704
468 1 7.85979 17.3053 7.85979 -8.96114
469 1 9.43407 15.7368 6.27918 -8.94942
470 1 11.0067 17.2991 7.86006 -8.95453
471 1 12.5909 15.7413 6.27556 -8.95056
472 1 14.1536 17.2996 7.86161 -8.95009
473 1 15.7309 15.7294 6.28612 -8.95017
474 1 17.2984 17.2987 7.86165 -8.94838
475 1 18.8711 15.7256 6.28909 -8.95056
476 1 20.4413 17.2981 7.86166 -8.94933
477 1 -0.000901856 18.8703 6.28902 -8.9493
478 1 1.57116 20.4424 7.86166 -8.94936
479 1 3.1425 18.8716 6.28818 -8.94949
480 1 4.71578 20.4432 7.86161 -8.94985
481 1 6.28747 18.8738 6.28747 -8.95166
482 1 7.86197 20.4432 7.86197 -8.95173
483 1 9.43472 18.8732 6.28741 -8.95086
484 1 11.0068 20.4421 7.8623 -8.94985
485 1 12.5804 18.8732 6.28829 -8.95376
486 1 14.1522 20.4424 7.86232 -8.94975
487 1 15.7257 18.8713 6.28924 -8.94993
488 1 17.2973 20.4423 7.86204 -8.94935
489 1 18.8697 18.8703 6.28933 -8.94924
490 1 20.4413 20.4421 7.8619 -8.94942
491 1 22.0116 12.5797 9.43434 -8.94936
492 1 3.13796 12.5808 9.43434 -8.9524
493 1 6.26833 12.6099 9.41349 -8.89718
494 1 9.39059 12.8179 9.39059 -7.74332
495 1 12.5704 12.5796 9.40469 -8.81464
496 1 15.7211 12.5771 9.43351 -8.94755
497 1 18.8686 12.5795 9.43438 -8.94755
498 1 22.0116 15.7261 9.43409 -8.94966
499 1 3.13805 15.7292 9.43361 -8.947
500 1 6.27918 15.7368 9.43407 -8.94942
501 1 9.43209 15.7107 9.43209 -9.01091
512 1 1.56656 11.007 11.0079 -8.9491
517 1 17.2959 11.007 11.0063 -8.94417
519 1 1.566 14.1543 11.0072 -8.95117
520 1 4.69897 14.1606 11.0095 -8.95242
527 1 4.71174 17.3026 11.0082 -8.9469
530 1 14.1531 17.2987 11.0054 -8.94829
531 1 17.2979 17.2986 11.0068 -8.94864
532 1 20.4409 17.2982 11.007 -8.94939
534 1 4.71574 20.4433 11.0074 -8.94966
518 1 20.4398 11.007 11.0066 -8.94846
523 1 14.1592 14.1555 11.0014 -8.94932
385 1 9.43433 18.8704 -0.00111473 -8.94936
686 1 20.4417 20.4421 20.4417 -8.94876
513 1 4.70363 11.007 11.0154 -9.01605
514 1 7.54565 11.007 11.0903 -7.97955
515 1 11.2808 11.007 11.2808 -7.32161
516 1 14.1419 11.007 11.0189 -9.01242
685 1 18.8699 18.8706 18.8699 -8.94857
391 1 18.8702 18.8704 22.0133 -8.94887
684 1 17.2972 20.4422 20.4413 -8.94955
683 1 15.7249 18.8706 18.8696 -8.94984
521 1 7.81801 14.1666 11.0325 -8.87813
522 1 11.0292 14.1447 11.0292 -8.90217
387 1 12.5798 18.8705 22.0126 -8.94927
524 1 17.2988 14.1532 11.0056 -8.9503
525 1 20.4403 14.1528 11.0067 -8.95024
526 1 1.56925 17.2994 11.0073 -8.94906
682 1 14.1521 20.4421 20.4411 -8.94938
528 1 7.86006 17.2991 11.0067 -8.95453
529 1 11.0056 17.294 11.0056 -8.94871
681 1 12.5795 18.8703 18.8693 -8.94921
680 1 11.007 20.4421 20.4411 -8.94943
679 1 9.43443 18.8703 18.8694 -8.94941
533 1 1.57107 20.4425 11.0071 -8.9494
678 1 7.8619 20.4421 20.4413 -8.94942
535 1 7.8623 20.4421 11.0068 -8.94985
536 1 11.0065 20.4411 11.0065 -8.94848
677 1 6.28933 18.8703 18.8697 -8.94924
538 1 17.2971 20.4422 11.007 -8.94942
539 1 20.4411 20.4421 11.007 -8.94943
540 1 1.56456 11.007 14.1568 -8.94935
541 1 4.6985 11.007 14.1683 -8.93964
542 1 7.84314 11.007 14.1627 -8.96313
543 1 11.0189 11.007 14.1419 -9.01242
544 1 14.1671 11.007 14.1671 -8.9378
545 1 17.3028 11.007 14.156 -8.94851
546 1 20.4407 11.007 14.1536 -8.95069
547 1 22.0096 12.58 12.5805 -8.95241
548 1 1.56493 14.1554 14.156 -8.95175
549 1 3.12836 12.5829 12.5862 -8.95931
550 1 4.69609 14.1696 14.1718 -8.9234
551 1 6.2332 12.624 12.6339 -8.82693
552 1 7.85614 14.1589 14.1638 -8.94824
553 1 9.40469 12.5796 12.5704 -8.81464
554 1 11.0014 14.1555 14.1592 -8.94932
555 1 12.6486 12.6509 12.6486 -8.71162
556 1 14.1762 14.1762 14.1762 -8.90342
557 1 15.7388 12.5827 12.5841 -8.96625
558 1 17.3034 14.1555 14.1552 -8.95341
559 1 18.871 12.5797 12.5797 -8.95366
560 1 20.4409 14.1532 14.1531 -8.95153
561 1 -0.00284676 15.7262 12.58 -8.94981
562 1 1.56901 17.2998 14.1538 -8.94952
563 1 3.13674 15.73 12.5827 -8.9491
564 1 4.71128 17.305 14.1576 -8.94887
565 1 6.27556 15.7413 12.5909 -8.95056
566 1 7.86161 17.2996 14.1536 -8.95009
567 1 9.4319 15.7222 12.5784 -8.94968
568 1 11.0054 17.2987 14.1531 -8.94829
569 1 12.5866 15.741 12.5866 -8.96296
570 1 14.1559 17.3047 14.1559 -8.95159
571 1 15.7283 15.728 12.5796 -8.95069
572 1 17.2985 17.2991 14.1526 -8.95035
573 1 18.8698 15.7257 12.5794 -8.94974
574 1 20.4409 17.2982 14.1524 -8.94969
575 1 22.0126 18.8705 12.5798 -8.94927
576 1 1.57113 20.4426 14.1526 -8.94939
577 1 3.14231 18.8721 12.5805 -8.94897
578 1 4.71624 20.4435 14.1529 -8.95115
579 1 6.28829 18.8732 12.5804 -8.95376
580 1 7.86232 20.4424 14.1522 -8.94975
581 1 9.43442 18.869 12.5793 -8.94855
582 1 11.0067 20.4421 14.1521 -8.94952
583 1 12.5792 18.872 12.5792 -8.95502
584 1 14.1522 20.4431 14.1522 -8.95157
585 1 15.7249 18.8708 12.5792 -8.94946
586 1 17.297 20.4423 14.1519 -8.94966
587 1 18.8693 18.8703 12.5795 -8.94921
588 1 20.4411 20.4421 14.1521 -8.94938
589 1 1.5693 11.007 17.3004 -8.94915
590 1 4.71226 11.007 17.3044 -8.94868
591 1 7.86079 11.007 17.3003 -8.95072
592 1 11.0063 11.007 17.2959 -8.94417
593 1 14.156 11.007 17.3028 -8.94851
594 1 17.2995 11.007 17.2995 -8.94919
595 1 20.4414 11.007 17.2986 -8.94937
596 1 -0.00272462 12.5804 15.727 -8.94929
597 1 1.56945 14.1537 17.3002 -8.94888
598 1 3.13716 12.5819 15.7319 -8.94675
599 1 4.71302 14.1553 17.3042 -8.95098
600 1 6.28144 12.5832 15.7397 -8.95856
601 1 7.86207 14.1529 17.3 -8.9522
602 1 9.43351 12.5771 15.7211 -8.94755
603 1 11.0056 14.1532 17.2988 -8.9503
604 1 12.5841 12.5827 15.7388 -8.96625
605 1 14.1552 14.1555 17.3034 -8.95341
606 1 15.7307 12.5818 15.7307 -8.94603
607 1 17.2993 14.1537 17.2993 -8.94891
608 1 18.871 12.5803 15.7266 -8.9491
609 1 20.4414 14.153 17.2984 -8.94919
610 1 22.0114 15.7266 15.7266 -8.95012
611 1 1.56985 17.2996 17.2996 -8.9477
612 1 3.13721 15.7315 15.7319 -8.94274
613 1 4.71542 17.2997 17.2998 -8.9499
614 1 6.28612 15.7294 15.7309 -8.95017
615 1 7.86165 17.2987 17.2984 -8.94838
616 1 9.43333 15.7275 15.7277 -8.94345
617 1 11.0068 17.2986 17.2979 -8.94864
618 1 12.5796 15.728 15.7283 -8.95069
619 1 14.1526 17.2991 17.2985 -8.95035
620 1 15.7324 15.733 15.7324 -8.93835
621 1 17.2993 17.3001 17.2993 -8.94665
622 1 18.8712 15.7267 15.7263 -8.9503
623 1 20.4415 17.2985 17.2981 -8.94941
624 1 -0.00118814 18.8707 15.7253 -8.94955
625 1 1.57129 20.4426 17.2978 -8.94929
626 1 3.1423 18.8726 15.7269 -8.94911
627 1 4.71684 20.4425 17.2976 -8.94979
628 1 6.28924 18.8713 15.7257 -8.94993
629 1 7.86204 20.4423 17.2973 -8.94935
630 1 9.43433 18.8708 15.7253 -8.94926
631 1 11.007 20.4422 17.2971 -8.94942
632 1 12.5792 18.8708 15.7249 -8.94946
633 1 14.1519 20.4423 17.297 -8.94966
634 1 15.7261 18.8725 15.7261 -8.94974
635 1 17.2975 20.4426 17.2975 -8.94945
636 1 18.8696 18.8706 15.7249 -8.94984
637 1 20.4413 20.4422 17.2972 -8.94955
638 1 1.57149 11.007 20.4429 -8.94944
639 1 4.71599 11.007 20.4438 -8.95005
640 1 7.86187 11.007 20.4421 -8.9494
641 1 11.0066 11.007 20.4398 -8.94846
642 1 14.1536 11.007 20.4407 -8.95069
643 1 17.2986 11.007 20.4414 -8.94937
644 1 20.442 11.007 20.442 -8.94938
645 1 22.0131 12.5799 18.8708 -8.94931
646 1 1.57155 14.1525 20.4428 -8.94937
647 1 3.14257 12.5802 18.8727 -8.94919
648 1 4.71623 14.1526 20.4435 -8.95036
649 1 6.28839 12.5799 18.8733 -8.95219
650 1 7.8619 14.1525 20.4414 -8.9504
651 1 9.43438 12.5795 18.8686 -8.94755
652 1 11.0067 14.1528 20.4403 -8.95024
653 1 12.5797 12.5797 18.871 -8.95366
654 1 14.1531 14.1532 20.4409 -8.95153
655 1 15.7266 12.5803 18.871 -8.9491
656 1 17.2984 14.153 20.4414 -8.94919
657 1 18.8702 12.5799 18.8702 -8.94929
658 1 20.442 14.1525 20.442 -8.94934
659 1 -0.000749569 15.7255 18.8706 -8.94929
660 1 1.57163 17.2978 20.4424 -8.94955
661 1 3.14287 15.7263 18.8722 -8.94969
662 1 4.71646 17.2979 20.4418 -8.95005
663 1 6.28909 15.7256 18.8711 -8.95056
664 1 7.86166 17.2981 20.4413 -8.94933
665 1 9.43418 15.7259 18.87 -8.94935
666 1 11.007 17.2982 20.4409 -8.94939
667 1 12.5794 15.7257 18.8698 -8.94974
668 1 14.1524 17.2982 20.4409 -8.94969
669 1 15.7263 15.7267 18.8712 -8.9503
670 1 17.2981 17.2985 20.4415 -8.94941
671 1 18.8701 15.7256 18.8701 -8.94935
672 1 20.4419 17.2977 20.4419 -8.9494
673 1 22.0133 18.8704 18.8702 -8.94887
674 1 1.57193 20.4421 20.4417 -8.94932
675 1 3.14389 18.8706 18.8702 -8.94964
676 1 4.71686 20.4421 20.4414 -8.94943
351 1 22.014 12.5796 22.014 -8.94945
355 1 6.2891 12.5795 22.0142 -8.94977
357 1 9.43434 12.5797 22.0116 -8.94936
359 1 12.5805 12.58 22.0096 -8.95241
363 1 18.8708 12.5799 22.0131 -8.94931
365 1 22.014 15.7249 22.014 -8.94941
369 1 6.28871 15.7255 22.0125 -8.95066
375 1 15.7266 15.7266 22.0114 -8.95012
381 1 3.14392 18.8702 22.0132 -8.94935
371 1 9.43409 15.7261 22.0116 -8.94966
