ITEM: TIMESTEP
14
ITEM: NUMBER OF ATOMS
688
ITEM: BOX BOUNDS pp pp pp
0.0000000000000000e+00 2.2013900999999997e+01
0.0000000000000000e+00 2.2013900999999997e+01
0.0000000000000000e+00 2.2013900999999997e+01
ITEM: ATOMS id type x y z c_pot
175 1 18.8691 9.43452 9.43453 -8.9497
2 1 1.57242 1.57242 1.57242 -8.94963
3 1 3.14484 5.76213e-16 6.65849e-10 -8.94963
4 1 4.71726 1.57242 1.57242 -8.94963
174 1 15.7247 9.43433 9.43446 -8.94967
6 1 7.86211 1.57242 1.57242 -8.94963
7 1 9.43453 6.77269e-16 9.26149e-10 -8.94963
8 1 11.007 1.57242 1.57242 -8.94963
173 1 12.585 9.42882 9.43274 -8.88538
10 1 14.1518 1.57242 1.57242 -8.94963
11 1 15.7242 7.89432e-16 9.78258e-10 -8.94963
12 1 17.2966 1.57242 1.57242 -8.94963
172 1 9.38418 9.2221 9.38418 -7.53236
14 1 20.4415 1.57242 1.57242 -8.94963
15 1 1.8761e-10 3.14484 1.8761e-10 -8.94963
16 1 1.57242 4.71726 1.57242 -8.94963
171 1 6.28549 9.43153 9.43203 -8.94178
18 1 4.71726 4.71726 1.57242 -8.94963
19 1 6.28969 3.14484 3.10092e-08 -8.94963
20 1 7.86211 4.71726 1.57242 -8.94964
170 1 3.14457 9.4344 9.43441 -8.94973
22 1 11.007 4.71726 1.57242 -8.94963
169 1 22.0139 9.43453 9.43453 -8.94967
24 1 14.1518 4.71726 1.57242 -8.94965
25 1 15.7242 3.14484 8.36321e-09 -8.94963
26 1 17.2966 4.71726 1.57242 -8.94963
168 1 18.8691 6.28969 9.43453 -8.94963
28 1 20.4415 4.71726 1.57242 -8.94963
167 1 15.7242 6.2897 9.43453 -8.94965
30 1 1.57242 7.86211 1.57242 -8.94963
31 1 3.14484 6.28969 1.01894e-08 -8.94963
32 1 4.71726 7.86211 1.57242 -8.94964
166 1 12.5793 6.28949 9.43459 -8.9527
34 1 7.8621 7.8621 1.5724 -8.94969
35 1 9.43453 6.28969 2.97829e-07 -8.94964
36 1 11.0069 7.86211 1.57242 -8.94968
37 1 12.5794 6.28969 4.0394e-07 -8.94964
38 1 14.1518 7.8621 1.57241 -8.94962
165 1 9.43438 6.28525 9.43438 -8.98808
40 1 17.2966 7.86211 1.57242 -8.94965
41 1 18.8691 6.28969 1.42414e-08 -8.94963
42 1 20.4415 7.86211 1.57242 -8.94963
164 1 6.28956 6.28947 9.4346 -8.95232
44 1 3.14484 9.43453 4.77423e-08 -8.94963
163 1 3.14484 6.28968 9.43453 -8.94967
162 1 2.97829e-07 6.28969 9.43453 -8.94964
161 1 18.8691 3.14484 9.43453 -8.94963
48 1 15.7242 9.43453 5.73478e-07 -8.94963
160 1 15.7242 3.14484 9.43453 -8.94963
50 1 6.65849e-10 5.40998e-16 3.14484 -8.94963
51 1 1.57242 1.57242 4.71726 -8.94963
52 1 3.14484 1.23622e-15 3.14484 -8.94963
53 1 4.71726 1.57242 4.71726 -8.94963
54 1 6.28969 6.96146e-16 3.14484 -8.94963
55 1 7.86211 1.57242 4.71727 -8.94963
56 1 9.43453 6.48136e-16 3.14484 -8.94963
57 1 11.007 1.57242 4.71726 -8.94963
58 1 12.5794 6.59854e-16 3.14484 -8.94963
59 1 14.1518 1.57242 4.71726 -8.94963
60 1 15.7242 5.673e-16 3.14484 -8.94963
61 1 17.2966 1.57242 4.71726 -8.94963
62 1 18.8691 5.77898e-16 3.14484 -8.94963
63 1 20.4415 1.57242 4.71726 -8.94963
64 1 22.0139 3.14484 3.14484 -8.94963
65 1 1.57242 4.71726 4.71726 -8.94963
66 1 3.14484 3.14484 3.14484 -8.94962
67 1 4.71725 4.71725 4.71725 -8.94938
68 1 6.28969 3.14484 3.14484 -8.94966
69 1 7.86211 4.71728 4.71728 -8.94995
70 1 9.43453 3.14484 3.14484 -8.94964
71 1 11.0069 4.71727 4.71727 -8.94973
72 1 12.5794 3.14484 3.14484 -8.94964
73 1 14.1518 4.71725 4.71725 -8.94953
74 1 15.7242 3.14484 3.14484 -8.94963
75 1 17.2966 4.71726 4.71726 -8.94964
76 1 18.8691 3.14484 3.14484 -8.94963
77 1 20.4415 4.71726 4.71726 -8.94963
78 1 1.01894e-08 6.28969 3.14484 -8.94963
79 1 1.57242 7.86211 4.71726 -8.94964
80 1 3.14484 6.28969 3.14484 -8.94965
81 1 4.71726 7.86209 4.71726 -8.94982
82 1 6.28968 6.28968 3.14482 -8.94966
83 1 7.86194 7.86195 4.71675 -8.95126
84 1 9.43453 6.28968 3.14484 -8.94967
85 1 11.0069 7.86209 4.717 -8.95276
86 1 12.5794 6.28969 3.14485 -8.94989
87 1 14.1521 7.86178 4.71694 -8.94606
88 1 15.7242 6.28968 3.14483 -8.9495
89 1 17.2966 7.8621 4.71726 -8.94966
90 1 18.8691 6.28969 3.14484 -8.94963
91 1 20.4415 7.86211 4.71726 -8.94963
92 1 4.77423e-08 9.43453 3.14484 -8.94963
93 1 3.14484 9.43453 3.14484 -8.94966
94 1 6.28968 9.43453 3.14482 -8.94976
95 1 9.43441 9.4344 3.14457 -8.94973
96 1 12.5795 9.43439 3.1445 -8.95058
97 1 15.7242 9.43453 3.14485 -8.94985
98 1 18.8691 9.43453 3.14484 -8.94963
99 1 22.0139 4.43123e-16 6.28969 -8.94963
100 1 1.57242 1.57242 7.86211 -8.94963
101 1 3.14484 6.89243e-16 6.28969 -8.94963
102 1 4.71727 1.57242 7.86211 -8.94963
103 1 6.28969 7.39757e-16 6.28969 -8.94964
104 1 7.8621 1.57241 7.8621 -8.94973
105 1 9.43453 8.40994e-16 6.28969 -8.94963
106 1 11.007 1.57241 7.8621 -8.94969
107 1 12.5794 8.53416e-16 6.28969 -8.94964
108 1 14.1518 1.57242 7.86211 -8.94964
109 1 15.7242 8.42943e-16 6.28969 -8.94963
110 1 17.2966 1.57242 7.86211 -8.94963
111 1 18.8691 5.8456e-16 6.28969 -8.94963
112 1 20.4415 1.57242 7.86211 -8.94963
113 1 3.10092e-08 3.14484 6.28969 -8.94963
114 1 1.57242 4.71726 7.86211 -8.94964
115 1 3.14484 3.14484 6.28969 -8.94966
116 1 4.71728 4.71728 7.86211 -8.94995
117 1 6.28967 3.14482 6.28967 -8.94965
118 1 7.86194 4.71675 7.86194 -8.95167
119 1 9.43453 3.14484 6.28968 -8.94962
120 1 11.0071 4.71691 7.86195 -8.95033
121 1 12.5794 3.14482 6.28968 -8.94968
122 1 14.1518 4.71726 7.86211 -8.94986
123 1 15.7242 3.14484 6.28969 -8.94965
124 1 17.2966 4.71727 7.86211 -8.94965
125 1 18.8691 3.14484 6.28969 -8.94963
126 1 20.4415 4.71726 7.86211 -8.94963
127 1 22.0139 6.28969 6.28969 -8.94963
128 1 1.5724 7.8621 7.8621 -8.94969
129 1 3.14482 6.28968 6.28968 -8.94966
130 1 4.71675 7.86195 7.86194 -8.95126
131 1 6.28913 6.28913 6.28913 -8.94373
132 1 7.84998 7.85098 7.84998 -8.84794
133 1 9.4346 6.28947 6.28956 -8.95232
134 1 11.0145 7.85615 7.85448 -8.89354
135 1 12.5797 6.28913 6.28935 -8.9483
136 1 14.1523 7.8618 7.86188 -8.94937
137 1 15.7242 6.28968 6.28967 -8.94976
138 1 17.2967 7.8621 7.8621 -8.94967
139 1 18.8691 6.28969 6.28969 -8.94963
140 1 20.4415 7.86211 7.86211 -8.94964
141 1 22.0139 9.43453 6.28969 -8.94964
142 1 3.14482 9.43453 6.28968 -8.94976
143 1 6.2892 9.43432 6.2892 -8.94862
144 1 9.43203 9.43153 6.28549 -8.94178
145 1 12.5872 9.42671 6.28234 -8.8773
146 1 15.7245 9.43445 6.28961 -8.95101
147 1 18.8691 9.43453 6.28968 -8.94969
148 1 9.26149e-10 6.66414e-16 9.43453 -8.94963
149 1 3.14484 6.74954e-16 9.43453 -8.94963
150 1 6.28969 7.4574e-16 9.43453 -8.94963
151 1 9.43453 8.03354e-16 9.43453 -8.94977
152 1 12.5794 5.44238e-16 9.43453 -8.94964
153 1 15.7242 1.1078e-15 9.43453 -8.94963
154 1 18.8691 4.63634e-16 9.43453 -8.94963
155 1 22.0139 3.14484 9.43453 -8.94963
156 1 3.14484 3.14484 9.43453 -8.94964
157 1 6.28968 3.14484 9.43453 -8.94962
158 1 9.43453 3.14458 9.43453 -8.95076
159 1 12.5794 3.14484 9.43453 -8.94966
177 1 4.71726 1.57242 11.007 -8.94963
180 1 14.1518 1.57242 11.007 -8.94964
184 1 4.71727 4.71727 11.0069 -8.94973
187 1 14.1518 4.71726 11.0069 -8.94971
188 1 17.2966 4.71727 11.007 -8.94965
189 1 20.4415 4.71726 11.007 -8.94963
190 1 1.57242 7.86211 11.0069 -8.94968
191 1 4.717 7.86209 11.0069 -8.95276
176 1 1.57242 1.57242 11.007 -8.94963
343 1 18.8691 9.43453 18.8691 -8.94963
178 1 7.8621 1.57241 11.007 -8.94969
179 1 11.007 1.57241 11.007 -8.94965
342 1 15.7242 9.43453 18.8691 -8.94963
181 1 17.2966 1.57242 11.007 -8.94963
182 1 20.4415 1.57242 11.007 -8.94963
183 1 1.57242 4.71726 11.007 -8.94963
341 1 12.5794 9.43453 18.8691 -8.94973
185 1 7.86195 4.71691 11.0071 -8.95033
186 1 11.0071 4.71703 11.0071 -8.94924
340 1 9.43453 9.43452 18.8691 -8.9497
339 1 6.28968 9.43453 18.8691 -8.94969
338 1 3.14484 9.43453 18.8691 -8.94963
337 1 22.0139 9.43453 18.8691 -8.94963
336 1 20.4415 7.86211 20.4415 -8.94963
192 1 7.85448 7.85615 11.0145 -8.89354
193 1 11.0108 7.86021 11.0108 -8.92379
194 1 14.1522 7.86185 11.007 -8.94991
195 1 17.2967 7.8621 11.007 -8.94964
196 1 20.4415 7.86211 11.007 -8.94964
197 1 22.0139 1.15228e-15 12.5794 -8.94963
198 1 1.57242 1.57242 14.1518 -8.94963
199 1 3.14484 6.69901e-16 12.5794 -8.94963
200 1 4.71726 1.57242 14.1518 -8.94963
201 1 6.28969 8.39242e-16 12.5794 -8.94964
202 1 7.86211 1.57242 14.1518 -8.94964
203 1 9.43453 5.63175e-16 12.5794 -8.94964
204 1 11.007 1.57242 14.1518 -8.94964
205 1 12.5794 9.33047e-16 12.5794 -8.94964
206 1 14.1518 1.57242 14.1518 -8.94963
207 1 15.7242 6.2336e-16 12.5794 -8.94963
208 1 17.2966 1.57242 14.1518 -8.94963
209 1 18.8691 9.418e-16 12.5794 -8.94963
210 1 20.4415 1.57242 14.1518 -8.94963
211 1 22.0139 3.14484 12.5794 -8.94963
212 1 1.57242 4.71726 14.1518 -8.94965
213 1 3.14484 3.14484 12.5794 -8.94964
214 1 4.71725 4.71725 14.1518 -8.94953
215 1 6.28968 3.14482 12.5794 -8.94968
216 1 7.86211 4.71726 14.1518 -8.94986
217 1 9.43453 3.14484 12.5794 -8.94966
218 1 11.0069 4.71726 14.1518 -8.94971
219 1 12.5794 3.14482 12.5794 -8.94969
220 1 14.1518 4.71724 14.1518 -8.94966
221 1 15.7242 3.14484 12.5794 -8.94964
222 1 17.2966 4.71727 14.1518 -8.94965
223 1 18.8691 3.14484 12.5794 -8.94963
224 1 20.4415 4.71726 14.1518 -8.94963
225 1 4.0394e-07 6.28969 12.5794 -8.94964
226 1 1.57241 7.8621 14.1518 -8.94962
227 1 3.14485 6.28969 12.5794 -8.94989
228 1 4.71694 7.86178 14.1521 -8.94606
229 1 6.28935 6.28913 12.5797 -8.9483
230 1 7.86188 7.8618 14.1523 -8.94937
231 1 9.43459 6.28949 12.5793 -8.9527
232 1 11.007 7.86185 14.1522 -8.94991
233 1 12.5795 6.28916 12.5795 -8.95143
234 1 14.1523 7.86154 14.1523 -8.94358
235 1 15.7242 6.28969 12.5794 -8.94989
236 1 17.2967 7.8621 14.1518 -8.94966
237 1 18.8691 6.28969 12.5794 -8.94963
238 1 20.4415 7.86211 14.1518 -8.94964
239 1 22.0139 9.43453 12.5794 -8.94969
240 1 3.1445 9.43439 12.5795 -8.95058
241 1 6.28234 9.42671 12.5872 -8.8773
242 1 9.43274 9.42882 12.585 -8.88538
243 1 12.5912 9.42201 12.5912 -8.8391
244 1 15.7247 9.43436 12.5795 -8.95168
245 1 18.8691 9.43453 12.5794 -8.94973
246 1 9.78258e-10 7.55522e-16 15.7242 -8.94963
247 1 1.57242 1.57242 17.2966 -8.94963
248 1 3.14484 5.69359e-16 15.7242 -8.94963
249 1 4.71726 1.57242 17.2966 -8.94963
250 1 6.28969 8.87794e-16 15.7242 -8.94963
251 1 7.86211 1.57242 17.2966 -8.94963
252 1 9.43453 1.1215e-15 15.7242 -8.94963
253 1 11.007 1.57242 17.2966 -8.94963
254 1 12.5794 6.15941e-16 15.7242 -8.94963
255 1 14.1518 1.57242 17.2966 -8.94963
256 1 15.7242 8.00832e-16 15.7242 -8.94963
257 1 17.2966 1.57242 17.2966 -8.94963
258 1 18.8691 8.95763e-16 15.7242 -8.94963
259 1 20.4415 1.57242 17.2966 -8.94963
260 1 8.36321e-09 3.14484 15.7242 -8.94963
261 1 1.57242 4.71726 17.2966 -8.94963
262 1 3.14484 3.14484 15.7242 -8.94963
263 1 4.71726 4.71726 17.2966 -8.94964
264 1 6.28969 3.14484 15.7242 -8.94965
265 1 7.86211 4.71727 17.2966 -8.94965
266 1 9.43453 3.14484 15.7242 -8.94963
267 1 11.007 4.71727 17.2966 -8.94965
268 1 12.5794 3.14484 15.7242 -8.94964
269 1 14.1518 4.71727 17.2966 -8.94965
270 1 15.7242 3.14484 15.7242 -8.94963
271 1 17.2966 4.71726 17.2966 -8.94962
272 1 18.8691 3.14484 15.7242 -8.94963
273 1 20.4415 4.71726 17.2966 -8.94963
274 1 22.0139 6.28969 15.7242 -8.94963
275 1 1.57242 7.86211 17.2966 -8.94965
276 1 3.14483 6.28968 15.7242 -8.9495
277 1 4.71726 7.8621 17.2966 -8.94966
278 1 6.28967 6.28968 15.7242 -8.94976
279 1 7.8621 7.8621 17.2967 -8.94967
280 1 9.43453 6.2897 15.7242 -8.94965
281 1 11.007 7.8621 17.2967 -8.94964
282 1 12.5794 6.28969 15.7242 -8.94989
283 1 14.1518 7.8621 17.2967 -8.94966
284 1 15.7242 6.28967 15.7242 -8.94938
285 1 17.2966 7.86211 17.2966 -8.94965
286 1 18.8691 6.28969 15.7242 -8.94963
287 1 20.4415 7.86211 17.2966 -8.94963
288 1 5.73478e-07 9.43453 15.7242 -8.94963
289 1 3.14485 9.43453 15.7242 -8.94985
290 1 6.28961 9.43445 15.7245 -8.95101
291 1 9.43446 9.43433 15.7247 -8.94967
292 1 12.5795 9.43436 15.7247 -8.95168
293 1 15.7242 9.43453 15.7242 -8.94991
294 1 18.8691 9.43453 15.7242 -8.94963
295 1 22.0139 4.2912e-16 18.8691 -8.94963
296 1 1.57242 1.57242 20.4415 -8.94963
297 1 3.14484 6.01669e-16 18.8691 -8.94963
298 1 4.71726 1.57242 20.4415 -8.94963
299 1 6.28969 6.1413e-16 18.8691 -8.94963
300 1 7.86211 1.57242 20.4415 -8.94963
301 1 9.43453 4.80637e-16 18.8691 -8.94963
302 1 11.007 1.57242 20.4415 -8.94963
303 1 12.5794 9.31875e-16 18.8691 -8.94963
304 1 14.1518 1.57242 20.4415 -8.94963
305 1 15.7242 9.14629e-16 18.8691 -8.94963
306 1 17.2966 1.57242 20.4415 -8.94963
307 1 18.8691 1.04328e-15 18.8691 -8.94963
308 1 20.4415 1.57242 20.4415 -8.94963
309 1 22.0139 3.14484 18.8691 -8.94963
310 1 1.57242 4.71726 20.4415 -8.94963
311 1 3.14484 3.14484 18.8691 -8.94963
312 1 4.71726 4.71726 20.4415 -8.94963
313 1 6.28969 3.14484 18.8691 -8.94963
314 1 7.86211 4.71726 20.4415 -8.94963
315 1 9.43453 3.14484 18.8691 -8.94963
316 1 11.007 4.71726 20.4415 -8.94963
317 1 12.5794 3.14484 18.8691 -8.94963
318 1 14.1518 4.71726 20.4415 -8.94963
319 1 15.7242 3.14484 18.8691 -8.94963
320 1 17.2966 4.71726 20.4415 -8.94963
321 1 18.8691 3.14484 18.8691 -8.94963
322 1 20.4415 4.71726 20.4415 -8.94963
323 1 1.42414e-08 6.28969 18.8691 -8.94963
324 1 1.57242 7.86211 20.4415 -8.94963
325 1 3.14484 6.28969 18.8691 -8.94963
326 1 4.71726 7.86211 20.4415 -8.94963
327 1 6.28969 6.28969 18.8691 -8.94963
328 1 7.86211 7.86211 20.4415 -8.94964
329 1 9.43453 6.28969 18.8691 -8.94963
330 1 11.007 7.86211 20.4415 -8.94964
331 1 12.5794 6.28969 18.8691 -8.94963
332 1 14.1518 7.86211 20.4415 -8.94964
333 1 15.7242 6.28969 18.8691 -8.94963
334 1 17.2966 7.86211 20.4415 -8.94963
335 1 18.8691 6.28969 18.8691 -8.94963
1 1 22.0139 7.07064e-16 22.0139 -8.94963
5 1 6.28969 4.62865e-16 22.0139 -8.94963
9 1 12.5794 1.11765e-15 22.0139 -8.94963
13 1 18.8691 4.39053e-16 22.0139 -8.94963
17 1 3.14484 3.14484 22.0139 -8.94963
21 1 9.43453 3.14484 22.0139 -8.94963
23 1 12.5794 3.14484 22.0139 -8.94963
27 1 18.8691 3.14484 22.0139 -8.94963
29 1 22.0139 6.28969 22.0139 -8.94963
33 1 6.28969 6.28969 22.0139 -8.94963
39 1 15.7242 6.28969 22.0139 -8.94963
43 1 22.0139 9.43453 22.0139 -8.94963
45 1 6.28969 9.43453 22.0139 -8.94964
46 1 9.43453 9.43453 22.0139 -8.94967
47 1 12.5794 9.43453 22.0139 -8.94969
49 1 18.8691 9.43453 22.0139 -8.94963
344 1 1.57242 11.007 1.57242 -8.94963
345 1 4.71726 11.007 1.57242 -8.94962
346 1 7.86211 11.007 1.57241 -8.94972
347 1 11.0069 11.007 1.57219 -8.95103
348 1 14.1518 11.007 1.57242 -8.94962
349 1 17.2966 11.007 1.57242 -8.94964
350 1 20.4415 11.007 1.57242 -8.94963
688 3 10.3026 11.007 9.3829 3.12243
352 1 1.57242 14.1518 1.57242 -8.94963
353 1 3.14484 12.5794 4.77423e-08 -8.94963
354 1 4.71726 14.1518 1.57242 -8.94964
687 3 9.3829 11.007 10.3026 3.12243
356 1 7.8621 14.1518 1.5724 -8.94969
511 1 18.8691 18.8691 9.43453 -8.94963
358 1 11.0069 14.1518 1.57242 -8.94968
510 1 15.7242 18.8691 9.43453 -8.94963
360 1 14.1518 14.1518 1.57241 -8.94962
361 1 15.7242 12.5794 5.73478e-07 -8.94963
362 1 17.2966 14.1518 1.57242 -8.94965
509 1 12.5794 18.8691 9.43453 -8.94966
364 1 20.4415 14.1518 1.57242 -8.94963
508 1 9.43453 18.8693 9.43453 -8.95076
366 1 1.57242 17.2966 1.57242 -8.94963
367 1 3.14484 15.7242 1.01894e-08 -8.94963
368 1 4.71726 17.2966 1.57242 -8.94963
507 1 6.28968 18.8691 9.43453 -8.94962
370 1 7.86211 17.2966 1.57242 -8.94964
371 1 9.43453 15.7242 2.97829e-07 -8.94964
372 1 11.007 17.2966 1.57242 -8.94963
373 1 12.5794 15.7242 4.0394e-07 -8.94964
374 1 14.1518 17.2966 1.57242 -8.94965
506 1 3.14484 18.8691 9.43453 -8.94964
376 1 17.2966 17.2966 1.57242 -8.94963
377 1 18.8691 15.7242 1.42414e-08 -8.94963
378 1 20.4415 17.2966 1.57242 -8.94963
379 1 1.8761e-10 18.8691 1.8761e-10 -8.94963
380 1 1.57242 20.4415 1.57242 -8.94963
505 1 22.0139 18.8691 9.43453 -8.94963
382 1 4.71726 20.4415 1.57242 -8.94963
383 1 6.28969 18.8691 3.10092e-08 -8.94963
384 1 7.86211 20.4415 1.57242 -8.94963
504 1 18.8691 15.7242 9.43453 -8.94963
386 1 11.007 20.4415 1.57242 -8.94963
503 1 15.7242 15.7242 9.43453 -8.94965
388 1 14.1518 20.4415 1.57242 -8.94963
389 1 15.7242 18.8691 8.36321e-09 -8.94963
390 1 17.2966 20.4415 1.57242 -8.94963
502 1 12.5793 15.7244 9.43459 -8.9527
392 1 20.4415 20.4415 1.57242 -8.94963
393 1 1.57242 11.007 4.71726 -8.94962
394 1 4.71729 11.007 4.71729 -8.94956
395 1 7.8621 11.007 4.71692 -8.95148
396 1 11.0072 11.007 4.7118 -8.9791
397 1 14.1519 11.007 4.71719 -8.95196
398 1 17.2966 11.007 4.71726 -8.94962
399 1 20.4415 11.007 4.71726 -8.94963
400 1 4.77423e-08 12.5794 3.14484 -8.94963
401 1 1.57242 14.1518 4.71726 -8.94964
402 1 3.14484 12.5794 3.14484 -8.94966
403 1 4.71726 14.1518 4.71726 -8.94982
404 1 6.28968 12.5794 3.14482 -8.94976
405 1 7.86194 14.152 4.71675 -8.95126
406 1 9.43441 12.5795 3.14457 -8.94973
407 1 11.0069 14.1518 4.717 -8.95276
408 1 12.5795 12.5795 3.1445 -8.95058
409 1 14.1521 14.1521 4.71694 -8.94606
410 1 15.7242 12.5794 3.14485 -8.94985
411 1 17.2966 14.1518 4.71726 -8.94966
412 1 18.8691 12.5794 3.14484 -8.94963
413 1 20.4415 14.1518 4.71726 -8.94963
414 1 1.01894e-08 15.7242 3.14484 -8.94963
415 1 1.57242 17.2966 4.71726 -8.94963
416 1 3.14484 15.7242 3.14484 -8.94965
417 1 4.71725 17.2967 4.71725 -8.94938
418 1 6.28968 15.7242 3.14482 -8.94966
419 1 7.86211 17.2966 4.71728 -8.94995
420 1 9.43453 15.7242 3.14484 -8.94967
421 1 11.0069 17.2966 4.71727 -8.94973
422 1 12.5794 15.7242 3.14485 -8.94989
423 1 14.1518 17.2967 4.71725 -8.94953
424 1 15.7242 15.7242 3.14483 -8.9495
425 1 17.2966 17.2966 4.71726 -8.94964
426 1 18.8691 15.7242 3.14484 -8.94963
427 1 20.4415 17.2966 4.71726 -8.94963
428 1 22.0139 18.8691 3.14484 -8.94963
429 1 1.57242 20.4415 4.71726 -8.94963
430 1 3.14484 18.8691 3.14484 -8.94962
431 1 4.71726 20.4415 4.71726 -8.94963
432 1 6.28969 18.8691 3.14484 -8.94966
433 1 7.86211 20.4415 4.71727 -8.94963
434 1 9.43453 18.8691 3.14484 -8.94964
435 1 11.007 20.4415 4.71726 -8.94963
436 1 12.5794 18.8691 3.14484 -8.94964
437 1 14.1518 20.4415 4.71726 -8.94963
438 1 15.7242 18.8691 3.14484 -8.94963
439 1 17.2966 20.4415 4.71726 -8.94963
440 1 18.8691 18.8691 3.14484 -8.94963
441 1 20.4415 20.4415 4.71726 -8.94963
442 1 1.57241 11.007 7.86211 -8.94972
443 1 4.71692 11.007 7.8621 -8.95148
444 1 7.85654 11.007 7.85654 -8.86353
445 1 11.085 11.007 7.68814 -7.81854
446 1 14.1558 11.007 7.86171 -8.96522
447 1 17.2968 11.007 7.86211 -8.9506
448 1 20.4415 11.007 7.86211 -8.94967
449 1 22.0139 12.5794 6.28969 -8.94964
450 1 1.5724 14.1518 7.8621 -8.94969
451 1 3.14482 12.5794 6.28968 -8.94976
452 1 4.71675 14.152 7.86194 -8.95126
453 1 6.2892 12.5796 6.2892 -8.94862
454 1 7.84998 14.1629 7.84998 -8.84794
455 1 9.43203 12.5824 6.28549 -8.94178
456 1 11.0145 14.1577 7.85448 -8.89354
457 1 12.5872 12.5872 6.28234 -8.8773
458 1 14.1523 14.1521 7.86188 -8.94937
459 1 15.7245 12.5795 6.28961 -8.95101
460 1 17.2967 14.1518 7.8621 -8.94967
461 1 18.8691 12.5794 6.28968 -8.94969
462 1 20.4415 14.1518 7.86211 -8.94964
463 1 22.0139 15.7242 6.28969 -8.94963
464 1 1.57242 17.2966 7.86211 -8.94964
465 1 3.14482 15.7242 6.28968 -8.94966
466 1 4.71728 17.2966 7.86211 -8.94995
467 1 6.28913 15.7248 6.28913 -8.94373
468 1 7.86194 17.2971 7.86194 -8.95167
469 1 9.4346 15.7244 6.28956 -8.95232
470 1 11.0071 17.297 7.86195 -8.95033
471 1 12.5797 15.7248 6.28935 -8.9483
472 1 14.1518 17.2966 7.86211 -8.94986
473 1 15.7242 15.7242 6.28967 -8.94976
474 1 17.2966 17.2966 7.86211 -8.94965
475 1 18.8691 15.7242 6.28969 -8.94963
476 1 20.4415 17.2966 7.86211 -8.94963
477 1 3.10092e-08 18.8691 6.28969 -8.94963
478 1 1.57242 20.4415 7.86211 -8.94963
479 1 3.14484 18.8691 6.28969 -8.94966
480 1 4.71727 20.4415 7.86211 -8.94963
481 1 6.28967 18.8691 6.28967 -8.94965
482 1 7.8621 20.4415 7.8621 -8.94973
483 1 9.43453 18.8691 6.28968 -8.94962
484 1 11.007 20.4415 7.8621 -8.94969
485 1 12.5794 18.8691 6.28968 -8.94968
486 1 14.1518 20.4415 7.86211 -8.94964
487 1 15.7242 18.8691 6.28969 -8.94965
488 1 17.2966 20.4415 7.86211 -8.94963
489 1 18.8691 18.8691 6.28969 -8.94963
490 1 20.4415 20.4415 7.86211 -8.94963
491 1 22.0139 12.5794 9.43453 -8.94967
492 1 3.14457 12.5795 9.43441 -8.94973
493 1 6.28549 12.5824 9.43203 -8.94178
494 1 9.38418 12.7918 9.38418 -7.53236
495 1 12.585 12.5851 9.43274 -8.88538
496 1 15.7247 12.5796 9.43446 -8.94967
497 1 18.8691 12.5794 9.43453 -8.9497
498 1 2.97829e-07 15.7242 9.43453 -8.94964
499 1 3.14484 15.7242 9.43453 -8.94967
500 1 6.28956 15.7244 9.4346 -8.95232
501 1 9.43438 15.7287 9.43438 -8.98808
512 1 1.57219 11.007 11.0069 -8.95103
517 1 17.2969 11.007 11.0069 -8.95099
519 1 1.57242 14.1518 11.0069 -8.94968
520 1 4.717 14.1518 11.0069 -8.95276
527 1 4.71727 17.2966 11.0069 -8.94973
530 1 14.1518 17.2966 11.0069 -8.94971
531 1 17.2966 17.2966 11.007 -8.94965
532 1 20.4415 17.2966 11.007 -8.94963
534 1 4.71726 20.4415 11.007 -8.94963
537 1 14.1518 20.4415 11.007 -8.94964
686 1 20.4415 20.4415 20.4415 -8.94963
513 1 4.7118 11.007 11.0072 -8.9791
514 1 7.68814 11.007 11.085 -7.81854
515 1 11.1723 11.007 11.1723 -7.40977
516 1 14.1573 11.007 11.0076 -8.9776
685 1 18.8691 18.8691 18.8691 -8.94963
518 1 20.4415 11.007 11.007 -8.94976
684 1 17.2966 20.4415 20.4415 -8.94963
683 1 15.7242 18.8691 18.8691 -8.94963
521 1 7.85448 14.1577 11.0145 -8.89354
522 1 11.0108 14.1537 11.0108 -8.92379
523 1 14.1522 14.152 11.007 -8.94991
524 1 17.2967 14.1518 11.007 -8.94964
525 1 20.4415 14.1518 11.007 -8.94964
526 1 1.57242 17.2966 11.007 -8.94963
682 1 14.1518 20.4415 20.4415 -8.94963
528 1 7.86195 17.297 11.0071 -8.95033
529 1 11.0071 17.2969 11.0071 -8.94924
681 1 12.5794 18.8691 18.8691 -8.94963
680 1 11.007 20.4415 20.4415 -8.94963
679 1 9.43453 18.8691 18.8691 -8.94963
533 1 1.57242 20.4415 11.007 -8.94963
678 1 7.86211 20.4415 20.4415 -8.94963
535 1 7.8621 20.4415 11.007 -8.94969
536 1 11.007 20.4415 11.007 -8.94965
677 1 6.28969 18.8691 18.8691 -8.94963
538 1 17.2966 20.4415 11.007 -8.94963
539 1 20.4415 20.4415 11.007 -8.94963
540 1 1.57242 11.007 14.1518 -8.94962
541 1 4.71719 11.007 14.1519 -8.95196
542 1 7.86171 11.007 14.1558 -8.96522
543 1 11.0076 11.007 14.1573 -8.9776
544 1 14.152 11.007 14.152 -8.95208
545 1 17.2966 11.007 14.1518 -8.94963
546 1 20.4415 11.007 14.1518 -8.94963
547 1 22.0139 12.5794 12.5794 -8.94969
548 1 1.57241 14.1518 14.1518 -8.94962
549 1 3.1445 12.5795 12.5795 -8.95058
550 1 4.71694 14.1521 14.1521 -8.94606
551 1 6.28234 12.5872 12.5872 -8.8773
552 1 7.86188 14.1521 14.1523 -8.94937
553 1 9.43274 12.5851 12.585 -8.88538
554 1 11.007 14.152 14.1522 -8.94991
555 1 12.5912 12.5919 12.5912 -8.8391
556 1 14.1523 14.1524 14.1523 -8.94358
557 1 15.7247 12.5795 12.5795 -8.95168
558 1 17.2967 14.1518 14.1518 -8.94966
559 1 18.8691 12.5794 12.5794 -8.94973
560 1 20.4415 14.1518 14.1518 -8.94964
561 1 4.0394e-07 15.7242 12.5794 -8.94964
562 1 1.57242 17.2966 14.1518 -8.94965
563 1 3.14485 15.7242 12.5794 -8.94989
564 1 4.71725 17.2967 14.1518 -8.94953
565 1 6.28935 15.7248 12.5797 -8.9483
566 1 7.86211 17.2966 14.1518 -8.94986
567 1 9.43459 15.7244 12.5793 -8.9527
568 1 11.0069 17.2966 14.1518 -8.94971
569 1 12.5795 15.7247 12.5795 -8.95143
570 1 14.1518 17.2967 14.1518 -8.94966
571 1 15.7242 15.7242 12.5794 -8.94989
572 1 17.2966 17.2966 14.1518 -8.94965
573 1 18.8691 15.7242 12.5794 -8.94963
574 1 20.4415 17.2966 14.1518 -8.94963
575 1 22.0139 18.8691 12.5794 -8.94963
576 1 1.57242 20.4415 14.1518 -8.94963
577 1 3.14484 18.8691 12.5794 -8.94964
578 1 4.71726 20.4415 14.1518 -8.94963
579 1 6.28968 18.8691 12.5794 -8.94968
580 1 7.86211 20.4415 14.1518 -8.94964
581 1 9.43453 18.8691 12.5794 -8.94966
582 1 11.007 20.4415 14.1518 -8.94964
583 1 12.5794 18.8691 12.5794 -8.94969
584 1 14.1518 20.4415 14.1518 -8.94963
585 1 15.7242 18.8691 12.5794 -8.94964
586 1 17.2966 20.4415 14.1518 -8.94963
587 1 18.8691 18.8691 12.5794 -8.94963
588 1 20.4415 20.4415 14.1518 -8.94963
589 1 1.57242 11.007 17.2966 -8.94964
590 1 4.71726 11.007 17.2966 -8.94962
591 1 7.86211 11.007 17.2968 -8.9506
592 1 11.0069 11.007 17.2969 -8.95099
593 1 14.1518 11.007 17.2966 -8.94963
594 1 17.2966 11.007 17.2966 -8.94965
595 1 20.4415 11.007 17.2966 -8.94963
596 1 5.73478e-07 12.5794 15.7242 -8.94963
597 1 1.57242 14.1518 17.2966 -8.94965
598 1 3.14485 12.5794 15.7242 -8.94985
599 1 4.71726 14.1518 17.2966 -8.94966
600 1 6.28961 12.5795 15.7245 -8.95101
601 1 7.8621 14.1518 17.2967 -8.94967
602 1 9.43446 12.5796 15.7247 -8.94967
603 1 11.007 14.1518 17.2967 -8.94964
604 1 12.5795 12.5795 15.7247 -8.95168
605 1 14.1518 14.1518 17.2967 -8.94966
606 1 15.7242 12.5794 15.7242 -8.94991
607 1 17.2966 14.1518 17.2966 -8.94965
608 1 18.8691 12.5794 15.7242 -8.94963
609 1 20.4415 14.1518 17.2966 -8.94963
610 1 22.0139 15.7242 15.7242 -8.94963
611 1 1.57242 17.2966 17.2966 -8.94963
612 1 3.14483 15.7242 15.7242 -8.9495
613 1 4.71726 17.2966 17.2966 -8.94964
614 1 6.28967 15.7242 15.7242 -8.94976
615 1 7.86211 17.2966 17.2966 -8.94965
616 1 9.43453 15.7242 15.7242 -8.94965
617 1 11.007 17.2966 17.2966 -8.94965
618 1 12.5794 15.7242 15.7242 -8.94989
619 1 14.1518 17.2966 17.2966 -8.94965
620 1 15.7242 15.7242 15.7242 -8.94938
621 1 17.2966 17.2966 17.2966 -8.94962
622 1 18.8691 15.7242 15.7242 -8.94963
623 1 20.4415 17.2966 17.2966 -8.94963
624 1 8.36321e-09 18.8691 15.7242 -8.94963
625 1 1.57242 20.4415 17.2966 -8.94963
626 1 3.14484 18.8691 15.7242 -8.94963
627 1 4.71726 20.4415 17.2966 -8.94963
628 1 6.28969 18.8691 15.7242 -8.94965
629 1 7.86211 20.4415 17.2966 -8.94963
630 1 9.43453 18.8691 15.7242 -8.94963
631 1 11.007 20.4415 17.2966 -8.94963
632 1 12.5794 18.8691 15.7242 -8.94964
633 1 14.1518 20.4415 17.2966 -8.94963
634 1 15.7242 18.8691 15.7242 -8.94963
635 1 17.2966 20.4415 17.2966 -8.94963
636 1 18.8691 18.8691 15.7242 -8.94963
637 1 20.4415 20.4415 17.2966 -8.94963
638 1 1.57242 11.007 20.4415 -8.94963
639 1 4.71726 11.007 20.4415 -8.94963
640 1 7.86211 11.007 20.4415 -8.94967
641 1 11.007 11.007 20.4415 -8.94976
642 1 14.1518 11.007 20.4415 -8.94963
643 1 17.2966 11.007 20.4415 -8.94963
644 1 20.4415 11.007 20.4415 -8.94963
645 1 22.0139 12.5794 18.8691 -8.94963
646 1 1.57242 14.1518 20.4415 -8.94963
647 1 3.14484 12.5794 18.8691 -8.94963
648 1 4.71726 14.1518 20.4415 -8.94963
649 1 6.28968 12.5794 18.8691 -8.94969
650 1 7.86211 14.1518 20.4415 -8.94964
651 1 9.43453 12.5794 18.8691 -8.9497
652 1 11.007 14.1518 20.4415 -8.94964
653 1 12.5794 12.5794 18.8691 -8.94973
654 1 14.1518 14.1518 20.4415 -8.94964
655 1 15.7242 12.5794 18.8691 -8.94963
656 1 17.2966 14.1518 20.4415 -8.94963
657 1 18.8691 12.5794 18.8691 -8.94963
658 1 20.4415 14.1518 20.4415 -8.94963
659 1 1.42414e-08 15.7242 18.8691 -8.94963
660 1 1.57242 17.2966 20.4415 -8.94963
661 1 3.14484 15.7242 18.8691 -8.94963
662 1 4.71726 17.2966 20.4415 -8.94963
663 1 6.28969 15.7242 18.8691 -8.94963
664 1 7.86211 17.2966 20.4415 -8.94963
665 1 9.43453 15.7242 18.8691 -8.94963
666 1 11.007 17.2966 20.4415 -8.94963
667 1 12.5794 15.7242 18.8691 -8.94963
668 1 14.1518 17.2966 20.4415 -8.94963
669 1 15.7242 15.7242 18.8691 -8.94963
670 1 17.2966 17.2966 20.4415 -8.94963
671 1 18.8691 15.7242 18.8691 -8.94963
672 1 20.4415 17.2966 20.4415 -8.94963
673 1 22.0139 18.8691 18.8691 -8.94963
674 1 1.57242 20.4415 20.4415 -8.94963
675 1 3.14484 18.8691 18.8691 -8.94963
676 1 4.71726 20.4415 20.4415 -8.94963
351 1 22.0139 12.5794 22.0139 -8.94963
355 1 6.28969 12.5794 22.0139 -8.94964
357 1 9.43453 12.5794 22.0139 -8.94967
359 1 12.5794 12.5794 22.0139 -8.94969
363 1 18.8691 12.5794 22.0139 -8.94963
365 1 22.0139 15.7242 22.0139 -8.94963
369 1 6.28969 15.7242 22.0139 -8.94963
375 1 15.7242 15.7242 22.0139 -8.94963
381 1 3.14484 18.8691 22.0139 -8.94963
385 1 9.43453 18.8691 22.0139 -8.94963
387 1 12.5794 18.8691 22.0139 -8.94963
391 1 18.8691 18.8691 22.0139 -8.94963
