ITEM: TIMESTEP
103
ITEM: NUMBER OF ATOMS
688
ITEM: BOX BOUNDS pp pp pp
0.0000000000000000e+00 2.2013900999999997e+01
0.0000000000000000e+00 2.2013900999999997e+01
0.0000000000000000e+00 2.2013900999999997e+01
ITEM: ATOMS id type x y z c_pot
175 1 18.8687 9.43442 9.43445 -8.94755
2 1 1.57163 1.5718 1.57163 -8.94911
3 1 3.14432 1.25261e-15 -0.000452738 -8.94948
4 1 4.7164 1.57161 1.57133 -8.9495
174 1 15.7212 9.43679 9.43365 -8.94757
6 1 7.86168 1.57153 1.57123 -8.94937
191 1 4.69919 7.85335 11.0094 -8.95248
8 1 11.0071 1.57146 1.57114 -8.94941
173 1 12.5704 9.4341 9.40475 -8.81614
10 1 14.1525 1.57135 1.57121 -8.94939
11 1 15.7247 1.88001e-15 -0.000653938 -8.94945
12 1 17.2978 1.57133 1.57134 -8.94929
172 1 9.39032 9.19376 9.39032 -7.73974
14 1 20.4417 1.5718 1.57195 -8.94934
15 1 -0.00015083 3.14403 -0.00015083 -8.94944
16 1 1.57165 4.71636 1.57165 -8.95004
171 1 6.26866 9.40404 9.4136 -8.89732
18 1 4.71527 4.71519 1.56989 -8.94907
19 1 6.28906 3.14369 -0.000862232 -8.94931
20 1 7.8611 4.71495 1.56978 -8.94887
170 1 3.13818 9.43312 9.43431 -8.95235
22 1 11.0072 4.71465 1.56938 -8.94907
169 1 22.0117 9.43422 9.43432 -8.94935
24 1 14.1537 4.7142 1.56915 -8.94953
25 1 15.7252 3.14334 -0.00112542 -8.94956
26 1 17.2995 4.71439 1.56993 -8.94769
168 1 18.8701 6.28804 9.43424 -8.94935
28 1 20.4424 4.71617 1.57166 -8.94956
167 1 15.7277 6.28642 9.43347 -8.94348
30 1 1.57204 7.86177 1.57204 -8.94937
31 1 3.14404 6.28901 0.000223656 -8.95007
32 1 4.71638 7.86196 1.57162 -8.95013
166 1 12.5784 6.29155 9.432 -8.94966
34 1 7.86103 7.86065 1.56824 -8.95283
190 1 1.56618 7.85969 11.0072 -8.95118
36 1 11.0072 7.85969 1.56618 -8.95118
37 1 12.58 6.28778 -0.00271643 -8.94981
38 1 14.1558 7.85864 1.56513 -8.95175
165 1 9.43208 6.30281 9.43208 -9.01136
40 1 17.3 7.86028 1.56957 -8.94889
41 1 18.8705 6.28854 -0.000722622 -8.9493
42 1 20.4427 7.86144 1.57157 -8.94937
164 1 6.27931 6.2771 9.43409 -8.94937
44 1 3.14399 9.4343 0.000590008 -8.94961
163 1 3.13821 6.28478 9.4336 -8.947
162 1 22.0117 6.28791 9.43409 -8.94966
161 1 18.8695 3.14367 9.43446 -8.94941
48 1 15.7269 9.43359 -0.00260761 -8.94929
160 1 15.7254 3.14315 9.43439 -8.94926
50 1 -0.000452738 8.61801e-16 3.14432 -8.94948
51 1 1.57133 1.57161 4.7164 -8.9495
52 1 3.14373 2.18421e-16 3.14373 -8.9495
53 1 4.71579 1.57079 4.71579 -8.95004
54 1 6.28899 8.19078e-16 3.14364 -8.94958
55 1 7.86163 1.57069 4.71584 -8.94984
56 1 9.43446 9.08267e-16 3.14355 -8.94954
57 1 11.0074 1.57065 4.71579 -8.94965
58 1 12.5799 1.22145e-15 3.14364 -8.9495
59 1 14.1529 1.57044 4.71628 -8.95115
60 1 15.7253 1.86305e-15 3.14388 -8.95019
61 1 17.2975 1.57147 4.71688 -8.94978
62 1 18.8695 1.44316e-15 3.14443 -8.94966
63 1 20.4414 1.57187 4.71689 -8.94944
64 1 22.0133 3.14378 3.14395 -8.94936
65 1 1.56989 4.71519 4.71527 -8.94907
66 1 3.14279 3.14291 3.14279 -8.94814
67 1 4.71191 4.71186 4.71191 -8.944
68 1 6.28822 3.14237 3.14256 -8.94949
69 1 7.85992 4.71138 4.71258 -8.94903
70 1 9.43426 3.14222 3.14245 -8.94926
71 1 11.0082 4.71138 4.71189 -8.94689
72 1 12.5804 3.1419 3.14242 -8.94898
73 1 14.1575 4.70896 4.71142 -8.94885
74 1 15.7268 3.14139 3.14238 -8.94911
75 1 17.2997 4.71432 4.71551 -8.94989
76 1 18.8702 3.14339 3.14394 -8.94965
77 1 20.4418 4.71604 4.7165 -8.95005
78 1 0.000223656 6.28901 3.14404 -8.95007
79 1 1.57162 7.86196 4.71638 -8.95013
80 1 3.14302 6.28867 3.14302 -8.95125
81 1 4.71431 7.86152 4.71431 -8.95466
82 1 6.28527 6.28507 3.13811 -8.94866
83 1 7.85346 7.85141 4.70129 -8.95015
84 1 9.4336 6.28478 3.13821 -8.947
85 1 11.0094 7.85335 4.69919 -8.95248
86 1 12.5826 6.28402 3.13695 -8.94912
87 1 14.1718 7.84428 4.6963 -8.92323
88 1 15.7318 6.28256 3.13737 -8.9427
89 1 17.3041 7.85862 4.71317 -8.95099
90 1 18.8721 6.28768 3.14295 -8.94969
91 1 20.4434 7.86135 4.71627 -8.95036
92 1 0.000590008 9.4343 3.14399 -8.94961
93 1 3.14383 9.43444 3.14383 -8.94876
94 1 6.28901 9.43521 3.14347 -8.94918
95 1 9.43431 9.43312 3.13818 -8.95235
96 1 12.586 9.43107 3.12863 -8.95934
97 1 15.7317 9.43203 3.13739 -8.94674
98 1 18.8725 9.43374 3.14267 -8.9492
99 1 22.0133 9.99826e-16 6.28929 -8.94941
100 1 1.57123 1.57153 7.86168 -8.94937
101 1 3.14364 1.06568e-15 6.28899 -8.94958
102 1 4.71584 1.57069 7.86163 -8.94984
103 1 6.28902 9.82652e-16 6.28902 -8.9508
104 1 7.86199 1.57072 7.86199 -8.95174
105 1 9.43471 1.43461e-15 6.28904 -8.95061
106 1 11.0069 1.57176 7.86233 -8.94986
107 1 12.5796 1.79668e-15 6.2896 -8.95103
108 1 14.1523 1.57153 7.86235 -8.94975
109 1 15.7249 8.53852e-16 6.28971 -8.94976
110 1 17.2973 1.57166 7.86207 -8.94935
111 1 18.8694 2.03539e-16 6.28952 -8.94939
112 1 20.4413 1.57183 7.86192 -8.94944
113 1 -0.000862232 3.14369 6.28906 -8.94931
114 1 1.56978 4.71495 7.8611 -8.94887
115 1 3.14256 3.14237 6.28822 -8.94949
116 1 4.71258 4.71138 7.85992 -8.94903
117 1 6.2875 3.14015 6.2875 -8.95166
118 1 7.8598 4.70855 7.8598 -8.96114
119 1 9.43474 3.14071 6.28748 -8.95084
120 1 11.0068 4.71466 7.86015 -8.95454
121 1 12.5804 3.14067 6.28837 -8.95377
122 1 14.1536 4.71428 7.86173 -8.95007
123 1 15.7257 3.14261 6.2893 -8.94993
124 1 17.2984 4.71528 7.86173 -8.94839
125 1 18.8697 3.14367 6.28937 -8.94925
126 1 20.4413 4.71588 7.8617 -8.94933
127 1 22.0125 6.28848 6.28874 -8.95066
128 1 1.56824 7.86065 7.86103 -8.95283
129 1 3.13811 6.28507 6.28527 -8.94866
130 1 4.70129 7.85141 7.85346 -8.95015
131 1 6.27535 6.27489 6.27535 -8.92683
132 1 7.82178 7.82074 7.82178 -8.83928
133 1 9.43409 6.2771 6.27931 -8.94937
134 1 11.0328 7.84699 7.81796 -8.87736
135 1 12.591 6.27246 6.27571 -8.95049
136 1 14.1639 7.85491 7.85637 -8.94823
137 1 15.7309 6.2845 6.28629 -8.95016
138 1 17.3 7.86105 7.8622 -8.95221
139 1 18.871 6.28831 6.28916 -8.95055
140 1 20.4414 7.86148 7.86193 -8.9504
141 1 22.0142 9.43447 6.2891 -8.94978
142 1 3.14347 9.43521 6.28901 -8.94918
143 1 6.28806 9.43856 6.28806 -8.96506
144 1 9.4136 9.40404 6.26866 -8.89732
145 1 12.6341 9.38967 6.23334 -8.82617
146 1 15.7397 9.43073 6.28169 -8.95859
147 1 18.8733 9.43399 6.28849 -8.9522
148 1 22.0132 7.53521e-17 9.43444 -8.94945
149 1 3.14355 1.59379e-15 9.43446 -8.94954
150 1 6.28904 1.50163e-15 9.43471 -8.95061
151 1 9.43464 1.49904e-15 9.43464 -8.94739
152 1 12.5794 1.55989e-15 9.43475 -8.94916
153 1 15.7248 -9.72051e-18 9.43461 -8.94966
154 1 18.8693 -4.20107e-16 9.43454 -8.94947
155 1 -0.00104462 3.14353 9.43434 -8.94937
156 1 3.14245 3.14222 9.43426 -8.94926
157 1 6.28748 3.14071 9.43474 -8.95084
158 1 9.43438 3.14625 9.43438 -8.94413
159 1 12.5793 3.14478 9.43448 -8.94856
177 1 4.71579 1.57065 11.0074 -8.94965
180 1 14.1521 1.57174 11.0067 -8.94951
184 1 4.71189 4.71138 11.0082 -8.94689
187 1 14.1531 4.71516 11.0055 -8.94829
188 1 17.298 4.71539 11.0068 -8.94865
189 1 20.441 4.71578 11.007 -8.94939
194 1 14.1591 7.85846 11.0015 -8.94947
21 1 9.43434 3.14353 -0.00104462 -8.94937
176 1 1.57114 1.57146 11.0071 -8.94941
343 1 18.8702 9.43403 18.8702 -8.9493
178 1 7.86233 1.57176 11.0069 -8.94986
179 1 11.0066 1.57271 11.0066 -8.9485
342 1 15.7265 9.43364 18.871 -8.94911
181 1 17.2972 1.57173 11.007 -8.94943
182 1 20.4412 1.57182 11.007 -8.94944
183 1 1.56938 4.71465 11.0072 -8.94907
341 1 12.5797 9.43422 18.871 -8.95361
185 1 7.86015 4.71466 11.0068 -8.95454
186 1 11.0057 4.71972 11.0057 -8.94877
340 1 9.43445 9.43442 18.8687 -8.94755
339 1 6.28849 9.43399 18.8733 -8.9522
338 1 3.14267 9.43374 18.8725 -8.9492
337 1 22.0131 9.43408 18.8707 -8.94932
336 1 20.4419 7.86149 20.4419 -8.94936
192 1 7.81796 7.84699 11.0328 -8.87736
193 1 11.0292 7.86879 11.0292 -8.90184
49 1 18.8707 9.43408 22.0131 -8.94932
195 1 17.2989 7.86073 11.0056 -8.95028
196 1 20.4404 7.86112 11.0067 -8.95023
197 1 22.0132 1.39787e-15 12.5796 -8.94942
198 1 1.57121 1.57135 14.1525 -8.94939
199 1 3.14364 1.15811e-15 12.5799 -8.9495
200 1 4.71628 1.57044 14.1529 -8.95115
201 1 6.2896 1.71404e-15 12.5796 -8.95103
202 1 7.86235 1.57153 14.1523 -8.94975
203 1 9.43475 1.41746e-15 12.5794 -8.94916
204 1 11.0067 1.57174 14.1521 -8.94951
205 1 12.5791 1.68126e-17 12.5791 -8.9511
206 1 14.1522 1.5708 14.1522 -8.95153
207 1 15.7246 -4.63623e-17 12.5793 -8.94956
208 1 17.297 1.57165 14.1519 -8.94965
209 1 18.8692 1.27988e-15 12.5795 -8.94942
210 1 20.4412 1.57181 14.1521 -8.94939
211 1 22.0127 3.14345 12.5798 -8.94928
212 1 1.56915 4.7142 14.1537 -8.94953
213 1 3.14242 3.1419 12.5804 -8.94898
214 1 4.71142 4.70896 14.1575 -8.94885
215 1 6.28837 3.14067 12.5804 -8.95377
216 1 7.86173 4.71428 14.1536 -8.95007
217 1 9.43448 3.14478 12.5793 -8.94856
218 1 11.0055 4.71516 14.1531 -8.94829
219 1 12.5793 3.1419 12.5793 -8.95497
220 1 14.1558 4.70933 14.1558 -8.95154
221 1 15.725 3.14316 12.5792 -8.94946
222 1 17.2984 4.71488 14.1526 -8.95035
223 1 18.8693 3.14371 12.5795 -8.94922
224 1 20.4409 4.71576 14.1524 -8.94969
225 1 -0.00271643 6.28778 12.58 -8.94981
226 1 1.56513 7.85864 14.1558 -8.95175
227 1 3.13695 6.28402 12.5826 -8.94912
228 1 4.6963 7.84428 14.1718 -8.92323
229 1 6.27571 6.27246 12.591 -8.95049
230 1 7.85637 7.85491 14.1639 -8.94823
231 1 9.432 6.29155 12.5784 -8.94966
232 1 11.0015 7.85846 14.1591 -8.94947
233 1 12.5866 6.27296 12.5866 -8.96275
234 1 14.1758 7.83812 14.1758 -8.90405
235 1 15.7282 6.28598 12.5796 -8.95071
236 1 17.3033 7.85858 14.1551 -8.95338
237 1 18.8698 6.28825 12.5794 -8.94974
238 1 20.4409 7.86081 14.153 -8.9515
239 1 22.0097 9.4339 12.5804 -8.95239
240 1 3.12863 9.43107 12.586 -8.95934
241 1 6.23334 9.38967 12.6341 -8.82617
242 1 9.40475 9.4341 12.5704 -8.81614
243 1 12.6479 9.36376 12.6479 -8.71464
244 1 15.7386 9.43136 12.584 -8.96621
245 1 18.871 9.43422 12.5797 -8.95361
246 1 -0.000653938 1.38634e-15 15.7247 -8.94945
247 1 1.57134 1.57133 17.2978 -8.94929
248 1 3.14388 1.03135e-15 15.7253 -8.95019
249 1 4.71688 1.57147 17.2975 -8.94978
250 1 6.28971 1.04015e-15 15.7249 -8.94976
251 1 7.86207 1.57166 17.2973 -8.94935
252 1 9.43461 7.37561e-17 15.7248 -8.94966
253 1 11.007 1.57173 17.2972 -8.94943
254 1 12.5793 5.7771e-16 15.7246 -8.94956
255 1 14.1519 1.57165 17.297 -8.94965
256 1 15.7248 1.75134e-15 15.7248 -8.95046
257 1 17.2975 1.57132 17.2975 -8.94946
258 1 18.8692 1.5114e-15 15.7245 -8.94966
259 1 20.4414 1.57173 17.2972 -8.94956
260 1 -0.00112542 3.14334 15.7252 -8.94956
261 1 1.56993 4.71439 17.2995 -8.94769
262 1 3.14238 3.14139 15.7268 -8.94911
263 1 4.71551 4.71432 17.2997 -8.94989
264 1 6.2893 3.14261 15.7257 -8.94993
265 1 7.86173 4.71528 17.2984 -8.94839
266 1 9.43439 3.14315 15.7254 -8.94926
267 1 11.0068 4.71539 17.298 -8.94865
268 1 12.5792 3.14316 15.725 -8.94946
269 1 14.1526 4.71488 17.2984 -8.95035
270 1 15.7261 3.14151 15.7261 -8.94973
271 1 17.2992 4.71399 17.2992 -8.94671
272 1 18.8696 3.14345 15.7248 -8.94984
273 1 20.4415 4.71553 17.2981 -8.94942
274 1 22.0115 6.28739 15.7265 -8.95012
275 1 1.56957 7.86028 17.3 -8.94889
276 1 3.13737 6.28256 15.7318 -8.9427
277 1 4.71317 7.85862 17.3041 -8.95099
278 1 6.28629 6.2845 15.7309 -8.95016
279 1 7.8622 7.86105 17.3 -8.95221
280 1 9.43347 6.28642 15.7277 -8.94348
281 1 11.0056 7.86073 17.2989 -8.95028
282 1 12.5796 6.28598 15.7282 -8.95071
283 1 14.1551 7.85858 17.3033 -8.95338
284 1 15.7322 6.28114 15.7322 -8.93852
285 1 17.2992 7.86031 17.2992 -8.94893
286 1 18.8711 6.2873 15.7262 -8.95031
287 1 20.4414 7.86103 17.2983 -8.9492
288 1 -0.00260761 9.43359 15.7269 -8.94929
289 1 3.13739 9.43203 15.7317 -8.94674
290 1 6.28169 9.43073 15.7397 -8.95859
291 1 9.43365 9.43679 15.7212 -8.94757
292 1 12.584 9.43136 15.7386 -8.96621
293 1 15.7305 9.43222 15.7305 -8.94605
294 1 18.871 9.43364 15.7265 -8.94911
295 1 22.0135 1.84659e-15 18.8696 -8.9491
296 1 1.57195 1.5718 20.4417 -8.94934
297 1 3.14443 1.51361e-15 18.8695 -8.94966
298 1 4.71689 1.57187 20.4414 -8.94944
299 1 6.28952 1.17004e-15 18.8694 -8.94939
300 1 7.86192 1.57183 20.4413 -8.94944
301 1 9.43454 7.49466e-16 18.8693 -8.94947
302 1 11.007 1.57182 20.4412 -8.94944
303 1 12.5795 1.26486e-15 18.8692 -8.94942
304 1 14.1521 1.57181 20.4412 -8.94939
305 1 15.7245 1.88549e-15 18.8692 -8.94966
306 1 17.2972 1.57173 20.4414 -8.94956
307 1 18.8695 1.66797e-15 18.8695 -8.94923
308 1 20.4417 1.57183 20.4417 -8.94879
309 1 22.0133 3.14359 18.8701 -8.94888
310 1 1.57166 4.71617 20.4424 -8.94956
311 1 3.14394 3.14339 18.8702 -8.94965
312 1 4.7165 4.71604 20.4418 -8.95005
313 1 6.28937 3.14367 18.8697 -8.94925
314 1 7.8617 4.71588 20.4413 -8.94933
315 1 9.43446 3.14367 18.8695 -8.94941
316 1 11.007 4.71578 20.441 -8.94939
317 1 12.5795 3.14371 18.8693 -8.94922
318 1 14.1524 4.71576 20.4409 -8.94969
319 1 15.7248 3.14345 18.8696 -8.94984
320 1 17.2981 4.71553 20.4415 -8.94942
321 1 18.8699 3.14341 18.8699 -8.9486
322 1 20.4418 4.71632 20.4418 -8.94942
323 1 -0.000722622 6.28854 18.8705 -8.9493
324 1 1.57157 7.86144 20.4427 -8.94937
325 1 3.14295 6.28768 18.8721 -8.94969
326 1 4.71627 7.86135 20.4434 -8.95036
327 1 6.28916 6.28831 18.871 -8.95055
328 1 7.86193 7.86148 20.4414 -8.9504
329 1 9.43424 6.28804 18.8701 -8.94935
330 1 11.0067 7.86112 20.4404 -8.95023
331 1 12.5794 6.28825 18.8698 -8.94974
332 1 14.153 7.86081 20.4409 -8.9515
333 1 15.7262 6.2873 18.8711 -8.95031
334 1 17.2983 7.86103 20.4414 -8.9492
335 1 18.8701 6.28842 18.8701 -8.94937
1 1 22.0137 1.07738e-15 22.0137 -8.9491
5 1 6.28929 6.77745e-16 22.0133 -8.94941
9 1 12.5796 1.46105e-15 22.0132 -8.94942
13 1 18.8696 1.79308e-15 22.0135 -8.9491
17 1 3.14395 3.14378 22.0133 -8.94936
47 1 12.5804 9.4339 22.0097 -8.95239
23 1 12.5798 3.14345 22.0127 -8.94928
27 1 18.8701 3.14359 22.0133 -8.94888
29 1 22.0139 6.28905 22.0139 -8.94942
33 1 6.28874 6.28848 22.0125 -8.95066
39 1 15.7265 6.28739 22.0115 -8.95012
43 1 22.014 9.43429 22.014 -8.94946
45 1 6.2891 9.43447 22.0142 -8.94978
46 1 9.43432 9.43422 22.0117 -8.94935
7 1 9.43444 -1.90473e-20 22.0132 -8.94945
35 1 9.43409 6.28791 22.0117 -8.94966
344 1 1.5721 11.007 1.5721 -8.94952
345 1 4.71633 11.007 1.57197 -8.9498
346 1 7.86169 11.007 1.57144 -8.94673
347 1 11.0078 11.007 1.56677 -8.94911
348 1 14.1566 11.007 1.56479 -8.94934
349 1 17.3002 11.007 1.56943 -8.94915
350 1 20.4428 11.007 1.57152 -8.94944
688 3 10.4707 11.007 9.41497 2.33418
352 1 1.57204 14.1521 1.57204 -8.94937
353 1 3.14399 12.5796 0.000590008 -8.94961
354 1 4.71638 14.1519 1.57162 -8.95013
687 3 9.41497 11.007 10.4707 2.33418
356 1 7.86103 14.1533 1.56824 -8.95283
511 1 18.8695 18.8702 9.43446 -8.94941
358 1 11.0072 14.1542 1.56618 -8.95118
510 1 15.7254 18.8707 9.43439 -8.94926
360 1 14.1558 14.1553 1.56513 -8.95175
361 1 15.7269 12.5803 -0.00260761 -8.94929
362 1 17.3 14.1536 1.56957 -8.94889
509 1 12.5793 18.8691 9.43448 -8.94856
364 1 20.4427 14.1525 1.57157 -8.94937
508 1 9.43438 18.8677 9.43438 -8.94413
366 1 1.57165 17.2975 1.57165 -8.95004
367 1 3.14404 15.7249 0.000223656 -8.95007
368 1 4.71527 17.2987 1.56989 -8.94907
507 1 6.28748 18.8732 9.43474 -8.95084
370 1 7.8611 17.2989 1.56978 -8.94887
537 1 14.1521 20.4422 11.0067 -8.94951
372 1 11.0072 17.2993 1.56938 -8.94907
373 1 12.58 15.7261 -0.00271643 -8.94981
374 1 14.1537 17.2997 1.56915 -8.94953
506 1 3.14245 18.8717 9.43426 -8.94926
376 1 17.2995 17.2995 1.56993 -8.94769
377 1 18.8705 15.7254 -0.000722622 -8.9493
378 1 20.4424 17.2977 1.57166 -8.94956
379 1 -0.00015083 18.8699 -0.00015083 -8.94944
380 1 1.57163 20.4421 1.57163 -8.94911
505 1 -0.00104462 18.8704 9.43434 -8.94937
382 1 4.7164 20.4423 1.57133 -8.9495
383 1 6.28906 18.8702 -0.000862232 -8.94931
384 1 7.86168 20.4424 1.57123 -8.94937
504 1 18.8701 15.7259 9.43424 -8.94935
386 1 11.0071 20.4424 1.57114 -8.94941
503 1 15.7277 15.7275 9.43347 -8.94348
388 1 14.1525 20.4425 1.57121 -8.94939
389 1 15.7252 18.8706 -0.00112542 -8.94956
390 1 17.2978 20.4426 1.57134 -8.94929
502 1 12.5784 15.7224 9.432 -8.94966
392 1 20.4417 20.4421 1.57195 -8.94934
393 1 1.57197 11.007 4.71633 -8.9498
394 1 4.71525 11.007 4.71525 -8.94553
395 1 7.86394 11.007 4.71954 -8.93217
396 1 11.0154 11.007 4.70387 -9.01615
397 1 14.1682 11.007 4.69882 -8.93961
398 1 17.3043 11.007 4.71245 -8.94868
399 1 20.4437 11.007 4.71603 -8.95005
400 1 0.000590008 12.5796 3.14399 -8.94961
401 1 1.57162 14.1519 4.71638 -8.95013
402 1 3.14383 12.5795 3.14383 -8.94876
403 1 4.71431 14.1524 4.71431 -8.95466
404 1 6.28901 12.5787 3.14347 -8.94918
405 1 7.85346 14.1625 4.70129 -8.95015
406 1 9.43431 12.5808 3.13818 -8.95235
407 1 11.0094 14.1606 4.69919 -8.95248
408 1 12.586 12.5828 3.12863 -8.95934
409 1 14.1718 14.1696 4.6963 -8.92323
410 1 15.7317 12.5819 3.13739 -8.94674
411 1 17.3041 14.1553 4.71317 -8.95099
412 1 18.8725 12.5802 3.14267 -8.9492
413 1 20.4434 14.1526 4.71627 -8.95036
414 1 0.000223656 15.7249 3.14404 -8.95007
415 1 1.56989 17.2987 4.71527 -8.94907
416 1 3.14302 15.7252 3.14302 -8.95125
417 1 4.71191 17.302 4.71191 -8.944
418 1 6.28527 15.7288 3.13811 -8.94866
419 1 7.85992 17.3025 4.71258 -8.94903
420 1 9.4336 15.7291 3.13821 -8.947
421 1 11.0082 17.3025 4.71189 -8.94689
422 1 12.5826 15.7299 3.13695 -8.94912
423 1 14.1575 17.3049 4.71142 -8.94885
424 1 15.7318 15.7313 3.13737 -8.9427
425 1 17.2997 17.2996 4.71551 -8.94989
426 1 18.8721 15.7262 3.14295 -8.94969
427 1 20.4418 17.2979 4.7165 -8.95005
428 1 22.0133 18.8701 3.14395 -8.94936
429 1 1.57133 20.4423 4.7164 -8.9495
430 1 3.14279 18.871 3.14279 -8.94814
431 1 4.71579 20.4431 4.71579 -8.95004
432 1 6.28822 18.8715 3.14256 -8.94949
433 1 7.86163 20.4432 4.71584 -8.94984
434 1 9.43426 18.8717 3.14245 -8.94926
435 1 11.0074 20.4433 4.71579 -8.94965
436 1 12.5804 18.872 3.14242 -8.94898
437 1 14.1529 20.4435 4.71628 -8.95115
438 1 15.7268 18.8725 3.14238 -8.94911
439 1 17.2975 20.4424 4.71688 -8.94978
440 1 18.8702 18.8705 3.14394 -8.94965
441 1 20.4414 20.442 4.71689 -8.94944
442 1 1.57144 11.007 7.86169 -8.94673
443 1 4.71954 11.007 7.86394 -8.93217
444 1 7.89585 11.007 7.89585 -8.8957
445 1 11.0912 11.007 7.54516 -7.97866
446 1 14.1628 11.007 7.8434 -8.96339
447 1 17.3004 11.007 7.86094 -8.95075
448 1 20.4422 11.007 7.8619 -8.94941
449 1 22.0142 12.5794 6.2891 -8.94978
450 1 1.56824 14.1533 7.86103 -8.95283
451 1 3.14347 12.5787 6.28901 -8.94918
452 1 4.70129 14.1625 7.85346 -8.95015
453 1 6.28806 12.5753 6.28806 -8.96506
454 1 7.82178 14.1932 7.82178 -8.83928
455 1 9.4136 12.6099 6.26866 -8.89732
456 1 11.0328 14.1669 7.81796 -8.87736
457 1 12.6341 12.6242 6.23334 -8.82617
458 1 14.1639 14.159 7.85637 -8.94823
459 1 15.7397 12.5832 6.28169 -8.95859
460 1 17.3 14.1529 7.8622 -8.95221
461 1 18.8733 12.5799 6.28849 -8.9522
462 1 20.4414 14.1524 7.86193 -8.9504
463 1 22.0125 15.7254 6.28874 -8.95066
464 1 1.56978 17.2989 7.8611 -8.94887
465 1 3.13811 15.7288 6.28527 -8.94866
466 1 4.71258 17.3025 7.85992 -8.94903
467 1 6.27535 15.739 6.27535 -8.92683
468 1 7.8598 17.3054 7.8598 -8.96114
469 1 9.43409 15.7368 6.27931 -8.94937
470 1 11.0068 17.2992 7.86015 -8.95454
471 1 12.591 15.7414 6.27571 -8.95049
472 1 14.1536 17.2996 7.86173 -8.95007
473 1 15.7309 15.7294 6.28629 -8.95016
474 1 17.2984 17.2986 7.86173 -8.94839
475 1 18.871 15.7256 6.28916 -8.95055
476 1 20.4413 17.298 7.8617 -8.94933
477 1 -0.000862232 18.8702 6.28906 -8.94931
478 1 1.57123 20.4424 7.86168 -8.94937
479 1 3.14256 18.8715 6.28822 -8.94949
480 1 4.71584 20.4432 7.86163 -8.94984
481 1 6.2875 18.8738 6.2875 -8.95166
482 1 7.86199 20.4432 7.86199 -8.95174
483 1 9.43474 18.8732 6.28748 -8.95084
484 1 11.0069 20.4421 7.86233 -8.94986
485 1 12.5804 18.8732 6.28837 -8.95377
486 1 14.1523 20.4424 7.86235 -8.94975
487 1 15.7257 18.8713 6.2893 -8.94993
488 1 17.2973 20.4422 7.86207 -8.94935
489 1 18.8697 18.8702 6.28937 -8.94925
490 1 20.4413 20.4421 7.86192 -8.94944
491 1 22.0117 12.5797 9.43432 -8.94935
492 1 3.13818 12.5808 9.43431 -8.95235
493 1 6.26866 12.6099 9.4136 -8.89732
494 1 9.39032 12.8201 9.39032 -7.73974
495 1 12.5704 12.5798 9.40475 -8.81614
496 1 15.7212 12.5771 9.43365 -8.94757
497 1 18.8687 12.5795 9.43445 -8.94755
498 1 22.0117 15.726 9.43409 -8.94966
499 1 3.13821 15.7291 9.4336 -8.947
500 1 6.27931 15.7368 9.43409 -8.94937
501 1 9.43208 15.7111 9.43208 -9.01136
512 1 1.56677 11.007 11.0078 -8.94911
517 1 17.2959 11.007 11.0063 -8.94407
519 1 1.56618 14.1542 11.0072 -8.95118
520 1 4.69919 14.1606 11.0094 -8.95248
527 1 4.71189 17.3025 11.0082 -8.94689
530 1 14.1531 17.2987 11.0055 -8.94829
531 1 17.298 17.2985 11.0068 -8.94865
532 1 20.441 17.2981 11.007 -8.94939
534 1 4.71579 20.4433 11.0074 -8.94965
518 1 20.4399 11.007 11.0066 -8.94845
523 1 14.1591 14.1554 11.0015 -8.94947
385 1 9.43434 18.8704 -0.00104462 -8.94937
686 1 20.4417 20.4421 20.4417 -8.94879
513 1 4.70387 11.007 11.0154 -9.01615
514 1 7.54516 11.007 11.0912 -7.97866
515 1 11.2781 11.007 11.2781 -7.32656
516 1 14.1416 11.007 11.0187 -9.01199
685 1 18.8699 18.8705 18.8699 -8.9486
391 1 18.8701 18.8703 22.0133 -8.94888
684 1 17.2972 20.4422 20.4414 -8.94956
683 1 15.7248 18.8705 18.8696 -8.94984
521 1 7.81796 14.1669 11.0328 -8.87736
522 1 11.0292 14.1451 11.0292 -8.90184
387 1 12.5798 18.8705 22.0127 -8.94928
524 1 17.2989 14.1532 11.0056 -8.95028
525 1 20.4404 14.1528 11.0067 -8.95023
526 1 1.56938 17.2993 11.0072 -8.94907
682 1 14.1521 20.4421 20.4412 -8.94939
528 1 7.86015 17.2992 11.0068 -8.95454
529 1 11.0057 17.2942 11.0057 -8.94877
681 1 12.5795 18.8702 18.8693 -8.94922
680 1 11.007 20.4421 20.4412 -8.94944
679 1 9.43446 18.8702 18.8695 -8.94941
533 1 1.57114 20.4424 11.0071 -8.94941
678 1 7.86192 20.4421 20.4413 -8.94944
535 1 7.86233 20.4421 11.0069 -8.94986
536 1 11.0066 20.4412 11.0066 -8.9485
677 1 6.28937 18.8702 18.8697 -8.94925
538 1 17.2972 20.4422 11.007 -8.94943
539 1 20.4412 20.4421 11.007 -8.94944
540 1 1.56479 11.007 14.1566 -8.94934
541 1 4.69882 11.007 14.1682 -8.93961
542 1 7.8434 11.007 14.1628 -8.96339
543 1 11.0187 11.007 14.1416 -9.01199
544 1 14.1669 11.007 14.1669 -8.93788
545 1 17.3026 11.007 14.1559 -8.94854
546 1 20.4408 11.007 14.1535 -8.95067
547 1 22.0097 12.58 12.5804 -8.95239
548 1 1.56513 14.1553 14.1558 -8.95175
549 1 3.12863 12.5828 12.586 -8.95934
550 1 4.6963 14.1696 14.1718 -8.92323
551 1 6.23334 12.6242 12.6341 -8.82617
552 1 7.85637 14.159 14.1639 -8.94823
553 1 9.40475 12.5798 12.5704 -8.81614
554 1 11.0015 14.1554 14.1591 -8.94947
555 1 12.6479 12.6501 12.6479 -8.71464
556 1 14.1758 14.1758 14.1758 -8.90405
557 1 15.7386 12.5825 12.584 -8.96621
558 1 17.3033 14.1553 14.1551 -8.95338
559 1 18.871 12.5797 12.5797 -8.95361
560 1 20.4409 14.1531 14.153 -8.9515
561 1 -0.00271643 15.7261 12.58 -8.94981
562 1 1.56915 17.2997 14.1537 -8.94953
563 1 3.13695 15.7299 12.5826 -8.94912
564 1 4.71142 17.3049 14.1575 -8.94885
565 1 6.27571 15.7414 12.591 -8.95049
566 1 7.86173 17.2996 14.1536 -8.95007
567 1 9.432 15.7224 12.5784 -8.94966
568 1 11.0055 17.2987 14.1531 -8.94829
569 1 12.5866 15.7409 12.5866 -8.96275
570 1 14.1558 17.3046 14.1558 -8.95154
571 1 15.7282 15.7279 12.5796 -8.95071
572 1 17.2984 17.299 14.1526 -8.95035
573 1 18.8698 15.7257 12.5794 -8.94974
574 1 20.4409 17.2981 14.1524 -8.94969
575 1 22.0127 18.8705 12.5798 -8.94928
576 1 1.57121 20.4425 14.1525 -8.94939
577 1 3.14242 18.872 12.5804 -8.94898
578 1 4.71628 20.4435 14.1529 -8.95115
579 1 6.28837 18.8732 12.5804 -8.95377
580 1 7.86235 20.4424 14.1523 -8.94975
581 1 9.43448 18.8691 12.5793 -8.94856
582 1 11.0067 20.4422 14.1521 -8.94951
583 1 12.5793 18.872 12.5793 -8.95497
584 1 14.1522 20.4431 14.1522 -8.95153
585 1 15.725 18.8707 12.5792 -8.94946
586 1 17.297 20.4422 14.1519 -8.94965
587 1 18.8693 18.8702 12.5795 -8.94922
588 1 20.4412 20.4421 14.1521 -8.94939
589 1 1.56943 11.007 17.3002 -8.94915
590 1 4.71245 11.007 17.3043 -8.94868
591 1 7.86094 11.007 17.3004 -8.95075
592 1 11.0063 11.007 17.2959 -8.94407
593 1 14.1559 11.007 17.3026 -8.94854
594 1 17.2993 11.007 17.2993 -8.94921
595 1 20.4414 11.007 17.2984 -8.94938
596 1 -0.00260761 12.5803 15.7269 -8.94929
597 1 1.56957 14.1536 17.3 -8.94889
598 1 3.13739 12.5819 15.7317 -8.94674
599 1 4.71317 14.1553 17.3041 -8.95099
600 1 6.28169 12.5832 15.7397 -8.95859
601 1 7.8622 14.1529 17.3 -8.95221
602 1 9.43365 12.5771 15.7212 -8.94757
603 1 11.0056 14.1532 17.2989 -8.95028
604 1 12.584 12.5825 15.7386 -8.96621
605 1 14.1551 14.1553 17.3033 -8.95338
606 1 15.7305 12.5817 15.7305 -8.94605
607 1 17.2992 14.1536 17.2992 -8.94893
608 1 18.871 12.5803 15.7265 -8.94911
609 1 20.4414 14.1529 17.2983 -8.9492
610 1 22.0115 15.7265 15.7265 -8.95012
611 1 1.56993 17.2995 17.2995 -8.94769
612 1 3.13737 15.7313 15.7318 -8.9427
613 1 4.71551 17.2996 17.2997 -8.94989
614 1 6.28629 15.7294 15.7309 -8.95016
615 1 7.86173 17.2986 17.2984 -8.94839
616 1 9.43347 15.7275 15.7277 -8.94348
617 1 11.0068 17.2985 17.298 -8.94865
618 1 12.5796 15.7279 15.7282 -8.95071
619 1 14.1526 17.299 17.2984 -8.95035
620 1 15.7322 15.7328 15.7322 -8.93852
621 1 17.2992 17.2999 17.2992 -8.94671
622 1 18.8711 15.7266 15.7262 -8.95031
623 1 20.4415 17.2984 17.2981 -8.94942
624 1 -0.00112542 18.8706 15.7252 -8.94956
625 1 1.57134 20.4426 17.2978 -8.94929
626 1 3.14238 18.8725 15.7268 -8.94911
627 1 4.71688 20.4424 17.2975 -8.94978
628 1 6.2893 18.8713 15.7257 -8.94993
629 1 7.86207 20.4422 17.2973 -8.94935
630 1 9.43439 18.8707 15.7254 -8.94926
631 1 11.007 20.4422 17.2972 -8.94943
632 1 12.5792 18.8707 15.725 -8.94946
633 1 14.1519 20.4422 17.297 -8.94965
634 1 15.7261 18.8724 15.7261 -8.94973
635 1 17.2975 20.4426 17.2975 -8.94946
636 1 18.8696 18.8705 15.7248 -8.94984
637 1 20.4414 20.4422 17.2972 -8.94956
638 1 1.57152 11.007 20.4428 -8.94944
639 1 4.71603 11.007 20.4437 -8.95005
640 1 7.8619 11.007 20.4422 -8.94941
641 1 11.0066 11.007 20.4399 -8.94845
642 1 14.1535 11.007 20.4408 -8.95067
643 1 17.2984 11.007 20.4414 -8.94938
644 1 20.4419 11.007 20.4419 -8.9494
645 1 22.0131 12.5798 18.8707 -8.94932
646 1 1.57157 14.1525 20.4427 -8.94937
647 1 3.14267 12.5802 18.8725 -8.9492
648 1 4.71627 14.1526 20.4434 -8.95036
649 1 6.28849 12.5799 18.8733 -8.9522
650 1 7.86193 14.1524 20.4414 -8.9504
651 1 9.43445 12.5795 18.8687 -8.94755
652 1 11.0067 14.1528 20.4404 -8.95023
653 1 12.5797 12.5797 18.871 -8.95361
654 1 14.153 14.1531 20.4409 -8.9515
655 1 15.7265 12.5803 18.871 -8.94911
656 1 17.2983 14.1529 20.4414 -8.9492
657 1 18.8702 12.5799 18.8702 -8.9493
658 1 20.4419 14.1524 20.4419 -8.94936
659 1 -0.000722622 15.7254 18.8705 -8.9493
660 1 1.57166 17.2977 20.4424 -8.94956
661 1 3.14295 15.7262 18.8721 -8.94969
662 1 4.7165 17.2979 20.4418 -8.95005
663 1 6.28916 15.7256 18.871 -8.95055
664 1 7.8617 17.298 20.4413 -8.94933
665 1 9.43424 15.7259 18.8701 -8.94935
666 1 11.007 17.2981 20.441 -8.94939
667 1 12.5794 15.7257 18.8698 -8.94974
668 1 14.1524 17.2981 20.4409 -8.94969
669 1 15.7262 15.7266 18.8711 -8.95031
670 1 17.2981 17.2984 20.4415 -8.94942
671 1 18.8701 15.7255 18.8701 -8.94937
672 1 20.4418 17.2976 20.4418 -8.94942
673 1 22.0133 18.8703 18.8701 -8.94888
674 1 1.57195 20.4421 20.4417 -8.94934
675 1 3.14394 18.8705 18.8702 -8.94965
676 1 4.71689 20.442 20.4414 -8.94944
351 1 22.014 12.5796 22.014 -8.94946
355 1 6.2891 12.5794 22.0142 -8.94978
357 1 9.43432 12.5797 22.0117 -8.94935
359 1 12.5804 12.58 22.0097 -8.95239
363 1 18.8707 12.5798 22.0131 -8.94932
365 1 22.0139 15.7249 22.0139 -8.94942
369 1 6.28874 15.7254 22.0125 -8.95066
375 1 15.7265 15.7265 22.0115 -8.95012
381 1 3.14395 18.8701 22.0133 -8.94936
371 1 9.43409 15.726 22.0117 -8.94966
