ITEM: TIMESTEP
44
ITEM: NUMBER OF ATOMS
688
ITEM: BOX BOUNDS pp pp pp
0.0000000000000000e+00 2.2013900999999997e+01
0.0000000000000000e+00 2.2013900999999997e+01
0.0000000000000000e+00 2.2013900999999997e+01
ITEM: ATOMS id type x y z c_pot
175 1 18.8696 9.43436 9.4346 -8.94894
2 1 1.57238 1.57239 1.57238 -8.94949
3 1 3.14484 1.33701e-15 -6.4997e-06 -8.94966
4 1 4.71725 1.57239 1.57239 -8.9497
174 1 15.7248 9.43487 9.43519 -8.94728
6 1 7.8621 1.57237 1.57237 -8.94962
191 1 4.70827 7.85797 11.0068 -8.95345
8 1 11.007 1.57237 1.57237 -8.94964
173 1 12.575 9.43092 9.4168 -8.84815
10 1 14.1518 1.57238 1.57238 -8.94963
11 1 15.7242 1.79668e-15 -5.74206e-06 -8.94965
12 1 17.2967 1.57236 1.57236 -8.94953
172 1 9.38771 9.17593 9.38771 -7.66478
14 1 20.4415 1.57241 1.57241 -8.94963
15 1 -2.97403e-06 3.14483 -2.97403e-06 -8.94963
16 1 1.57238 4.71725 1.57238 -8.94974
171 1 6.27676 9.41318 9.41905 -8.90962
18 1 4.71697 4.71697 1.57193 -8.94945
19 1 6.28968 3.1448 -4.32287e-05 -8.9496
20 1 7.86204 4.71699 1.57205 -8.94931
170 1 3.1418 9.4345 9.43407 -8.95156
22 1 11.007 4.71696 1.57204 -8.94947
169 1 22.0134 9.43449 9.43441 -8.94981
24 1 14.1519 4.717 1.57207 -8.94984
25 1 15.7242 3.1448 -4.70956e-05 -8.9497
26 1 17.2969 4.71696 1.57212 -8.9488
168 1 18.8694 6.28937 9.43452 -8.94945
28 1 20.4415 4.71723 1.57238 -8.94962
167 1 15.7258 6.28812 9.43466 -8.94588
30 1 1.57238 7.8621 1.57238 -8.94956
31 1 3.1448 6.28967 1.08409e-05 -8.94972
32 1 4.71713 7.86218 1.57221 -8.94975
166 1 12.5793 6.28848 9.4346 -8.95012
34 1 7.8618 7.86185 1.57087 -8.95186
190 1 1.57065 7.86154 11.0067 -8.95051
36 1 11.0067 7.86154 1.57065 -8.95051
37 1 12.5794 6.2895 -0.000317473 -8.94966
38 1 14.1526 7.86136 1.57049 -8.95115
165 1 9.43262 6.29319 9.43262 -9.01199
40 1 17.2969 7.86203 1.57219 -8.9496
41 1 18.8691 6.28968 -2.49208e-05 -8.94968
42 1 20.4415 7.8621 1.57239 -8.9496
164 1 6.28485 6.28249 9.43493 -8.94927
44 1 3.14477 9.43451 -2.15915e-05 -8.94961
163 1 3.14286 6.28833 9.43423 -8.94778
162 1 22.0136 6.28945 9.43446 -8.94961
161 1 18.8691 3.14478 9.43453 -8.94966
48 1 15.7244 9.43447 -0.000284252 -8.94945
160 1 15.7245 3.14444 9.43454 -8.9495
50 1 -6.4997e-06 1.1961e-15 3.14484 -8.94966
51 1 1.57239 1.57239 4.71725 -8.9497
52 1 3.14477 1.58876e-15 3.14477 -8.94959
53 1 4.71704 1.57207 4.71704 -8.9498
54 1 6.28968 7.88557e-16 3.14479 -8.9496
55 1 7.86209 1.57213 4.71708 -8.94955
56 1 9.43452 1.11376e-15 3.14477 -8.94962
57 1 11.007 1.57207 4.71703 -8.94953
58 1 12.5794 4.01176e-16 3.14477 -8.94957
59 1 14.152 1.57203 4.7171 -8.95014
60 1 15.7243 1.74751e-15 3.14477 -8.94971
61 1 17.2967 1.57239 4.71727 -8.94969
62 1 18.8691 1.82464e-15 3.14484 -8.94966
63 1 20.4415 1.57241 4.71726 -8.94963
64 1 22.0138 3.14479 3.14479 -8.94957
65 1 1.57193 4.71697 4.71697 -8.94945
66 1 3.14451 3.14452 3.14451 -8.94874
67 1 4.71516 4.71519 4.71516 -8.94487
68 1 6.28961 3.14457 3.14461 -8.94976
69 1 7.8618 4.71569 4.71605 -8.94929
70 1 9.4345 3.14448 3.14454 -8.94954
71 1 11.0071 4.71542 4.71587 -8.94782
72 1 12.5794 3.14449 3.14458 -8.94939
73 1 14.1536 4.71431 4.71547 -8.94861
74 1 15.7246 3.14432 3.14449 -8.94923
75 1 17.297 4.71697 4.71712 -8.94985
76 1 18.8691 3.14479 3.14481 -8.94968
77 1 20.4415 4.7172 4.71722 -8.94971
78 1 1.08409e-05 6.28967 3.1448 -8.94972
79 1 1.57221 7.86218 4.71713 -8.94975
80 1 3.14459 6.28964 3.14459 -8.95015
81 1 4.71619 7.86232 4.71619 -8.95201
82 1 6.2883 6.28835 3.14231 -8.94963
83 1 7.85745 7.85743 4.70733 -8.95342
84 1 9.43423 6.28833 3.14286 -8.94778
85 1 11.0068 7.85797 4.70827 -8.95345
86 1 12.5798 6.28838 3.1429 -8.94983
87 1 14.1628 7.8514 4.70625 -8.92491
88 1 15.7263 6.28765 3.14277 -8.94476
89 1 17.2987 7.86126 4.71639 -8.95076
90 1 18.8694 6.28949 3.14463 -8.94967
91 1 20.4417 7.86204 4.71716 -8.94992
92 1 -2.15915e-05 9.43451 3.14477 -8.94961
93 1 3.14452 9.4345 3.14452 -8.94916
94 1 6.28922 9.43514 3.14395 -8.94964
95 1 9.43407 9.4345 3.1418 -8.95156
96 1 12.5813 9.43324 3.13722 -8.95861
97 1 15.7257 9.4341 3.14335 -8.94817
98 1 18.8694 9.43448 3.14463 -8.94945
99 1 22.0139 5.31717e-17 6.28968 -8.94963
100 1 1.57237 1.57237 7.8621 -8.94962
101 1 3.14479 6.11581e-16 6.28968 -8.9496
102 1 4.71708 1.57213 7.86209 -8.94955
103 1 6.28958 9.70985e-16 6.28958 -8.9503
104 1 7.8621 1.57152 7.8621 -8.95129
105 1 9.43458 1.90839e-15 6.28954 -8.95001
106 1 11.007 1.57186 7.86214 -8.95021
107 1 12.5794 1.78073e-15 6.28963 -8.95036
108 1 14.1519 1.57219 7.86216 -8.94962
109 1 15.7243 1.95064e-15 6.2897 -8.94962
110 1 17.2967 1.57236 7.8621 -8.9496
111 1 18.8691 1.48992e-15 6.28968 -8.94962
112 1 20.4415 1.57241 7.86211 -8.94964
113 1 -4.32287e-05 3.1448 6.28968 -8.9496
114 1 1.57205 4.71699 7.86204 -8.94931
115 1 3.14461 3.14457 6.28961 -8.94976
116 1 4.71605 4.71569 7.8618 -8.94929
117 1 6.28897 3.14295 6.28897 -8.95119
118 1 7.86091 4.71059 7.86091 -8.95925
119 1 9.43475 3.14319 6.28902 -8.94983
120 1 11.0073 4.71386 7.8617 -8.95363
121 1 12.5798 3.143 6.28935 -8.95236
122 1 14.1525 4.716 7.86262 -8.94969
123 1 15.7244 3.14457 6.28974 -8.94974
124 1 17.297 4.71696 7.8621 -8.94924
125 1 18.8691 3.1448 6.28968 -8.94959
126 1 20.4415 4.71718 7.86208 -8.94956
127 1 22.0136 6.28954 6.28955 -8.95004
128 1 1.57087 7.86185 7.8618 -8.95186
129 1 3.14231 6.28835 6.2883 -8.94963
130 1 4.70733 7.85743 7.85745 -8.95342
131 1 6.27941 6.27954 6.27941 -8.92707
132 1 7.82236 7.82404 7.82236 -8.83006
133 1 9.43493 6.28249 6.28485 -8.94927
134 1 11.033 7.84521 7.82793 -8.87259
135 1 12.5866 6.27764 6.28264 -8.94944
136 1 14.1601 7.85744 7.86217 -8.94852
137 1 15.7262 6.28827 6.28923 -8.95021
138 1 17.2982 7.86161 7.8625 -8.95097
139 1 18.8694 6.28951 6.28966 -8.94985
140 1 20.4415 7.862 7.86209 -8.95008
141 1 22.0138 9.43455 6.28955 -8.94979
142 1 3.14395 9.43514 6.28922 -8.94964
143 1 6.28723 9.43817 6.28723 -8.95792
144 1 9.41905 9.41318 6.27676 -8.90962
145 1 12.6265 9.39301 6.24657 -8.8178
146 1 15.7329 9.43274 6.28744 -8.95841
147 1 18.8703 9.43442 6.28953 -8.95132
148 1 22.0139 -3.45956e-16 9.43453 -8.94964
149 1 3.14477 1.15833e-15 9.43452 -8.94962
150 1 6.28954 1.50116e-15 9.43458 -8.95001
151 1 9.43459 1.64848e-15 9.43459 -8.94927
152 1 12.5795 1.11391e-15 9.43457 -8.94968
153 1 15.7243 6.49711e-16 9.43453 -8.94967
154 1 18.8691 3.48097e-16 9.43453 -8.94964
155 1 -5.13379e-05 3.14479 9.43453 -8.94964
156 1 3.14454 3.14448 9.4345 -8.94954
157 1 6.28902 3.14319 9.43475 -8.94983
158 1 9.43469 3.14408 9.43469 -8.94688
159 1 12.5796 3.14419 9.4347 -8.94912
177 1 4.71703 1.57207 11.007 -8.94953
180 1 14.1519 1.5722 11.0069 -8.94958
184 1 4.71587 4.71542 11.0071 -8.94782
187 1 14.1525 4.71617 11.0066 -8.94873
188 1 17.297 4.71693 11.007 -8.94927
189 1 20.4415 4.71718 11.007 -8.9496
194 1 14.1565 7.85977 11.0041 -8.95143
21 1 9.43453 3.14479 -5.13379e-05 -8.94964
176 1 1.57237 1.57237 11.007 -8.94964
343 1 18.8691 9.43452 18.8691 -8.94965
178 1 7.86214 1.57186 11.007 -8.95021
179 1 11.007 1.57213 11.007 -8.94949
342 1 15.7245 9.43446 18.8694 -8.94938
181 1 17.2967 1.57236 11.007 -8.94961
182 1 20.4415 1.57241 11.007 -8.94964
183 1 1.57204 4.71696 11.007 -8.94947
341 1 12.5794 9.43448 18.8702 -8.95177
185 1 7.8617 4.71386 11.0073 -8.95363
186 1 11.0067 4.71629 11.0067 -8.94957
340 1 9.4346 9.43436 18.8696 -8.94894
339 1 6.28953 9.43442 18.8703 -8.95132
338 1 3.14463 9.43448 18.8694 -8.94945
337 1 22.0139 9.43452 18.8691 -8.94965
336 1 20.4415 7.8621 20.4415 -8.94964
192 1 7.82793 7.84521 11.033 -8.87259
193 1 11.0249 7.86087 11.0249 -8.90227
49 1 18.8691 9.43452 22.0139 -8.94965
195 1 17.298 7.86144 11.0066 -8.94954
196 1 20.4415 7.86194 11.0069 -8.94994
197 1 22.0139 9.26101e-16 12.5794 -8.94964
198 1 1.57238 1.57238 14.1518 -8.94963
199 1 3.14477 9.95383e-16 12.5794 -8.94957
200 1 4.7171 1.57203 14.152 -8.95014
201 1 6.28963 1.84849e-15 12.5794 -8.95036
202 1 7.86216 1.57219 14.1519 -8.94962
203 1 9.43457 1.15365e-15 12.5795 -8.94968
204 1 11.0069 1.5722 14.1519 -8.94958
205 1 12.5794 -1.04443e-16 12.5794 -8.95022
206 1 14.1519 1.57208 14.1519 -8.95019
207 1 15.7243 6.21868e-16 12.5794 -8.94959
208 1 17.2967 1.57239 14.1518 -8.94964
209 1 18.8691 1.18344e-15 12.5794 -8.94963
210 1 20.4415 1.57241 14.1518 -8.94963
211 1 22.0139 3.14479 12.5794 -8.94961
212 1 1.57207 4.717 14.1519 -8.94984
213 1 3.14458 3.14449 12.5794 -8.94939
214 1 4.71547 4.71431 14.1536 -8.94861
215 1 6.28935 3.143 12.5798 -8.95236
216 1 7.86262 4.716 14.1525 -8.94969
217 1 9.4347 3.14419 12.5796 -8.94912
218 1 11.0066 4.71617 14.1525 -8.94873
219 1 12.5795 3.14343 12.5795 -8.95238
220 1 14.1531 4.71455 14.1531 -8.95039
221 1 15.7244 3.14459 12.5793 -8.94951
222 1 17.2969 4.71705 14.1518 -8.94999
223 1 18.8691 3.14479 12.5794 -8.94958
224 1 20.4415 4.71721 14.1518 -8.94963
225 1 -0.000317473 6.2895 12.5794 -8.94966
226 1 1.57049 7.86136 14.1526 -8.95115
227 1 3.1429 6.28838 12.5798 -8.94983
228 1 4.70625 7.8514 14.1628 -8.92491
229 1 6.28264 6.27764 12.5866 -8.94944
230 1 7.86217 7.85744 14.1601 -8.94852
231 1 9.4346 6.28848 12.5793 -8.95012
232 1 11.0041 7.85977 14.1565 -8.95143
233 1 12.5833 6.27949 12.5833 -8.95811
234 1 14.1643 7.84942 14.1643 -8.91957
235 1 15.7254 6.28871 12.5792 -8.95041
236 1 17.2989 7.86119 14.1527 -8.95156
237 1 18.8693 6.2895 12.5794 -8.94953
238 1 20.4415 7.86197 14.1519 -8.95035
239 1 22.0129 9.43446 12.5795 -8.95134
240 1 3.13722 9.43324 12.5813 -8.95861
241 1 6.24657 9.39301 12.6265 -8.8178
242 1 9.4168 9.43092 12.575 -8.84815
243 1 12.6284 9.38458 12.6284 -8.7748
244 1 15.7325 9.4331 12.5811 -8.96186
245 1 18.8702 9.43448 12.5794 -8.95177
246 1 -5.74206e-06 1.57723e-15 15.7242 -8.94965
247 1 1.57236 1.57236 17.2967 -8.94953
248 1 3.14477 1.27738e-15 15.7243 -8.94971
249 1 4.71727 1.57239 17.2967 -8.94969
250 1 6.2897 1.63135e-15 15.7243 -8.94962
251 1 7.8621 1.57236 17.2967 -8.9496
252 1 9.43453 7.55563e-16 15.7243 -8.94967
253 1 11.007 1.57236 17.2967 -8.94961
254 1 12.5794 6.9147e-16 15.7243 -8.94959
255 1 14.1518 1.57239 17.2967 -8.94964
256 1 15.7243 5.43664e-16 15.7243 -8.94976
257 1 17.2967 1.57235 17.2967 -8.94958
258 1 18.8691 1.57457e-15 15.7242 -8.94965
259 1 20.4415 1.57241 17.2966 -8.94967
260 1 -4.70956e-05 3.1448 15.7242 -8.9497
261 1 1.57212 4.71696 17.2969 -8.9488
262 1 3.14449 3.14432 15.7246 -8.94923
263 1 4.71712 4.71697 17.297 -8.94985
264 1 6.28974 3.14457 15.7244 -8.94974
265 1 7.8621 4.71696 17.297 -8.94924
266 1 9.43454 3.14444 15.7245 -8.9495
267 1 11.007 4.71693 17.297 -8.94927
268 1 12.5793 3.14459 15.7244 -8.94951
269 1 14.1518 4.71705 17.2969 -8.94999
270 1 15.7245 3.14432 15.7245 -8.94954
271 1 17.297 4.71687 17.297 -8.94854
272 1 18.8691 3.14481 15.7242 -8.94974
273 1 20.4415 4.71719 17.2967 -8.94958
274 1 22.0136 6.28947 15.7244 -8.94979
275 1 1.57219 7.86203 17.2969 -8.9496
276 1 3.14277 6.28765 15.7263 -8.94476
277 1 4.71639 7.86126 17.2987 -8.95076
278 1 6.28923 6.28827 15.7262 -8.95021
279 1 7.8625 7.86161 17.2982 -8.95097
280 1 9.43466 6.28812 15.7258 -8.94588
281 1 11.0066 7.86144 17.298 -8.94954
282 1 12.5792 6.28871 15.7254 -8.95041
283 1 14.1527 7.86119 17.2989 -8.95156
284 1 15.7267 6.28716 15.7267 -8.94355
285 1 17.2969 7.86201 17.2969 -8.9496
286 1 18.8695 6.28942 15.7245 -8.9498
287 1 20.4415 7.86209 17.2967 -8.94956
288 1 -0.000284252 9.43447 15.7244 -8.94945
289 1 3.14335 9.4341 15.7257 -8.94817
290 1 6.28744 9.43274 15.7329 -8.95841
291 1 9.43519 9.43487 15.7248 -8.94728
292 1 12.5811 9.4331 15.7325 -8.96186
293 1 15.7258 9.43408 15.7258 -8.94792
294 1 18.8694 9.43446 15.7245 -8.94938
295 1 22.0139 5.85941e-16 18.8691 -8.9496
296 1 1.57241 1.57241 20.4415 -8.94963
297 1 3.14484 1.9571e-15 18.8691 -8.94966
298 1 4.71726 1.57241 20.4415 -8.94963
299 1 6.28968 1.74707e-15 18.8691 -8.94962
300 1 7.86211 1.57241 20.4415 -8.94964
301 1 9.43453 5.59449e-16 18.8691 -8.94964
302 1 11.007 1.57241 20.4415 -8.94964
303 1 12.5794 1.31989e-15 18.8691 -8.94963
304 1 14.1518 1.57241 20.4415 -8.94963
305 1 15.7242 2.1353e-15 18.8691 -8.94965
306 1 17.2966 1.57241 20.4415 -8.94967
307 1 18.8691 1.75616e-15 18.8691 -8.94961
308 1 20.4415 1.57241 20.4415 -8.94958
309 1 22.0139 3.1448 18.8691 -8.94951
310 1 1.57238 4.71723 20.4415 -8.94962
311 1 3.14481 3.14479 18.8691 -8.94968
312 1 4.71722 4.7172 20.4415 -8.94971
313 1 6.28968 3.1448 18.8691 -8.94959
314 1 7.86208 4.71718 20.4415 -8.94956
315 1 9.43453 3.14478 18.8691 -8.94966
316 1 11.007 4.71718 20.4415 -8.9496
317 1 12.5794 3.14479 18.8691 -8.94958
318 1 14.1518 4.71721 20.4415 -8.94963
319 1 15.7242 3.14481 18.8691 -8.94974
320 1 17.2967 4.71719 20.4415 -8.94958
321 1 18.8691 3.14479 18.8691 -8.94945
322 1 20.4415 4.71726 20.4415 -8.94967
323 1 -2.49208e-05 6.28968 18.8691 -8.94968
324 1 1.57239 7.8621 20.4415 -8.9496
325 1 3.14463 6.28949 18.8694 -8.94967
326 1 4.71716 7.86204 20.4417 -8.94992
327 1 6.28966 6.28951 18.8694 -8.94985
328 1 7.86209 7.862 20.4415 -8.95008
329 1 9.43452 6.28937 18.8694 -8.94945
330 1 11.0069 7.86194 20.4415 -8.94994
331 1 12.5794 6.2895 18.8693 -8.94953
332 1 14.1519 7.86197 20.4415 -8.95035
333 1 15.7245 6.28942 18.8695 -8.9498
334 1 17.2967 7.86209 20.4415 -8.94956
335 1 18.8691 6.28967 18.8691 -8.94969
1 1 22.0139 1.41892e-15 22.0139 -8.9496
5 1 6.28968 3.57962e-17 22.0139 -8.94963
9 1 12.5794 6.861e-16 22.0139 -8.94964
13 1 18.8691 1.50138e-15 22.0139 -8.9496
17 1 3.14479 3.14479 22.0138 -8.94957
47 1 12.5795 9.43446 22.0129 -8.95134
23 1 12.5794 3.14479 22.0139 -8.94961
27 1 18.8691 3.1448 22.0139 -8.94951
29 1 22.0139 6.28968 22.0139 -8.94963
33 1 6.28955 6.28954 22.0136 -8.95004
39 1 15.7244 6.28947 22.0136 -8.94979
43 1 22.0139 9.43453 22.0139 -8.94964
45 1 6.28955 9.43455 22.0138 -8.94979
46 1 9.43441 9.43449 22.0134 -8.94981
7 1 9.43453 -6.10304e-16 22.0139 -8.94964
35 1 9.43446 6.28945 22.0136 -8.94961
344 1 1.57236 11.007 1.57236 -8.94966
345 1 4.71697 11.007 1.57206 -8.94961
346 1 7.86174 11.007 1.57195 -8.94816
347 1 11.0068 11.007 1.57047 -8.94886
348 1 14.1528 11.007 1.57054 -8.94918
349 1 17.2969 11.007 1.57216 -8.94964
350 1 20.4415 11.007 1.57238 -8.94963
688 3 10.3832 11.007 9.37434 2.44335
352 1 1.57238 14.1518 1.57238 -8.94956
353 1 3.14477 12.5794 -2.15915e-05 -8.94961
354 1 4.71713 14.1517 1.57221 -8.94975
687 3 9.37434 11.007 10.3832 2.44335
356 1 7.8618 14.1521 1.57087 -8.95186
511 1 18.8691 18.8691 9.43453 -8.94966
358 1 11.0067 14.1524 1.57065 -8.95051
510 1 15.7245 18.8695 9.43454 -8.9495
360 1 14.1526 14.1525 1.57049 -8.95115
361 1 15.7244 12.5794 -0.000284252 -8.94945
362 1 17.2969 14.1519 1.57219 -8.9496
509 1 12.5796 18.8697 9.4347 -8.94912
364 1 20.4415 14.1518 1.57239 -8.9496
508 1 9.43469 18.8698 9.43469 -8.94688
366 1 1.57238 17.2967 1.57238 -8.94974
367 1 3.1448 15.7242 1.08409e-05 -8.94972
368 1 4.71697 17.2969 1.57193 -8.94945
507 1 6.28902 18.8707 9.43475 -8.94983
370 1 7.86204 17.2969 1.57205 -8.94931
537 1 14.1519 20.4417 11.0069 -8.94958
372 1 11.007 17.2969 1.57204 -8.94947
373 1 12.5794 15.7244 -0.000317473 -8.94966
374 1 14.1519 17.2969 1.57207 -8.94984
506 1 3.14454 18.8694 9.4345 -8.94954
376 1 17.2969 17.2969 1.57212 -8.9488
377 1 18.8691 15.7242 -2.49208e-05 -8.94968
378 1 20.4415 17.2967 1.57238 -8.94962
379 1 -2.97403e-06 18.8691 -2.97403e-06 -8.94963
380 1 1.57238 20.4415 1.57238 -8.94949
505 1 -5.13379e-05 18.8691 9.43453 -8.94964
382 1 4.71725 20.4415 1.57239 -8.9497
383 1 6.28968 18.8691 -4.32287e-05 -8.9496
384 1 7.8621 20.4415 1.57237 -8.94962
504 1 18.8694 15.7245 9.43452 -8.94945
386 1 11.007 20.4415 1.57237 -8.94964
503 1 15.7258 15.7258 9.43466 -8.94588
388 1 14.1518 20.4415 1.57238 -8.94963
389 1 15.7242 18.8691 -4.70956e-05 -8.9497
390 1 17.2967 20.4415 1.57236 -8.94953
502 1 12.5793 15.7254 9.4346 -8.95012
392 1 20.4415 20.4415 1.57241 -8.94963
393 1 1.57206 11.007 4.71697 -8.94961
394 1 4.71579 11.007 4.71579 -8.94607
395 1 7.86276 11.007 4.71845 -8.94075
396 1 11.0119 11.007 4.71172 -9.01314
397 1 14.1594 11.007 4.70964 -8.94178
398 1 17.2986 11.007 4.71627 -8.94896
399 1 20.4417 11.007 4.71712 -8.94979
400 1 -2.15915e-05 12.5794 3.14477 -8.94961
401 1 1.57221 14.1517 4.71713 -8.94975
402 1 3.14452 12.5794 3.14452 -8.94916
403 1 4.71619 14.1516 4.71619 -8.95201
404 1 6.28922 12.5788 3.14395 -8.94964
405 1 7.85745 14.1565 4.70733 -8.95342
406 1 9.43407 12.5794 3.1418 -8.95156
407 1 11.0068 14.1559 4.70827 -8.95345
408 1 12.5813 12.5807 3.13722 -8.95861
409 1 14.1628 14.1625 4.70625 -8.92491
410 1 15.7257 12.5798 3.14335 -8.94817
411 1 17.2987 14.1526 4.71639 -8.95076
412 1 18.8694 12.5794 3.14463 -8.94945
413 1 20.4417 14.1519 4.71716 -8.94992
414 1 1.08409e-05 15.7242 3.1448 -8.94972
415 1 1.57193 17.2969 4.71697 -8.94945
416 1 3.14459 15.7243 3.14459 -8.95015
417 1 4.71516 17.2987 4.71516 -8.94487
418 1 6.2883 15.7255 3.14231 -8.94963
419 1 7.8618 17.2982 4.71605 -8.94929
420 1 9.43423 15.7256 3.14286 -8.94778
421 1 11.0071 17.2985 4.71587 -8.94782
422 1 12.5798 15.7255 3.1429 -8.94983
423 1 14.1536 17.2996 4.71547 -8.94861
424 1 15.7263 15.7263 3.14277 -8.94476
425 1 17.297 17.2969 4.71712 -8.94985
426 1 18.8694 15.7244 3.14463 -8.94967
427 1 20.4415 17.2967 4.71722 -8.94971
428 1 22.0138 18.8691 3.14479 -8.94957
429 1 1.57239 20.4415 4.71725 -8.9497
430 1 3.14451 18.8694 3.14451 -8.94874
431 1 4.71704 20.4418 4.71704 -8.9498
432 1 6.28961 18.8693 3.14461 -8.94976
433 1 7.86209 20.4418 4.71708 -8.94955
434 1 9.4345 18.8694 3.14454 -8.94954
435 1 11.007 20.4418 4.71703 -8.94953
436 1 12.5794 18.8694 3.14458 -8.94939
437 1 14.152 20.4419 4.7171 -8.95014
438 1 15.7246 18.8696 3.14449 -8.94923
439 1 17.2967 20.4415 4.71727 -8.94969
440 1 18.8691 18.8691 3.14481 -8.94968
441 1 20.4415 20.4415 4.71726 -8.94963
442 1 1.57195 11.007 7.86174 -8.94816
443 1 4.71845 11.007 7.86276 -8.94075
444 1 7.88152 11.007 7.88152 -8.85479
445 1 11.1094 11.007 7.56279 -7.9259
446 1 14.1632 11.007 7.85465 -8.97049
447 1 17.2993 11.007 7.8624 -8.95107
448 1 20.4418 11.007 7.86211 -8.94992
449 1 22.0138 12.5794 6.28955 -8.94979
450 1 1.57087 14.1521 7.8618 -8.95186
451 1 3.14395 12.5788 6.28922 -8.94964
452 1 4.70733 14.1565 7.85745 -8.95342
453 1 6.28723 12.5757 6.28723 -8.95792
454 1 7.82236 14.1899 7.82236 -8.83006
455 1 9.41905 12.6007 6.27676 -8.90962
456 1 11.033 14.1687 7.82793 -8.87259
457 1 12.6265 12.6209 6.24657 -8.8178
458 1 14.1601 14.1565 7.86217 -8.94852
459 1 15.7329 12.5812 6.28744 -8.95841
460 1 17.2982 14.1523 7.8625 -8.95097
461 1 18.8703 12.5795 6.28953 -8.95132
462 1 20.4415 14.1519 7.86209 -8.95008
463 1 22.0136 15.7244 6.28955 -8.95004
464 1 1.57205 17.2969 7.86204 -8.94931
465 1 3.14231 15.7255 6.2883 -8.94963
466 1 4.71605 17.2982 7.8618 -8.94929
467 1 6.27941 15.7344 6.27941 -8.92707
468 1 7.86091 17.3033 7.86091 -8.95925
469 1 9.43493 15.7314 6.28485 -8.94927
470 1 11.0073 17.3 7.8617 -8.95363
471 1 12.5866 15.7363 6.28264 -8.94944
472 1 14.1525 17.2979 7.86262 -8.94969
473 1 15.7262 15.7256 6.28923 -8.95021
474 1 17.297 17.2969 7.8621 -8.94924
475 1 18.8694 15.7244 6.28966 -8.94985
476 1 20.4415 17.2967 7.86208 -8.94956
477 1 -4.32287e-05 18.8691 6.28968 -8.9496
478 1 1.57237 20.4415 7.8621 -8.94962
479 1 3.14461 18.8693 6.28961 -8.94976
480 1 4.71708 20.4418 7.86209 -8.94955
481 1 6.28897 18.871 6.28897 -8.95119
482 1 7.8621 20.4424 7.8621 -8.95129
483 1 9.43475 18.8707 6.28902 -8.94983
484 1 11.007 20.442 7.86214 -8.95021
485 1 12.5798 18.8709 6.28935 -8.95236
486 1 14.1519 20.4417 7.86216 -8.94962
487 1 15.7244 18.8693 6.28974 -8.94974
488 1 17.2967 20.4415 7.8621 -8.9496
489 1 18.8691 18.8691 6.28968 -8.94959
490 1 20.4415 20.4415 7.86211 -8.94964
491 1 22.0134 12.5794 9.43441 -8.94981
492 1 3.1418 12.5794 9.43407 -8.95156
493 1 6.27676 12.6007 9.41905 -8.90962
494 1 9.38771 12.838 9.38771 -7.66478
495 1 12.575 12.583 9.4168 -8.84815
496 1 15.7248 12.579 9.43519 -8.94728
497 1 18.8696 12.5795 9.4346 -8.94894
498 1 22.0136 15.7245 9.43446 -8.94961
499 1 3.14286 15.7256 9.43423 -8.94778
500 1 6.28485 15.7314 9.43493 -8.94927
501 1 9.43262 15.7207 9.43262 -9.01199
512 1 1.57047 11.007 11.0068 -8.94886
517 1 17.2977 11.007 11.0066 -8.94656
519 1 1.57065 14.1524 11.0067 -8.95051
520 1 4.70827 14.1559 11.0068 -8.95345
527 1 4.71587 17.2985 11.0071 -8.94782
530 1 14.1525 17.2977 11.0066 -8.94873
531 1 17.297 17.297 11.007 -8.94927
532 1 20.4415 17.2967 11.007 -8.9496
534 1 4.71703 20.4418 11.007 -8.94953
518 1 20.4414 11.007 11.0068 -8.94956
523 1 14.1565 14.1541 11.0041 -8.95143
385 1 9.43453 18.8691 -5.13379e-05 -8.94964
686 1 20.4415 20.4415 20.4415 -8.94958
513 1 4.71172 11.007 11.0119 -9.01314
514 1 7.56279 11.007 11.1094 -7.9259
515 1 11.2306 11.007 11.2306 -7.41842
516 1 14.1481 11.007 11.014 -9.0008
685 1 18.8691 18.8691 18.8691 -8.94945
391 1 18.8691 18.8691 22.0139 -8.94951
684 1 17.2966 20.4415 20.4415 -8.94967
683 1 15.7242 18.8691 18.8691 -8.94974
521 1 7.82793 14.1687 11.033 -8.87259
522 1 11.0249 14.153 11.0249 -8.90227
387 1 12.5794 18.8691 22.0139 -8.94961
524 1 17.298 14.1525 11.0066 -8.94954
525 1 20.4415 14.152 11.0069 -8.94994
526 1 1.57204 17.2969 11.007 -8.94947
682 1 14.1518 20.4415 20.4415 -8.94963
528 1 7.8617 17.3 11.0073 -8.95363
529 1 11.0067 17.2976 11.0067 -8.94957
681 1 12.5794 18.8691 18.8691 -8.94958
680 1 11.007 20.4415 20.4415 -8.94964
679 1 9.43453 18.8691 18.8691 -8.94966
533 1 1.57237 20.4415 11.007 -8.94964
678 1 7.86211 20.4415 20.4415 -8.94964
535 1 7.86214 20.442 11.007 -8.95021
536 1 11.007 20.4418 11.007 -8.94949
677 1 6.28968 18.8691 18.8691 -8.94959
538 1 17.2967 20.4415 11.007 -8.94961
539 1 20.4415 20.4415 11.007 -8.94964
540 1 1.57054 11.007 14.1528 -8.94918
541 1 4.70964 11.007 14.1594 -8.94178
542 1 7.85465 11.007 14.1632 -8.97049
543 1 11.014 11.007 14.1481 -9.0008
544 1 14.1594 11.007 14.1594 -8.94243
545 1 17.2987 11.007 14.1529 -8.94885
546 1 20.4415 11.007 14.152 -8.94998
547 1 22.0129 12.5794 12.5795 -8.95134
548 1 1.57049 14.1525 14.1526 -8.95115
549 1 3.13722 12.5807 12.5813 -8.95861
550 1 4.70625 14.1625 14.1628 -8.92491
551 1 6.24657 12.6209 12.6265 -8.8178
552 1 7.86217 14.1565 14.1601 -8.94852
553 1 9.4168 12.583 12.575 -8.84815
554 1 11.0041 14.1541 14.1565 -8.95143
555 1 12.6284 12.6293 12.6284 -8.7748
556 1 14.1643 14.1645 14.1643 -8.91957
557 1 15.7325 12.5808 12.5811 -8.96186
558 1 17.2989 14.1527 14.1527 -8.95156
559 1 18.8702 12.5794 12.5794 -8.95177
560 1 20.4415 14.1519 14.1519 -8.95035
561 1 -0.000317473 15.7244 12.5794 -8.94966
562 1 1.57207 17.2969 14.1519 -8.94984
563 1 3.1429 15.7255 12.5798 -8.94983
564 1 4.71547 17.2996 14.1536 -8.94861
565 1 6.28264 15.7363 12.5866 -8.94944
566 1 7.86262 17.2979 14.1525 -8.94969
567 1 9.4346 15.7254 12.5793 -8.95012
568 1 11.0066 17.2977 14.1525 -8.94873
569 1 12.5833 15.7344 12.5833 -8.95811
570 1 14.1531 17.2993 14.1531 -8.95039
571 1 15.7254 15.7252 12.5792 -8.95041
572 1 17.2969 17.2968 14.1518 -8.94999
573 1 18.8693 15.7244 12.5794 -8.94953
574 1 20.4415 17.2967 14.1518 -8.94963
575 1 22.0139 18.8691 12.5794 -8.94961
576 1 1.57238 20.4415 14.1518 -8.94963
577 1 3.14458 18.8694 12.5794 -8.94939
578 1 4.7171 20.4419 14.152 -8.95014
579 1 6.28935 18.8709 12.5798 -8.95236
580 1 7.86216 20.4417 14.1519 -8.94962
581 1 9.4347 18.8697 12.5796 -8.94912
582 1 11.0069 20.4417 14.1519 -8.94958
583 1 12.5795 18.8705 12.5795 -8.95238
584 1 14.1519 20.4418 14.1519 -8.95019
585 1 15.7244 18.8693 12.5793 -8.94951
586 1 17.2967 20.4415 14.1518 -8.94964
587 1 18.8691 18.8691 12.5794 -8.94958
588 1 20.4415 20.4415 14.1518 -8.94963
589 1 1.57216 11.007 17.2969 -8.94964
590 1 4.71627 11.007 17.2986 -8.94896
591 1 7.8624 11.007 17.2993 -8.95107
592 1 11.0066 11.007 17.2977 -8.94656
593 1 14.1529 11.007 17.2987 -8.94885
594 1 17.297 11.007 17.297 -8.94963
595 1 20.4415 11.007 17.2967 -8.94961
596 1 -0.000284252 12.5794 15.7244 -8.94945
597 1 1.57219 14.1519 17.2969 -8.9496
598 1 3.14335 12.5798 15.7257 -8.94817
599 1 4.71639 14.1526 17.2987 -8.95076
600 1 6.28744 12.5812 15.7329 -8.95841
601 1 7.8625 14.1523 17.2982 -8.95097
602 1 9.43519 12.579 15.7248 -8.94728
603 1 11.0066 14.1525 17.298 -8.94954
604 1 12.5811 12.5808 15.7325 -8.96186
605 1 14.1527 14.1527 17.2989 -8.95156
606 1 15.7258 12.5798 15.7258 -8.94792
607 1 17.2969 14.1519 17.2969 -8.9496
608 1 18.8694 12.5794 15.7245 -8.94938
609 1 20.4415 14.1518 17.2967 -8.94956
610 1 22.0136 15.7244 15.7244 -8.94979
611 1 1.57212 17.2969 17.2969 -8.9488
612 1 3.14277 15.7263 15.7263 -8.94476
613 1 4.71712 17.2969 17.297 -8.94985
614 1 6.28923 15.7256 15.7262 -8.95021
615 1 7.8621 17.2969 17.297 -8.94924
616 1 9.43466 15.7258 15.7258 -8.94588
617 1 11.007 17.297 17.297 -8.94927
618 1 12.5792 15.7252 15.7254 -8.95041
619 1 14.1518 17.2968 17.2969 -8.94999
620 1 15.7267 15.7267 15.7267 -8.94355
621 1 17.297 17.297 17.297 -8.94854
622 1 18.8695 15.7245 15.7245 -8.9498
623 1 20.4415 17.2967 17.2967 -8.94958
624 1 -4.70956e-05 18.8691 15.7242 -8.9497
625 1 1.57236 20.4415 17.2967 -8.94953
626 1 3.14449 18.8696 15.7246 -8.94923
627 1 4.71727 20.4415 17.2967 -8.94969
628 1 6.28974 18.8693 15.7244 -8.94974
629 1 7.8621 20.4415 17.2967 -8.9496
630 1 9.43454 18.8695 15.7245 -8.9495
631 1 11.007 20.4415 17.2967 -8.94961
632 1 12.5793 18.8693 15.7244 -8.94951
633 1 14.1518 20.4415 17.2967 -8.94964
634 1 15.7245 18.8696 15.7245 -8.94954
635 1 17.2967 20.4416 17.2967 -8.94958
636 1 18.8691 18.8691 15.7242 -8.94974
637 1 20.4415 20.4415 17.2966 -8.94967
638 1 1.57238 11.007 20.4415 -8.94963
639 1 4.71712 11.007 20.4417 -8.94979
640 1 7.86211 11.007 20.4418 -8.94992
641 1 11.0068 11.007 20.4414 -8.94956
642 1 14.152 11.007 20.4415 -8.94998
643 1 17.2967 11.007 20.4415 -8.94961
644 1 20.4415 11.007 20.4415 -8.94965
645 1 22.0139 12.5794 18.8691 -8.94965
646 1 1.57239 14.1518 20.4415 -8.9496
647 1 3.14463 12.5794 18.8694 -8.94945
648 1 4.71716 14.1519 20.4417 -8.94992
649 1 6.28953 12.5795 18.8703 -8.95132
650 1 7.86209 14.1519 20.4415 -8.95008
651 1 9.4346 12.5795 18.8696 -8.94894
652 1 11.0069 14.152 20.4415 -8.94994
653 1 12.5794 12.5794 18.8702 -8.95177
654 1 14.1519 14.1519 20.4415 -8.95035
655 1 15.7245 12.5794 18.8694 -8.94938
656 1 17.2967 14.1518 20.4415 -8.94956
657 1 18.8691 12.5794 18.8691 -8.94965
658 1 20.4415 14.1518 20.4415 -8.94964
659 1 -2.49208e-05 15.7242 18.8691 -8.94968
660 1 1.57238 17.2967 20.4415 -8.94962
661 1 3.14463 15.7244 18.8694 -8.94967
662 1 4.71722 17.2967 20.4415 -8.94971
663 1 6.28966 15.7244 18.8694 -8.94985
664 1 7.86208 17.2967 20.4415 -8.94956
665 1 9.43452 15.7245 18.8694 -8.94945
666 1 11.007 17.2967 20.4415 -8.9496
667 1 12.5794 15.7244 18.8693 -8.94953
668 1 14.1518 17.2967 20.4415 -8.94963
669 1 15.7245 15.7245 18.8695 -8.9498
670 1 17.2967 17.2967 20.4415 -8.94958
671 1 18.8691 15.7242 18.8691 -8.94969
672 1 20.4415 17.2966 20.4415 -8.94967
673 1 22.0139 18.8691 18.8691 -8.94951
674 1 1.57241 20.4415 20.4415 -8.94963
675 1 3.14481 18.8691 18.8691 -8.94968
676 1 4.71726 20.4415 20.4415 -8.94963
351 1 22.0139 12.5794 22.0139 -8.94964
355 1 6.28955 12.5794 22.0138 -8.94979
357 1 9.43441 12.5794 22.0134 -8.94981
359 1 12.5795 12.5794 22.0129 -8.95134
363 1 18.8691 12.5794 22.0139 -8.94965
365 1 22.0139 15.7242 22.0139 -8.94963
369 1 6.28955 15.7244 22.0136 -8.95004
375 1 15.7244 15.7244 22.0136 -8.94979
381 1 3.14479 18.8691 22.0138 -8.94957
371 1 9.43446 15.7245 22.0136 -8.94961
