ITEM: TIMESTEP
95
ITEM: NUMBER OF ATOMS
688
ITEM: BOX BOUNDS pp pp pp
0.0000000000000000e+00 2.2013900999999997e+01
0.0000000000000000e+00 2.2013900999999997e+01
0.0000000000000000e+00 2.2013900999999997e+01
ITEM: ATOMS id type x y z c_pot
193 1 11.0129 7.85553 11.0076 -9.05044
2 1 1.57217 1.57229 1.57219 -8.9495
175 1 18.8701 9.43412 9.43407 -8.95019
4 1 4.71698 1.57226 1.57212 -8.94963
174 1 15.7283 9.43279 9.43325 -8.95031
6 1 7.86197 1.57225 1.57211 -8.94961
173 1 12.59 9.42314 9.43102 -9.01454
8 1 11.007 1.57224 1.57212 -8.9496
172 1 9.41385 9.37548 9.43246 -9.2436
10 1 14.1521 1.57224 1.57214 -8.94962
171 1 6.28298 9.42818 9.4288 -9.03271
12 1 17.2969 1.57226 1.57219 -8.94955
13 1 18.8692 1.02395e-15 -2.80167e-06 -8.94951
14 1 20.4415 1.57231 1.57225 -8.94951
15 1 22.0138 3.14469 -9.21243e-06 -8.94957
16 1 1.57216 4.71704 1.57216 -8.94962
170 1 3.14136 9.43307 9.43303 -8.94892
18 1 4.71686 4.71688 1.57197 -8.94962
19 1 6.28947 3.1446 -7.55459e-05 -8.94963
20 1 7.86193 4.71682 1.57198 -8.94963
169 1 -0.000883103 9.43412 9.43404 -8.94999
22 1 11.007 4.71682 1.57198 -8.9496
23 1 12.5795 3.14457 -5.80563e-05 -8.94962
24 1 14.1521 4.71681 1.57202 -8.94974
168 1 18.8697 6.28899 9.43429 -8.94957
26 1 17.2971 4.71688 1.5721 -8.94946
27 1 18.8693 3.14463 -6.03847e-06 -8.94951
28 1 20.4416 4.71707 1.57223 -8.94962
167 1 15.7259 6.28805 9.4342 -8.94932
30 1 1.5722 7.86199 1.57219 -8.94962
31 1 3.14455 6.28949 -4.20369e-05 -8.94967
32 1 4.7169 7.86192 1.57202 -8.94977
166 1 12.5813 6.28518 9.43368 -8.95133
34 1 7.86171 7.86158 1.5716 -8.94967
165 1 9.43401 6.27555 9.43462 -8.96611
36 1 11.007 7.86167 1.57167 -8.94955
164 1 6.28765 6.28595 9.43356 -8.95022
38 1 14.1525 7.86147 1.57158 -8.94963
39 1 15.7247 6.28925 -0.000109579 -8.94959
40 1 17.297 7.86193 1.5722 -8.94968
163 1 3.14351 6.28851 9.43419 -8.94971
42 1 20.4416 7.862 1.57226 -8.9496
43 1 22.0138 9.43448 1.19199e-05 -8.94961
162 1 22.0135 6.28909 9.43429 -8.94962
161 1 18.8695 3.1444 9.43438 -8.94961
160 1 15.7252 3.14393 9.43431 -8.94958
47 1 12.5798 9.43424 -0.000448936 -8.95
159 1 12.5804 3.1428 9.43403 -8.94959
49 1 18.8693 9.43446 3.28648e-05 -8.9496
50 1 22.0138 1.62526e-15 3.14455 -8.94956
51 1 1.57204 1.57221 4.71682 -8.94959
52 1 3.14442 5.28703e-16 3.14437 -8.94951
53 1 4.71663 1.57202 4.71651 -8.94952
54 1 6.2894 2.56286e-15 3.14433 -8.94959
55 1 7.86186 1.57201 4.71654 -8.94954
56 1 9.4345 9.74166e-16 3.14433 -8.94959
57 1 11.0071 1.572 4.71654 -8.94954
58 1 12.5796 9.28337e-16 3.14434 -8.94959
59 1 14.1524 1.57201 4.71656 -8.94958
60 1 15.7246 2.00177e-15 3.14439 -8.94957
61 1 17.2971 1.57217 4.71681 -8.94957
62 1 18.8693 -2.23468e-16 3.14455 -8.94956
63 1 20.4415 1.57226 4.71694 -8.9496
64 1 -0.000161784 3.14458 3.14448 -8.94951
65 1 1.57185 4.71672 4.7166 -8.94945
66 1 3.14435 3.14445 3.14427 -8.94941
67 1 4.71625 4.7162 4.71608 -8.94891
68 1 6.28934 3.14439 3.14421 -8.94969
69 1 7.86179 4.7162 4.71626 -8.94986
70 1 9.43449 3.14434 3.14424 -8.94959
71 1 11.0072 4.71619 4.71623 -8.94948
72 1 12.5797 3.14435 3.14422 -8.94962
73 1 14.1527 4.71608 4.71619 -8.9495
74 1 15.7247 3.14436 3.14428 -8.94954
75 1 17.2973 4.71664 4.71658 -8.94936
76 1 18.8693 3.14455 3.14448 -8.94951
77 1 20.4416 4.71686 4.71677 -8.94954
78 1 22.0138 6.28947 3.14446 -8.94965
79 1 1.57193 7.86183 4.71663 -8.94967
80 1 3.14433 6.28931 3.14421 -8.94968
81 1 4.71638 7.86146 4.71608 -8.94983
82 1 6.28907 6.28895 3.14374 -8.94973
83 1 7.86128 7.86068 4.71518 -8.95088
84 1 9.43446 6.28886 3.14397 -8.9495
85 1 11.007 7.86117 4.71562 -8.95044
86 1 12.5797 6.28893 3.14393 -8.94999
87 1 14.1536 7.86028 4.71512 -8.94819
88 1 15.7251 6.28891 3.14393 -8.94919
89 1 17.2973 7.86178 4.71667 -8.95006
90 1 18.8694 6.28942 3.14445 -8.94971
91 1 20.4415 7.8619 4.7168 -8.94965
92 1 -0.000128327 9.43446 3.14449 -8.94959
93 1 3.14444 9.43442 3.14433 -8.94958
94 1 6.28927 9.4344 3.14404 -8.9501
95 1 9.43386 9.43361 3.14304 -8.94822
96 1 12.5805 9.43347 3.14252 -8.94934
97 1 15.7248 9.4344 3.14434 -8.94974
98 1 18.8693 9.43445 3.14451 -8.94959
99 1 -0.000176836 1.57167e-15 6.28939 -8.94961
100 1 1.57197 1.57217 7.86182 -8.94961
101 1 3.14425 -6.98714e-16 6.28917 -8.94956
102 1 4.71642 1.57184 7.86155 -8.94954
103 1 6.28906 1.66851e-15 6.2889 -8.94974
104 1 7.86155 1.57131 7.86137 -8.95002
105 1 9.4345 1.65608e-15 6.28894 -8.9496
106 1 11.0074 1.57136 7.86137 -8.94981
107 1 12.5799 1.07431e-15 6.28893 -8.94969
108 1 14.1526 1.57178 7.86154 -8.94964
109 1 15.7248 4.94885e-16 6.28917 -8.9496
110 1 17.2972 1.57212 7.8618 -8.94961
111 1 18.8693 5.16364e-16 6.28938 -8.94961
112 1 20.4415 1.57223 7.86189 -8.94961
113 1 22.0137 3.14449 6.28931 -8.94964
114 1 1.57177 4.71659 7.86169 -8.94969
115 1 3.14408 3.14418 6.28904 -8.94962
116 1 4.71592 4.71564 7.86124 -8.9498
117 1 6.28871 3.14341 6.28852 -8.94949
118 1 7.86056 4.71327 7.86033 -8.94951
119 1 9.43452 3.14345 6.28878 -8.94938
120 1 11.0081 4.71373 7.86053 -8.94845
121 1 12.5802 3.14348 6.28863 -8.94956
122 1 14.1532 4.7153 7.86123 -8.94987
123 1 15.725 3.14406 6.28902 -8.94958
124 1 17.2975 4.71645 7.86166 -8.94966
125 1 18.8694 3.14444 6.2893 -8.94963
126 1 20.4416 4.71677 7.86179 -8.94962
127 1 -0.000403785 6.28912 6.28904 -8.94963
128 1 1.57105 7.86121 7.86119 -8.94966
129 1 3.14341 6.28852 6.28849 -8.94923
130 1 4.71398 7.85942 7.85978 -8.94868
131 1 6.28735 6.28685 6.28707 -8.94687
132 1 7.85641 7.85406 7.85524 -8.97988
133 1 9.43468 6.28716 6.28859 -8.94928
134 1 11.0103 7.85691 7.85843 -8.99918
135 1 12.581 6.28692 6.28777 -8.94973
136 1 14.1556 7.85835 7.85976 -8.94631
137 1 15.7258 6.28827 6.28842 -8.94866
138 1 17.2983 7.86101 7.8612 -8.94969
139 1 18.8696 6.28905 6.28903 -8.94956
140 1 20.4416 7.86159 7.86154 -8.94984
141 1 22.0135 9.43435 6.28909 -8.94955
142 1 3.14382 9.43424 6.28875 -8.94985
143 1 6.2881 9.43385 6.28764 -8.95093
144 1 9.43271 9.43188 6.28795 -9.00378
145 1 12.5837 9.42935 6.28486 -8.9828
146 1 15.7252 9.43435 6.28912 -8.95147
147 1 18.8694 9.43437 6.28915 -8.94959
148 1 -0.000188845 1.70948e-15 9.43441 -8.94961
149 1 3.14418 4.62916e-16 9.43435 -8.94959
150 1 6.28885 1.15479e-15 9.43419 -8.94966
151 1 9.4345 1.30329e-15 9.43423 -8.95056
152 1 12.5801 8.00162e-16 9.43419 -8.94972
153 1 15.7249 6.06179e-16 9.43434 -8.94963
154 1 18.8694 1.21682e-16 9.43441 -8.9496
155 1 -0.00022786 3.14445 9.43439 -8.94961
156 1 3.14402 3.14412 9.43431 -8.9496
157 1 6.28848 3.14289 9.43403 -8.94928
158 1 9.43446 3.14112 9.43425 -8.95272
177 1 4.71638 1.57184 11.007 -8.9495
181 1 17.2972 1.5721 11.007 -8.94958
184 1 4.71582 4.71576 11.007 -8.94961
185 1 7.8597 4.71182 11.0074 -8.94763
188 1 17.2976 4.71641 11.007 -8.94957
190 1 1.57112 7.86142 11.0069 -8.94963
191 1 4.71429 7.86071 11.0072 -8.95154
192 1 7.85423 7.8533 11.0103 -9.03262
189 1 20.4416 4.71675 11.007 -8.94961
35 1 9.43445 6.2893 -0.000203083 -8.94961
45 1 6.28942 9.43444 -0.000151425 -8.94973
176 1 1.57195 1.57216 11.007 -8.94959
343 1 18.8694 9.43442 18.8695 -8.94957
178 1 7.86136 1.57091 11.0071 -8.95011
179 1 11.0076 1.57094 11.0071 -8.94996
180 1 14.1527 1.57176 11.007 -8.94964
342 1 15.725 9.43432 18.8697 -8.94951
182 1 20.4416 1.57222 11.007 -8.94961
183 1 1.57173 4.7166 11.007 -8.94959
341 1 12.5801 9.43415 18.8702 -8.95022
340 1 9.43438 9.43423 18.8694 -8.94895
186 1 11.009 4.71211 11.0073 -8.94675
187 1 14.1534 4.71528 11.0071 -8.94989
339 1 6.28923 9.43437 18.8697 -8.94991
48 1 15.7247 9.4344 22.0139 -8.94953
338 1 3.14442 9.43442 18.8695 -8.94958
337 1 -8.44224e-05 9.43444 18.8694 -8.94959
336 1 20.4416 7.86198 20.4417 -8.94959
335 1 18.8694 6.28939 18.8695 -8.94961
194 1 14.1561 7.85898 11.0079 -8.94872
195 1 17.2985 7.86114 11.0071 -8.94979
196 1 20.4417 7.8616 11.0069 -8.94974
197 1 -0.000187412 1.64671e-15 12.5795 -8.9496
198 1 1.57196 1.57217 14.1521 -8.94962
199 1 3.14418 1.11271e-15 12.5796 -8.94958
200 1 4.71638 1.57184 14.1525 -8.94952
201 1 6.28885 1.2053e-15 12.5799 -8.94972
202 1 7.86159 1.57142 14.1527 -8.94988
203 1 9.4345 1.09803e-15 12.5799 -8.95044
204 1 11.0074 1.57141 14.1527 -8.94986
205 1 12.5801 2.34838e-15 12.5799 -8.94969
206 1 14.1527 1.5718 14.1525 -8.94958
207 1 15.7249 1.18055e-15 12.5796 -8.94964
208 1 17.2972 1.5721 14.1522 -8.94961
209 1 18.8694 1.0038e-15 12.5795 -8.9496
210 1 20.4416 1.57223 14.152 -8.94961
211 1 22.0137 3.14446 12.5795 -8.94961
212 1 1.57174 4.7166 14.1523 -8.94969
213 1 3.144 3.14413 12.5797 -8.94963
214 1 4.71579 4.71567 14.1529 -8.9493
215 1 6.28842 3.14286 12.5802 -8.94935
216 1 7.86071 4.71383 14.1537 -8.9494
217 1 9.43451 3.14135 12.58 -8.9523
218 1 11.0083 4.71382 14.1537 -8.94896
219 1 12.5805 3.14284 12.5801 -8.94942
220 1 14.1533 4.71543 14.1529 -8.94987
221 1 15.7252 3.14393 12.5797 -8.94962
222 1 17.2976 4.71641 14.1524 -8.94953
223 1 18.8695 3.14439 12.5795 -8.94962
224 1 20.4416 4.71677 14.1521 -8.94963
225 1 -0.000365921 6.2891 12.5796 -8.94969
226 1 1.57119 7.86132 14.1526 -8.94955
227 1 3.14338 6.28852 12.5798 -8.94986
228 1 4.71447 7.8602 14.1535 -8.94963
229 1 6.287 6.28573 12.5812 -8.94787
230 1 7.85626 7.8558 14.1575 -8.98232
231 1 9.43469 6.27688 12.5804 -8.96456
232 1 11.0122 7.8565 14.1572 -8.98068
233 1 12.5815 6.28556 12.5808 -8.95066
234 1 14.156 7.85876 14.155 -8.94781
235 1 15.7261 6.28802 12.5801 -8.94905
236 1 17.2984 7.86118 14.1527 -8.94994
237 1 18.8698 6.28898 12.5797 -8.94962
238 1 20.4417 7.86161 14.1523 -8.94977
239 1 22.0131 9.43411 12.5798 -8.94987
240 1 3.14165 9.43323 12.5806 -8.9483
241 1 6.2847 9.43068 12.5834 -8.99851
242 1 9.43398 9.38234 12.6013 -9.26624
243 1 12.5882 9.42568 12.5871 -9.02663
244 1 15.7279 9.43324 12.5805 -8.95
245 1 18.8702 9.43411 12.5798 -8.94992
246 1 -0.000170103 9.12265e-16 15.7245 -8.94961
247 1 1.57204 1.57222 17.2971 -8.94955
248 1 3.14423 1.45548e-15 15.7248 -8.94953
249 1 4.71666 1.57205 17.2974 -8.94955
250 1 6.28909 -9.98692e-16 15.725 -8.9497
251 1 7.86188 1.57208 17.2973 -8.94951
252 1 9.4345 1.96371e-15 15.725 -8.94953
253 1 11.0071 1.57207 17.2973 -8.94951
254 1 12.5799 2.04994e-15 15.725 -8.9497
255 1 14.1524 1.57202 17.2974 -8.94955
256 1 15.7249 2.07495e-15 15.7248 -8.94959
257 1 17.2971 1.57216 17.2971 -8.94959
258 1 18.8694 8.04418e-16 15.7245 -8.9496
259 1 20.4416 1.57225 17.297 -8.94958
260 1 22.0137 3.14449 15.7246 -8.94962
261 1 1.57192 4.7168 17.2972 -8.94954
262 1 3.14406 3.14421 15.7249 -8.9495
263 1 4.7163 4.7163 17.2977 -8.94905
264 1 6.28876 3.14358 15.7254 -8.94957
265 1 7.86185 4.7165 17.2975 -8.94975
266 1 9.43451 3.14368 15.7252 -8.94923
267 1 11.0072 4.71647 17.2975 -8.94972
268 1 12.5803 3.14353 15.7254 -8.9495
269 1 14.1528 4.71617 17.2978 -8.94919
270 1 15.7251 3.14407 15.725 -8.94964
271 1 17.2974 4.71658 17.2974 -8.94936
272 1 18.8695 3.14442 15.7246 -8.9496
273 1 20.4416 4.71687 17.2971 -8.94958
274 1 -0.000316475 6.28917 15.7248 -8.94961
275 1 1.57196 7.86182 17.2972 -8.94964
276 1 3.1436 6.28876 15.7252 -8.94948
277 1 4.71637 7.86152 17.2977 -8.9494
278 1 6.28748 6.28725 15.7266 -8.94771
279 1 7.86175 7.86147 17.2978 -8.95133
280 1 9.43454 6.28805 15.7251 -8.94927
281 1 11.0071 7.8615 17.2979 -8.95112
282 1 12.5814 6.28719 15.7266 -8.94812
283 1 14.1532 7.86097 17.2984 -8.94922
284 1 15.726 6.28823 15.7257 -8.94893
285 1 17.2975 7.86169 17.2974 -8.94966
286 1 18.8697 6.28908 15.7249 -8.94966
287 1 20.4416 7.86186 17.2972 -8.94962
288 1 22.0136 9.43435 15.7248 -8.94963
289 1 3.14373 9.43425 15.7251 -8.94988
290 1 6.28777 9.43379 15.7262 -8.94919
291 1 9.43414 9.4345 15.7243 -8.99975
292 1 12.5826 9.43266 15.7283 -8.9483
293 1 15.7259 9.43411 15.7254 -8.94993
294 1 18.8697 9.43432 15.7249 -8.94963
295 1 22.0138 2.23124e-17 18.8693 -8.94954
296 1 1.57218 1.57229 20.4417 -8.9495
297 1 3.14444 -3.21706e-16 18.8695 -8.94953
298 1 4.717 1.57228 20.4417 -8.94963
299 1 6.28942 1.79487e-15 18.8695 -8.94958
300 1 7.86198 1.57227 20.4417 -8.9496
301 1 9.4345 1.34631e-15 18.8695 -8.94958
302 1 11.007 1.57226 20.4417 -8.9496
303 1 12.5796 -4.50867e-17 18.8695 -8.94958
304 1 14.152 1.57225 20.4417 -8.94963
305 1 15.7246 8.97392e-17 18.8695 -8.94954
306 1 17.297 1.57226 20.4417 -8.94954
307 1 18.8693 8.29253e-16 18.8694 -8.94956
308 1 20.4416 1.5723 20.4416 -8.94951
309 1 -0.000125834 3.1446 18.8694 -8.94955
310 1 1.57218 4.71705 20.4417 -8.9496
311 1 3.14436 3.14447 18.8696 -8.94942
312 1 4.71689 4.71693 20.4417 -8.94969
313 1 6.28939 3.14448 18.8696 -8.94968
314 1 7.86195 4.71691 20.4417 -8.94961
315 1 9.43449 3.14445 18.8695 -8.94959
316 1 11.007 4.71689 20.4417 -8.94961
317 1 12.5796 3.14444 18.8696 -8.94966
318 1 14.1521 4.71685 20.4418 -8.94971
319 1 15.7247 3.14438 18.8696 -8.94948
320 1 17.2971 4.71689 20.4417 -8.94952
321 1 18.8694 3.14453 18.8694 -8.94949
322 1 20.4416 4.71706 20.4417 -8.9496
323 1 22.0138 6.28946 18.8694 -8.94961
324 1 1.57221 7.86198 20.4417 -8.94961
325 1 3.14437 6.28934 18.8696 -8.94958
326 1 4.71691 7.86192 20.4417 -8.94969
327 1 6.28924 6.28919 18.8698 -8.95002
328 1 7.86187 7.8618 20.4416 -8.94978
329 1 9.43447 6.28913 18.8696 -8.94942
330 1 11.007 7.86179 20.4416 -8.9497
331 1 12.5797 6.28912 18.8698 -8.94997
332 1 14.1524 7.86167 20.4418 -8.94978
333 1 15.725 6.28905 18.8698 -8.94949
334 1 17.2971 7.8619 20.4418 -8.94959
3 1 3.1446 1.4081e-15 22.0139 -8.94961
5 1 6.2895 9.74268e-16 22.0139 -8.94961
7 1 9.4345 7.20208e-16 22.0139 -8.9496
9 1 12.5795 1.39416e-15 22.0139 -8.94961
11 1 15.7245 2.71418e-15 22.0139 -8.94961
17 1 3.14455 3.14462 22.0139 -8.9496
21 1 9.43449 3.14457 22.0138 -8.9496
25 1 15.7245 3.14456 22.0139 -8.94965
29 1 -6.36326e-05 6.28955 22.0139 -8.94961
33 1 6.28936 6.28934 22.0137 -8.94972
46 1 9.43433 9.43425 22.0134 -8.94958
37 1 12.5796 6.2893 22.0138 -8.9497
41 1 18.8693 6.2895 22.0139 -8.94963
44 1 3.14457 9.43447 22.0139 -8.94961
1 1 -8.99023e-05 1.21172e-15 22.0139 -8.94948
344 1 1.57222 11.007 1.57221 -8.94961
345 1 4.71693 11.007 1.57205 -8.94961
346 1 7.86192 11.007 1.57182 -8.94941
347 1 11.007 11.007 1.57039 -8.95216
348 1 14.1523 11.007 1.57184 -8.94926
349 1 17.297 11.007 1.57222 -8.9496
350 1 20.4416 11.007 1.57227 -8.9496
351 1 22.0138 12.5794 1.19199e-05 -8.94961
352 1 1.5722 14.1519 1.57219 -8.94962
688 2 10.1969 11.007 9.4254 0.758759
354 1 4.7169 14.152 1.57202 -8.94977
511 1 18.8695 18.8695 9.43438 -8.94961
356 1 7.86171 14.1523 1.5716 -8.94967
510 1 15.7252 18.87 9.43431 -8.94958
358 1 11.007 14.1522 1.57167 -8.94955
359 1 12.5798 12.5797 -0.000448936 -8.95
360 1 14.1525 14.1524 1.57158 -8.94963
509 1 12.5804 18.8711 9.43403 -8.94959
362 1 17.297 14.152 1.5722 -8.94968
363 1 18.8693 12.5794 3.28648e-05 -8.9496
364 1 20.4416 14.1519 1.57226 -8.9496
508 1 9.43446 18.8728 9.43425 -8.95272
366 1 1.57216 17.2969 1.57216 -8.94962
367 1 3.14455 15.7244 -4.20369e-05 -8.94967
368 1 4.71686 17.297 1.57197 -8.94962
507 1 6.28848 18.871 9.43403 -8.94928
370 1 7.86193 17.2971 1.57198 -8.94963
506 1 3.14402 18.8698 9.43431 -8.9496
372 1 11.007 17.2971 1.57198 -8.9496
505 1 -0.00022786 18.8694 9.43439 -8.94961
374 1 14.1521 17.2971 1.57202 -8.94974
375 1 15.7247 15.7247 -0.000109579 -8.94959
376 1 17.2971 17.297 1.5721 -8.94946
504 1 18.8697 15.7249 9.43429 -8.94957
378 1 20.4416 17.2968 1.57223 -8.94962
379 1 22.0138 18.8692 -9.21243e-06 -8.94957
380 1 1.57217 20.4416 1.57219 -8.9495
503 1 15.7259 15.7258 9.4342 -8.94932
382 1 4.71698 20.4416 1.57212 -8.94963
383 1 6.28947 18.8693 -7.55459e-05 -8.94963
384 1 7.86197 20.4417 1.57211 -8.94961
502 1 12.5813 15.7287 9.43368 -8.95133
386 1 11.007 20.4417 1.57212 -8.9496
387 1 12.5795 18.8693 -5.80563e-05 -8.94962
388 1 14.1521 20.4417 1.57214 -8.94962
501 1 9.43401 15.7383 9.43462 -8.96611
390 1 17.2969 20.4416 1.57219 -8.94955
391 1 18.8693 18.8693 -6.03847e-06 -8.94951
392 1 20.4415 20.4416 1.57225 -8.94951
393 1 1.57197 11.007 4.71669 -8.94955
394 1 4.71654 11.007 4.71634 -8.94894
395 1 7.86218 11.007 4.71627 -8.94988
396 1 11.0075 11.007 4.70797 -8.96334
397 1 14.1523 11.007 4.71644 -8.94918
398 1 17.2971 11.007 4.71673 -8.94942
399 1 20.4415 11.007 4.71682 -8.94958
400 1 -0.000128327 12.5794 3.14449 -8.94959
401 1 1.57193 14.1521 4.71663 -8.94967
402 1 3.14444 12.5795 3.14433 -8.94958
403 1 4.71638 14.1524 4.71608 -8.94983
404 1 6.28927 12.5795 3.14404 -8.9501
405 1 7.86128 14.1532 4.71518 -8.95088
406 1 9.43386 12.5803 3.14304 -8.94822
407 1 11.007 14.1527 4.71562 -8.95044
408 1 12.5805 12.5804 3.14252 -8.94934
409 1 14.1536 14.1536 4.71512 -8.94819
410 1 15.7248 12.5795 3.14434 -8.94974
411 1 17.2973 14.1521 4.71667 -8.95006
412 1 18.8693 12.5794 3.14451 -8.94959
413 1 20.4415 14.152 4.7168 -8.94965
414 1 22.0138 15.7244 3.14446 -8.94965
415 1 1.57185 17.2972 4.7166 -8.94945
416 1 3.14433 15.7246 3.14421 -8.94968
417 1 4.71625 17.2977 4.71608 -8.94891
418 1 6.28907 15.7249 3.14374 -8.94973
419 1 7.86179 17.2977 4.71626 -8.94986
420 1 9.43446 15.725 3.14397 -8.9495
421 1 11.0072 17.2977 4.71623 -8.94948
422 1 12.5797 15.725 3.14393 -8.94999
423 1 14.1527 17.2978 4.71619 -8.9495
424 1 15.7251 15.725 3.14393 -8.94919
425 1 17.2973 17.2973 4.71658 -8.94936
426 1 18.8694 15.7245 3.14445 -8.94971
427 1 20.4416 17.297 4.71677 -8.94954
428 1 -0.000161784 18.8693 3.14448 -8.94951
429 1 1.57204 20.4417 4.71682 -8.94959
430 1 3.14435 18.8695 3.14427 -8.94941
431 1 4.71663 20.4419 4.71651 -8.94952
432 1 6.28934 18.8695 3.14421 -8.94969
433 1 7.86186 20.4419 4.71654 -8.94954
434 1 9.43449 18.8696 3.14424 -8.94959
435 1 11.0071 20.4419 4.71654 -8.94954
436 1 12.5797 18.8695 3.14422 -8.94962
437 1 14.1524 20.4419 4.71656 -8.94958
438 1 15.7247 18.8695 3.14428 -8.94954
439 1 17.2971 20.4417 4.71681 -8.94957
440 1 18.8693 18.8693 3.14448 -8.94951
441 1 20.4415 20.4416 4.71694 -8.9496
442 1 1.57123 11.007 7.86138 -8.94931
443 1 4.71514 11.007 7.86121 -8.94965
444 1 7.85978 11.007 7.86022 -9.03622
445 1 11.0291 11.007 7.81739 -9.27
446 1 14.1516 11.007 7.86323 -9.00077
447 1 17.2976 11.007 7.8615 -8.94839
448 1 20.4415 11.007 7.86156 -8.94945
449 1 22.0135 12.5796 6.28909 -8.94955
450 1 1.57105 14.1527 7.86119 -8.94966
451 1 3.14382 12.5797 6.28875 -8.94985
452 1 4.71398 14.1545 7.85978 -8.94868
453 1 6.2881 12.58 6.28764 -8.95093
454 1 7.85641 14.1598 7.85524 -8.97988
455 1 9.43271 12.582 6.28795 -9.00378
456 1 11.0103 14.157 7.85843 -8.99918
457 1 12.5837 12.5846 6.28486 -8.9828
458 1 14.1556 14.1555 7.85976 -8.94631
459 1 15.7252 12.5796 6.28912 -8.95147
460 1 17.2983 14.1529 7.8612 -8.94969
461 1 18.8694 12.5795 6.28915 -8.94959
462 1 20.4416 14.1523 7.86154 -8.94984
463 1 -0.000403785 15.7248 6.28904 -8.94963
464 1 1.57177 17.2973 7.86169 -8.94969
465 1 3.14341 15.7254 6.28849 -8.94923
466 1 4.71592 17.2983 7.86124 -8.9498
467 1 6.28735 15.727 6.28707 -8.94687
468 1 7.86056 17.3006 7.86033 -8.94951
469 1 9.43468 15.7267 6.28859 -8.94928
470 1 11.0081 17.3002 7.86053 -8.94845
471 1 12.581 15.727 6.28777 -8.94973
472 1 14.1532 17.2986 7.86123 -8.94987
473 1 15.7258 15.7256 6.28842 -8.94866
474 1 17.2975 17.2975 7.86166 -8.94966
475 1 18.8696 15.7249 6.28903 -8.94956
476 1 20.4416 17.2971 7.86179 -8.94962
477 1 22.0137 18.8694 6.28931 -8.94964
478 1 1.57197 20.4417 7.86182 -8.94961
479 1 3.14408 18.8697 6.28904 -8.94962
480 1 4.71642 20.4421 7.86155 -8.94954
481 1 6.28871 18.8705 6.28852 -8.94949
482 1 7.86155 20.4426 7.86137 -8.95002
483 1 9.43452 18.8705 6.28878 -8.94938
484 1 11.0074 20.4425 7.86137 -8.94981
485 1 12.5802 18.8704 6.28863 -8.94956
486 1 14.1526 20.4421 7.86154 -8.94964
487 1 15.725 18.8698 6.28902 -8.94958
488 1 17.2972 20.4418 7.8618 -8.94961
489 1 18.8694 18.8695 6.2893 -8.94963
490 1 20.4415 20.4417 7.86189 -8.94961
491 1 -0.000883103 12.5798 9.43404 -8.94999
492 1 3.14136 12.5808 9.43303 -8.94892
493 1 6.28298 12.5857 9.4288 -9.03271
494 1 9.41385 12.6384 9.43246 -9.2436
495 1 12.59 12.5908 9.43102 -9.01454
496 1 15.7283 12.5811 9.43325 -8.95031
497 1 18.8701 12.5798 9.43407 -8.95019
498 1 22.0135 15.7248 9.43429 -8.94962
499 1 3.14351 15.7254 9.43419 -8.94971
500 1 6.28765 15.728 9.43356 -8.95022
512 1 1.56931 11.007 11.0069 -8.95302
514 1 7.79982 11.007 10.9886 -9.24278
516 1 14.1635 11.007 11.0053 -9.01344
519 1 1.57112 14.1525 11.0069 -8.94963
520 1 4.71429 14.1532 11.0072 -8.95154
521 1 7.85423 14.1606 11.0103 -9.03262
522 1 11.0129 14.1584 11.0076 -9.05044
527 1 4.71582 17.2981 11.007 -8.94961
528 1 7.8597 17.3021 11.0074 -8.94763
531 1 17.2976 17.2975 11.007 -8.94957
534 1 4.71638 20.4421 11.007 -8.9495
538 1 17.2972 20.4418 11.007 -8.94958
532 1 20.4416 17.2971 11.007 -8.94961
355 1 6.28942 12.5795 -0.000151425 -8.94973
371 1 9.43445 15.7246 -0.000203083 -8.94961
687 2 9.41703 11.007 11.786 0.74839
513 1 4.70377 11.007 11.0065 -8.96721
686 1 20.4416 20.4416 20.4416 -8.94951
515 1 11.0899 11.007 11.0333 -9.40265
685 1 18.8694 18.8694 18.8694 -8.94949
517 1 17.2998 11.007 11.0069 -8.95216
518 1 20.4416 11.007 11.0069 -8.95056
684 1 17.297 20.4416 20.4417 -8.94954
683 1 15.7247 18.8695 18.8696 -8.94948
682 1 14.152 20.4416 20.4417 -8.94963
681 1 12.5796 18.8695 18.8696 -8.94966
523 1 14.1561 14.1549 11.0079 -8.94872
524 1 17.2985 14.1528 11.0071 -8.94979
525 1 20.4417 14.1523 11.0069 -8.94974
526 1 1.57173 17.2973 11.007 -8.94959
680 1 11.007 20.4416 20.4417 -8.9496
679 1 9.43449 18.8695 18.8695 -8.94959
529 1 11.009 17.3018 11.0073 -8.94675
530 1 14.1534 17.2986 11.0071 -8.94989
678 1 7.86198 20.4416 20.4417 -8.9496
389 1 15.7245 18.8693 22.0139 -8.94965
533 1 1.57195 20.4417 11.007 -8.94959
677 1 6.28939 18.8694 18.8696 -8.94968
535 1 7.86136 20.443 11.0071 -8.95011
536 1 11.0076 20.443 11.0071 -8.94996
537 1 14.1527 20.4421 11.007 -8.94964
676 1 4.717 20.4416 20.4417 -8.94963
539 1 20.4416 20.4417 11.007 -8.94961
540 1 1.57127 11.007 14.1524 -8.9495
541 1 4.71485 11.007 14.1525 -8.94998
542 1 7.85775 11.007 14.156 -8.98401
543 1 11.0139 11.007 14.1648 -9.00065
544 1 14.155 11.007 14.1532 -8.95068
545 1 17.2983 11.007 14.1525 -8.94949
546 1 20.4417 11.007 14.1523 -8.94965
547 1 22.0131 12.5798 12.5798 -8.94987
548 1 1.57119 14.1526 14.1526 -8.94955
549 1 3.14165 12.5807 12.5806 -8.9483
550 1 4.71447 14.1537 14.1535 -8.94963
551 1 6.2847 12.5832 12.5834 -8.99851
552 1 7.85626 14.1581 14.1575 -8.98232
553 1 9.43398 12.6316 12.6013 -9.26624
554 1 11.0122 14.1574 14.1572 -8.98068
555 1 12.5882 12.5882 12.5871 -9.02663
556 1 14.156 14.1551 14.155 -8.94781
557 1 15.7279 12.5807 12.5805 -8.95
558 1 17.2984 14.1527 14.1527 -8.94994
559 1 18.8702 12.5798 12.5798 -8.94992
560 1 20.4417 14.1523 14.1523 -8.94977
561 1 -0.000365921 15.7248 12.5796 -8.94969
562 1 1.57174 17.2973 14.1523 -8.94969
563 1 3.14338 15.7254 12.5798 -8.94986
564 1 4.71579 17.2982 14.1529 -8.9493
565 1 6.287 15.7282 12.5812 -8.94787
566 1 7.86071 17.3001 14.1537 -8.9494
567 1 9.43469 15.737 12.5804 -8.96456
568 1 11.0083 17.3001 14.1537 -8.94896
569 1 12.5815 15.7283 12.5808 -8.95066
570 1 14.1533 17.2985 14.1529 -8.94987
571 1 15.7261 15.7259 12.5801 -8.94905
572 1 17.2976 17.2975 14.1524 -8.94953
573 1 18.8698 15.7249 12.5797 -8.94962
574 1 20.4416 17.2971 14.1521 -8.94963
575 1 22.0137 18.8694 12.5795 -8.94961
576 1 1.57196 20.4417 14.1521 -8.94962
577 1 3.144 18.8698 12.5797 -8.94963
578 1 4.71638 20.4421 14.1525 -8.94952
579 1 6.28842 18.871 12.5802 -8.94935
580 1 7.86159 20.4425 14.1527 -8.94988
581 1 9.43451 18.8726 12.58 -8.9523
582 1 11.0074 20.4425 14.1527 -8.94986
583 1 12.5805 18.8711 12.5801 -8.94942
584 1 14.1527 20.4421 14.1525 -8.94958
585 1 15.7252 18.87 12.5797 -8.94962
586 1 17.2972 20.4418 14.1522 -8.94961
587 1 18.8695 18.8695 12.5795 -8.94962
588 1 20.4416 20.4417 14.152 -8.94961
589 1 1.57197 11.007 17.2972 -8.94955
590 1 4.71641 11.007 17.2974 -8.94904
591 1 7.86179 11.007 17.2976 -8.95057
592 1 11.0075 11.007 17.2992 -8.95335
593 1 14.1531 11.007 17.298 -8.94878
594 1 17.2975 11.007 17.2974 -8.94952
595 1 20.4417 11.007 17.2971 -8.9496
596 1 22.0136 12.5796 15.7248 -8.94963
597 1 1.57196 14.1521 17.2972 -8.94964
598 1 3.14373 12.5797 15.7251 -8.94988
599 1 4.71637 14.1524 17.2977 -8.9494
600 1 6.28777 12.5801 15.7262 -8.94919
601 1 7.86175 14.1524 17.2978 -8.95133
602 1 9.43414 12.5794 15.7243 -8.99975
603 1 11.0071 14.1524 17.2979 -8.95112
604 1 12.5826 12.5812 15.7283 -8.9483
605 1 14.1532 14.1529 17.2984 -8.94922
606 1 15.7259 12.5798 15.7254 -8.94993
607 1 17.2975 14.1522 17.2974 -8.94966
608 1 18.8697 12.5796 15.7249 -8.94963
609 1 20.4416 14.152 17.2972 -8.94962
610 1 -0.000316475 15.7247 15.7248 -8.94961
611 1 1.57192 17.2971 17.2972 -8.94954
612 1 3.1436 15.7251 15.7252 -8.94948
613 1 4.7163 17.2976 17.2977 -8.94905
614 1 6.28748 15.7266 15.7266 -8.94771
615 1 7.86185 17.2974 17.2975 -8.94975
616 1 9.43454 15.7259 15.7251 -8.94927
617 1 11.0072 17.2974 17.2975 -8.94972
618 1 12.5814 15.7267 15.7266 -8.94812
619 1 14.1528 17.2977 17.2978 -8.94919
620 1 15.726 15.7257 15.7257 -8.94893
621 1 17.2974 17.2973 17.2974 -8.94936
622 1 18.8697 15.7248 15.7249 -8.94966
623 1 20.4416 17.297 17.2971 -8.94958
624 1 22.0137 18.8694 15.7246 -8.94962
625 1 1.57204 20.4417 17.2971 -8.94955
626 1 3.14406 18.8697 15.7249 -8.9495
627 1 4.71666 20.4418 17.2974 -8.94955
628 1 6.28876 18.8703 15.7254 -8.94957
629 1 7.86188 20.4418 17.2973 -8.94951
630 1 9.43451 18.8702 15.7252 -8.94923
631 1 11.0071 20.4418 17.2973 -8.94951
632 1 12.5803 18.8704 15.7254 -8.9495
633 1 14.1524 20.4419 17.2974 -8.94955
634 1 15.7251 18.8698 15.725 -8.94964
635 1 17.2971 20.4417 17.2971 -8.94959
636 1 18.8695 18.8695 15.7246 -8.9496
637 1 20.4416 20.4416 17.297 -8.94958
638 1 1.57223 11.007 20.4417 -8.9496
639 1 4.71692 11.007 20.4417 -8.9496
640 1 7.86194 11.007 20.4415 -8.94968
641 1 11.007 11.007 20.4416 -8.95053
642 1 14.1524 11.007 20.4418 -8.94953
643 1 17.2971 11.007 20.4418 -8.94958
644 1 20.4416 11.007 20.4417 -8.94959
645 1 -8.44224e-05 12.5795 18.8694 -8.94959
646 1 1.57221 14.1519 20.4417 -8.94961
647 1 3.14442 12.5795 18.8695 -8.94958
648 1 4.71691 14.152 20.4417 -8.94969
649 1 6.28923 12.5795 18.8697 -8.94991
650 1 7.86187 14.1521 20.4416 -8.94978
651 1 9.43438 12.5797 18.8694 -8.94895
652 1 11.007 14.1521 20.4416 -8.9497
653 1 12.5801 12.5798 18.8702 -8.95022
654 1 14.1524 14.1522 20.4418 -8.94978
655 1 15.725 12.5796 18.8697 -8.94951
656 1 17.2971 14.152 20.4418 -8.94959
657 1 18.8694 12.5795 18.8695 -8.94957
658 1 20.4416 14.1519 20.4417 -8.94959
659 1 22.0138 15.7244 18.8694 -8.94961
660 1 1.57218 17.2968 20.4417 -8.9496
661 1 3.14437 15.7246 18.8696 -8.94958
662 1 4.71689 17.297 20.4417 -8.94969
663 1 6.28924 15.7247 18.8698 -8.95002
664 1 7.86195 17.297 20.4417 -8.94961
665 1 9.43447 15.7248 18.8696 -8.94942
666 1 11.007 17.297 20.4417 -8.94961
667 1 12.5797 15.7248 18.8698 -8.94997
668 1 14.1521 17.297 20.4418 -8.94971
669 1 15.725 15.7249 18.8698 -8.94949
670 1 17.2971 17.297 20.4417 -8.94952
671 1 18.8694 15.7245 18.8695 -8.94961
672 1 20.4416 17.2968 20.4417 -8.9496
673 1 -0.000125834 18.8693 18.8694 -8.94955
674 1 1.57218 20.4416 20.4417 -8.9495
675 1 3.14436 18.8694 18.8696 -8.94942
353 1 3.14457 12.5794 22.0139 -8.94961
385 1 9.43449 18.8693 22.0138 -8.9496
357 1 9.43433 12.5797 22.0134 -8.94958
361 1 15.7247 12.5795 22.0139 -8.94953
365 1 -6.36326e-05 15.7243 22.0139 -8.94961
369 1 6.28936 15.7246 22.0137 -8.94972
381 1 3.14455 18.8693 22.0139 -8.9496
373 1 12.5796 15.7246 22.0138 -8.9497
377 1 18.8693 15.7244 22.0139 -8.94963
