ITEM: TIMESTEP
48
ITEM: NUMBER OF ATOMS
688
ITEM: BOX BOUNDS pp pp pp
0.0000000000000000e+00 2.2013900999999997e+01
0.0000000000000000e+00 2.2013900999999997e+01
0.0000000000000000e+00 2.2013900999999997e+01
ITEM: ATOMS id type x y z c_pot
193 1 11.009 7.86163 11.0063 -9.05492
2 1 1.57242 1.57242 1.57242 -8.94963
175 1 18.8691 9.43453 9.43451 -8.94982
4 1 4.71726 1.57242 1.57242 -8.94963
174 1 15.7251 9.43423 9.43429 -8.95025
6 1 7.86211 1.57242 1.57242 -8.94963
173 1 12.5857 9.42795 9.43296 -9.01682
8 1 11.007 1.57242 1.57242 -8.94963
172 1 9.4147 9.38737 9.42963 -9.25128
10 1 14.1518 1.57242 1.57242 -8.94963
171 1 6.28889 9.43287 9.43252 -9.03348
12 1 17.2966 1.57242 1.57242 -8.94963
13 1 18.8691 4.31077e-16 3.54649e-09 -8.94963
14 1 20.4415 1.57242 1.57242 -8.94963
15 1 22.0139 3.14484 2.03054e-08 -8.94963
16 1 1.57242 4.71726 1.57242 -8.94963
170 1 3.14462 9.4343 9.43433 -8.94876
18 1 4.71726 4.71726 1.57242 -8.94963
19 1 6.28969 3.14484 8.14876e-08 -8.94963
20 1 7.86211 4.71726 1.57242 -8.94964
169 1 -1.61147e-05 9.43452 9.43452 -8.94964
22 1 11.007 4.71726 1.57242 -8.94963
23 1 12.5794 3.14484 -5.22637e-08 -8.94963
24 1 14.1518 4.71726 1.57242 -8.94965
168 1 18.8691 6.28969 9.43453 -8.94962
26 1 17.2966 4.71726 1.57242 -8.94963
27 1 18.8691 3.14484 3.66687e-09 -8.94963
28 1 20.4415 4.71726 1.57242 -8.94963
167 1 15.7242 6.28966 9.43454 -8.94964
30 1 1.57242 7.86211 1.57242 -8.94964
31 1 3.14484 6.28969 4.38408e-07 -8.94963
32 1 4.71726 7.8621 1.57242 -8.94964
166 1 12.5795 6.28902 9.43446 -8.95127
34 1 7.86209 7.86209 1.57239 -8.94962
165 1 9.43452 6.28439 9.43448 -8.96249
36 1 11.007 7.86211 1.57243 -8.94963
164 1 6.28983 6.2897 9.43445 -8.95061
38 1 14.1518 7.86209 1.5724 -8.94959
39 1 15.7242 6.28968 -7.96708e-07 -8.94962
40 1 17.2966 7.86211 1.57242 -8.94965
163 1 3.14487 6.28968 9.43454 -8.94969
42 1 20.4415 7.86211 1.57242 -8.94963
43 1 22.0139 9.43453 -1.25814e-08 -8.94963
162 1 22.0139 6.28969 9.43453 -8.94964
161 1 18.8691 3.14484 9.43453 -8.94963
160 1 15.7242 3.14484 9.43453 -8.94962
47 1 12.5794 9.43452 -1.32397e-05 -8.94967
159 1 12.5794 3.14479 9.43451 -8.94971
49 1 18.8691 9.43453 -1.79263e-07 -8.94963
50 1 22.0139 1.18935e-15 3.14484 -8.94963
51 1 1.57242 1.57242 4.71726 -8.94963
52 1 3.14484 3.48918e-16 3.14484 -8.94963
53 1 4.71726 1.57242 4.71726 -8.94962
54 1 6.28969 6.4638e-16 3.14484 -8.94963
55 1 7.86211 1.57242 4.71727 -8.94964
56 1 9.43453 1.30279e-15 3.14484 -8.94963
57 1 11.0069 1.57242 4.71727 -8.94964
58 1 12.5794 1.46816e-15 3.14484 -8.94963
59 1 14.1518 1.57242 4.71726 -8.94963
60 1 15.7242 1.68575e-15 3.14484 -8.94963
61 1 17.2966 1.57242 4.71726 -8.94963
62 1 18.8691 1.29095e-15 3.14484 -8.94963
63 1 20.4415 1.57242 4.71726 -8.94963
64 1 1.36936e-07 3.14484 3.14484 -8.94963
65 1 1.57242 4.71727 4.71727 -8.94964
66 1 3.14484 3.14484 3.14484 -8.94963
67 1 4.71725 4.71725 4.71725 -8.94953
68 1 6.28969 3.14484 3.14484 -8.94965
69 1 7.86212 4.71728 4.71727 -8.94979
70 1 9.43453 3.14484 3.14484 -8.94963
71 1 11.0069 4.71727 4.71725 -8.94965
72 1 12.5794 3.14484 3.14484 -8.94964
73 1 14.1518 4.71725 4.71725 -8.9496
74 1 15.7242 3.14484 3.14484 -8.94963
75 1 17.2966 4.71726 4.71726 -8.94961
76 1 18.8691 3.14484 3.14484 -8.94963
77 1 20.4415 4.71726 4.71726 -8.94963
78 1 22.0139 6.28969 3.14484 -8.94963
79 1 1.57242 7.86211 4.71726 -8.94964
80 1 3.14484 6.28968 3.14484 -8.94962
81 1 4.71722 7.86206 4.71722 -8.94951
82 1 6.28967 6.28967 3.14482 -8.94962
83 1 7.862 7.862 4.71694 -8.95012
84 1 9.43454 6.28967 3.14485 -8.94963
85 1 11.0069 7.86219 4.71723 -8.95037
86 1 12.5794 6.28969 3.14485 -8.94977
87 1 14.1519 7.86195 4.71709 -8.94892
88 1 15.7242 6.28968 3.14483 -8.94957
89 1 17.2966 7.86212 4.71728 -8.94974
90 1 18.8691 6.28969 3.14484 -8.94964
91 1 20.4415 7.86211 4.71727 -8.94964
92 1 -1.75185e-08 9.43453 3.14484 -8.94963
93 1 3.14484 9.43453 3.14485 -8.94965
94 1 6.28965 9.43452 3.14479 -8.94977
95 1 9.43435 9.43435 3.14459 -8.94896
96 1 12.5796 9.43434 3.14461 -8.94916
97 1 15.7242 9.43456 3.14488 -8.94975
98 1 18.8691 9.43453 3.14484 -8.94963
99 1 -2.64968e-08 8.63502e-16 6.28969 -8.94963
100 1 1.57242 1.57242 7.86211 -8.94963
101 1 3.14484 1.55158e-16 6.28969 -8.94963
102 1 4.71726 1.57242 7.86211 -8.94963
103 1 6.28968 2.14643e-16 6.28968 -8.94964
104 1 7.8621 1.5724 7.8621 -8.94967
105 1 9.43453 1.09647e-15 6.28969 -8.94962
106 1 11.007 1.5724 7.86209 -8.94966
107 1 12.5794 9.99593e-16 6.28968 -8.94964
108 1 14.1518 1.57242 7.86211 -8.94964
109 1 15.7242 1.39203e-15 6.28969 -8.94963
110 1 17.2966 1.57242 7.86211 -8.94963
111 1 18.8691 1.98755e-15 6.28969 -8.94963
112 1 20.4415 1.57242 7.86211 -8.94963
113 1 22.0139 3.14484 6.28969 -8.94963
114 1 1.57242 4.71726 7.86211 -8.94964
115 1 3.14484 3.14485 6.28969 -8.94965
116 1 4.71727 4.71728 7.86212 -8.94975
117 1 6.28966 3.14481 6.28966 -8.94959
118 1 7.86189 4.71695 7.86187 -8.94927
119 1 9.43453 3.14485 6.28969 -8.9496
120 1 11.0072 4.71696 7.86187 -8.94891
121 1 12.5794 3.14481 6.28966 -8.94961
122 1 14.1518 4.71719 7.86209 -8.94975
123 1 15.7242 3.14484 6.28968 -8.94963
124 1 17.2966 4.71727 7.86211 -8.94967
125 1 18.8691 3.14484 6.28969 -8.94964
126 1 20.4415 4.71726 7.86211 -8.94963
127 1 1.97939e-07 6.28969 6.28969 -8.94963
128 1 1.5724 7.86209 7.86209 -8.94959
129 1 3.14483 6.28969 6.28969 -8.94964
130 1 4.71706 7.86203 7.86202 -8.94957
131 1 6.28945 6.28945 6.28945 -8.94856
132 1 7.8598 7.8602 7.85877 -8.98139
133 1 9.43461 6.28969 6.28975 -8.95014
134 1 11.0087 7.86114 7.86072 -9.00098
135 1 12.5795 6.28938 6.28954 -8.94973
136 1 14.1526 7.86136 7.86161 -8.94761
137 1 15.7243 6.28963 6.28962 -8.94935
138 1 17.2967 7.86205 7.86206 -8.94965
139 1 18.8691 6.28968 6.28968 -8.94962
140 1 20.4415 7.8621 7.8621 -8.94965
141 1 22.0139 9.43453 6.28969 -8.94965
142 1 3.1448 9.43453 6.28967 -8.94984
143 1 6.28911 9.43429 6.28908 -8.94922
144 1 9.43324 9.43387 6.28889 -9.00444
145 1 12.5811 9.43207 6.28848 -8.98378
146 1 15.7242 9.43465 6.28981 -8.95056
147 1 18.869 9.43454 6.28969 -8.94964
148 1 9.74671e-09 4.49128e-16 9.43453 -8.94963
149 1 3.14484 6.75223e-16 9.43453 -8.94964
150 1 6.28968 -8.42475e-16 9.43453 -8.94962
151 1 9.43453 1.21074e-15 9.43453 -8.94982
152 1 12.5794 1.03171e-15 9.43453 -8.94964
153 1 15.7242 9.63499e-16 9.43453 -8.94963
154 1 18.8691 4.86142e-16 9.43453 -8.94963
155 1 -1.75629e-07 3.14484 9.43453 -8.94963
156 1 3.14484 3.14484 9.43453 -8.94964
157 1 6.28967 3.14484 9.43451 -8.94952
158 1 9.43453 3.14447 9.43454 -8.95113
177 1 4.71727 1.57243 11.007 -8.94964
181 1 17.2966 1.57242 11.007 -8.94963
184 1 4.71727 4.7173 11.0069 -8.94976
185 1 7.86171 4.71679 11.007 -8.94824
188 1 17.2966 4.71727 11.0069 -8.94965
190 1 1.57244 7.86211 11.0069 -8.94962
191 1 4.71729 7.86231 11.0069 -8.95106
192 1 7.85959 7.86062 11.0082 -9.03602
189 1 20.4415 4.71726 11.007 -8.94963
35 1 9.43453 6.28969 1.64324e-07 -8.94964
45 1 6.28968 9.43453 2.35784e-06 -8.94967
176 1 1.57242 1.57242 11.007 -8.94963
343 1 18.8691 9.43453 18.8691 -8.94963
178 1 7.86208 1.57238 11.007 -8.94965
179 1 11.007 1.57238 11.007 -8.94964
180 1 14.1518 1.57242 11.007 -8.94966
342 1 15.7242 9.43453 18.8691 -8.94966
182 1 20.4415 1.57242 11.007 -8.94963
183 1 1.57242 4.71726 11.007 -8.94963
341 1 12.5794 9.43449 18.8692 -8.94974
340 1 9.43452 9.43449 18.869 -8.94925
186 1 11.0073 4.71681 11.007 -8.94785
187 1 14.1518 4.7172 11.007 -8.94978
339 1 6.28965 9.4345 18.8691 -8.94974
48 1 15.7242 9.43453 22.0139 -8.94963
338 1 3.14484 9.43453 18.8691 -8.94966
337 1 1.8644e-07 9.43453 18.8691 -8.94963
336 1 20.4415 7.86211 20.4415 -8.94963
335 1 18.8691 6.28969 18.8691 -8.94963
194 1 14.1525 7.86158 11.0074 -8.94909
195 1 17.2967 7.86208 11.007 -8.94971
196 1 20.4415 7.86211 11.007 -8.94964
197 1 -1.46692e-08 9.47758e-16 12.5794 -8.94963
198 1 1.57242 1.57242 14.1518 -8.94963
199 1 3.14484 1.01375e-15 12.5794 -8.94964
200 1 4.71726 1.57242 14.1518 -8.94963
201 1 6.28968 1.55284e-15 12.5794 -8.94962
202 1 7.8621 1.5724 14.1518 -8.94966
203 1 9.43453 1.66528e-15 12.5794 -8.9498
204 1 11.007 1.5724 14.1518 -8.94965
205 1 12.5794 1.49368e-15 12.5794 -8.94963
206 1 14.1518 1.57242 14.1518 -8.94963
207 1 15.7242 1.06172e-15 12.5794 -8.94964
208 1 17.2966 1.57242 14.1518 -8.94963
209 1 18.8691 -1.05909e-16 12.5794 -8.94963
210 1 20.4415 1.57242 14.1518 -8.94963
211 1 22.0139 3.14484 12.5794 -8.94963
212 1 1.57242 4.71727 14.1518 -8.94965
213 1 3.14484 3.14484 12.5794 -8.94964
214 1 4.71726 4.71726 14.1518 -8.9497
215 1 6.28967 3.14483 12.5794 -8.94956
216 1 7.86192 4.71703 14.152 -8.94929
217 1 9.43453 3.14451 12.5794 -8.95098
218 1 11.0071 4.71703 14.152 -8.94913
219 1 12.5794 3.14482 12.5794 -8.94959
220 1 14.1518 4.71726 14.1518 -8.94977
221 1 15.7242 3.14484 12.5794 -8.94963
222 1 17.2966 4.71726 14.1518 -8.94962
223 1 18.8691 3.14484 12.5794 -8.94964
224 1 20.4415 4.71726 14.1518 -8.94963
225 1 3.55248e-06 6.28969 12.5794 -8.94964
226 1 1.57238 7.86208 14.1518 -8.9496
227 1 3.14486 6.28969 12.5793 -8.94972
228 1 4.71695 7.86196 14.1519 -8.94974
229 1 6.28962 6.28953 12.5795 -8.9495
230 1 7.85943 7.86076 14.1539 -8.98324
231 1 9.43462 6.28494 12.5793 -8.96206
232 1 11.0095 7.861 14.1536 -8.98295
233 1 12.5793 6.28945 12.5794 -8.95081
234 1 14.1523 7.8618 14.1521 -8.94893
235 1 15.7243 6.28963 12.5794 -8.94942
236 1 17.2967 7.8621 14.1518 -8.94969
237 1 18.8691 6.28968 12.5794 -8.94963
238 1 20.4415 7.86211 14.1518 -8.94964
239 1 22.0139 9.43452 12.5794 -8.94965
240 1 3.14453 9.4343 12.5796 -8.94884
241 1 6.28867 9.43343 12.5814 -9.00079
242 1 9.43382 9.3909 12.6003 -9.273
243 1 12.5821 9.43071 12.5824 -9.03152
244 1 15.7245 9.43439 12.5795 -8.94955
245 1 18.8691 9.43452 12.5794 -8.94964
246 1 4.92398e-09 1.15999e-15 15.7242 -8.94963
247 1 1.57242 1.57242 17.2966 -8.94963
248 1 3.14484 7.12506e-16 15.7242 -8.94963
249 1 4.71726 1.57242 17.2966 -8.94963
250 1 6.28968 -3.17375e-16 15.7242 -8.94964
251 1 7.86211 1.57243 17.2966 -8.94963
252 1 9.43453 1.52673e-15 15.7242 -8.94961
253 1 11.0069 1.57243 17.2966 -8.94963
254 1 12.5794 1.28591e-15 15.7242 -8.94964
255 1 14.1518 1.57242 17.2966 -8.94963
256 1 15.7242 1.77299e-15 15.7242 -8.94963
257 1 17.2966 1.57242 17.2966 -8.94963
258 1 18.8691 1.6993e-15 15.7242 -8.94963
259 1 20.4415 1.57242 17.2966 -8.94963
260 1 22.0139 3.14484 15.7242 -8.94963
261 1 1.57242 4.71726 17.2966 -8.94963
262 1 3.14484 3.14484 15.7242 -8.94964
263 1 4.71726 4.71725 17.2966 -8.94956
264 1 6.28967 3.14482 15.7242 -8.9496
265 1 7.86213 4.7173 17.2966 -8.94977
266 1 9.43453 3.14487 15.7242 -8.94954
267 1 11.0069 4.7173 17.2966 -8.94976
268 1 12.5794 3.14482 15.7242 -8.94959
269 1 14.1518 4.71725 17.2966 -8.94958
270 1 15.7242 3.14484 15.7242 -8.94965
271 1 17.2966 4.71726 17.2966 -8.94963
272 1 18.8691 3.14484 15.7242 -8.94963
273 1 20.4415 4.71726 17.2966 -8.94963
274 1 -2.50078e-06 6.28968 15.7242 -8.94962
275 1 1.57242 7.8621 17.2966 -8.94964
276 1 3.14482 6.28967 15.7242 -8.9496
277 1 4.71721 7.86204 17.2967 -8.94941
278 1 6.2895 6.28949 15.7244 -8.9488
279 1 7.86219 7.8622 17.2967 -8.95039
280 1 9.43454 6.28997 15.724 -8.95021
281 1 11.0069 7.86222 17.2966 -8.95038
282 1 12.5795 6.2895 15.7244 -8.94898
283 1 14.1519 7.86203 17.2967 -8.94937
284 1 15.7242 6.28967 15.7242 -8.94953
285 1 17.2966 7.86211 17.2966 -8.94965
286 1 18.8691 6.28969 15.7242 -8.94963
287 1 20.4415 7.86211 17.2966 -8.94963
288 1 22.0139 9.43453 15.7242 -8.94965
289 1 3.14478 9.43451 15.7242 -8.94979
290 1 6.28906 9.43416 15.725 -8.94848
291 1 9.43436 9.43541 15.7239 -8.99977
292 1 12.5802 9.43398 15.7252 -8.94798
293 1 15.7243 9.43454 15.7242 -8.94988
294 1 18.8691 9.43453 15.7242 -8.94965
295 1 22.0139 4.26849e-16 18.8691 -8.94963
296 1 1.57242 1.57242 20.4415 -8.94963
297 1 3.14484 7.46983e-16 18.8691 -8.94963
298 1 4.71726 1.57242 20.4415 -8.94963
299 1 6.28969 7.11789e-16 18.8691 -8.94963
300 1 7.86211 1.57242 20.4415 -8.94963
301 1 9.43453 7.84544e-16 18.8691 -8.94963
302 1 11.007 1.57242 20.4415 -8.94963
303 1 12.5794 3.88705e-16 18.8691 -8.94963
304 1 14.1518 1.57242 20.4415 -8.94963
305 1 15.7242 1.71335e-15 18.8691 -8.94963
306 1 17.2966 1.57242 20.4415 -8.94963
307 1 18.8691 9.26777e-16 18.8691 -8.94963
308 1 20.4415 1.57242 20.4415 -8.94963
309 1 -3.88158e-09 3.14484 18.8691 -8.94963
310 1 1.57242 4.71726 20.4415 -8.94963
311 1 3.14484 3.14484 18.8691 -8.94963
312 1 4.71727 4.71727 20.4415 -8.94964
313 1 6.28969 3.14485 18.8691 -8.94965
314 1 7.86211 4.71726 20.4415 -8.94963
315 1 9.43453 3.14484 18.8691 -8.94963
316 1 11.007 4.71726 20.4415 -8.94963
317 1 12.5794 3.14485 18.8691 -8.94965
318 1 14.1518 4.71727 20.4415 -8.94964
319 1 15.7242 3.14484 18.8691 -8.94963
320 1 17.2966 4.71726 20.4415 -8.94963
321 1 18.8691 3.14484 18.8691 -8.94963
322 1 20.4415 4.71726 20.4415 -8.94963
323 1 22.0139 6.28969 18.8691 -8.94963
324 1 1.57242 7.86211 20.4415 -8.94964
325 1 3.14484 6.28968 18.8691 -8.94961
326 1 4.71726 7.8621 20.4415 -8.94963
327 1 6.2897 6.2897 18.8691 -8.94971
328 1 7.86211 7.86211 20.4415 -8.94964
329 1 9.43453 6.28968 18.869 -8.94955
330 1 11.0069 7.86211 20.4415 -8.94963
331 1 12.5794 6.2897 18.869 -8.94972
332 1 14.1518 7.8621 20.4415 -8.94963
333 1 15.7242 6.28968 18.8691 -8.9496
334 1 17.2966 7.86211 20.4415 -8.94964
3 1 3.14484 1.74716e-15 22.0139 -8.94963
5 1 6.28969 1.29877e-15 22.0139 -8.94963
7 1 9.43453 9.28066e-16 22.0139 -8.94963
9 1 12.5794 2.53291e-16 22.0139 -8.94963
11 1 15.7242 8.83336e-16 22.0139 -8.94963
17 1 3.14484 3.14484 22.0139 -8.94963
21 1 9.43453 3.14484 22.0139 -8.94963
25 1 15.7242 3.14484 22.0139 -8.94963
29 1 3.44432e-08 6.28969 22.0139 -8.94963
33 1 6.28969 6.28969 22.0139 -8.94963
46 1 9.43452 9.43451 22.0139 -8.94962
37 1 12.5794 6.28969 22.0139 -8.94964
41 1 18.8691 6.28969 22.0139 -8.94963
44 1 3.14484 9.43453 22.0139 -8.94963
1 1 -1.5558e-11 1.64225e-15 22.0139 -8.94963
344 1 1.57242 11.007 1.57242 -8.94964
345 1 4.71726 11.007 1.57242 -8.94961
346 1 7.86211 11.007 1.5724 -8.94972
347 1 11.007 11.007 1.5721 -8.95093
348 1 14.1518 11.007 1.57245 -8.94953
349 1 17.2966 11.007 1.57242 -8.94963
350 1 20.4415 11.007 1.57242 -8.94963
351 1 22.0139 12.5794 -1.25814e-08 -8.94963
352 1 1.57242 14.1518 1.57242 -8.94964
688 2 10.2157 11.007 9.42866 0.819762
354 1 4.71726 14.1518 1.57242 -8.94964
511 1 18.8691 18.8691 9.43453 -8.94963
356 1 7.86209 14.1518 1.57239 -8.94962
510 1 15.7242 18.8691 9.43453 -8.94962
358 1 11.007 14.1518 1.57243 -8.94963
359 1 12.5794 12.5794 -1.32397e-05 -8.94967
360 1 14.1518 14.1518 1.5724 -8.94959
509 1 12.5794 18.8691 9.43451 -8.94971
362 1 17.2966 14.1518 1.57242 -8.94965
363 1 18.8691 12.5794 -1.79263e-07 -8.94963
364 1 20.4415 14.1518 1.57242 -8.94963
508 1 9.43453 18.8694 9.43454 -8.95113
366 1 1.57242 17.2966 1.57242 -8.94963
367 1 3.14484 15.7242 4.38408e-07 -8.94963
368 1 4.71726 17.2966 1.57242 -8.94963
507 1 6.28967 18.8691 9.43451 -8.94952
370 1 7.86211 17.2966 1.57242 -8.94964
506 1 3.14484 18.8691 9.43453 -8.94964
372 1 11.007 17.2966 1.57242 -8.94963
505 1 -1.75629e-07 18.8691 9.43453 -8.94963
374 1 14.1518 17.2966 1.57242 -8.94965
375 1 15.7242 15.7242 -7.96708e-07 -8.94962
376 1 17.2966 17.2966 1.57242 -8.94963
504 1 18.8691 15.7242 9.43453 -8.94962
378 1 20.4415 17.2966 1.57242 -8.94963
379 1 22.0139 18.8691 2.03054e-08 -8.94963
380 1 1.57242 20.4415 1.57242 -8.94963
503 1 15.7242 15.7242 9.43454 -8.94964
382 1 4.71726 20.4415 1.57242 -8.94963
383 1 6.28969 18.8691 8.14876e-08 -8.94963
384 1 7.86211 20.4415 1.57242 -8.94963
502 1 12.5795 15.7249 9.43446 -8.95127
386 1 11.007 20.4415 1.57242 -8.94963
387 1 12.5794 18.8691 -5.22637e-08 -8.94963
388 1 14.1518 20.4415 1.57242 -8.94963
501 1 9.43452 15.7295 9.43448 -8.96249
390 1 17.2966 20.4415 1.57242 -8.94963
391 1 18.8691 18.8691 3.66687e-09 -8.94963
392 1 20.4415 20.4415 1.57242 -8.94963
393 1 1.57242 11.007 4.71726 -8.94962
394 1 4.71723 11.007 4.71726 -8.94941
395 1 7.86202 11.007 4.7169 -8.95043
396 1 11.007 11.007 4.7127 -8.96086
397 1 14.1516 11.007 4.71758 -8.95008
398 1 17.2966 11.007 4.71726 -8.94954
399 1 20.4415 11.007 4.71726 -8.94963
400 1 -1.75185e-08 12.5794 3.14484 -8.94963
401 1 1.57242 14.1518 4.71726 -8.94964
402 1 3.14484 12.5794 3.14485 -8.94965
403 1 4.71722 14.1518 4.71722 -8.94951
404 1 6.28965 12.5794 3.14479 -8.94977
405 1 7.862 14.1519 4.71694 -8.95012
406 1 9.43435 12.5796 3.14459 -8.94896
407 1 11.0069 14.1517 4.71723 -8.95037
408 1 12.5796 12.5796 3.14461 -8.94916
409 1 14.1519 14.152 4.71709 -8.94892
410 1 15.7242 12.5793 3.14488 -8.94975
411 1 17.2966 14.1518 4.71728 -8.94974
412 1 18.8691 12.5794 3.14484 -8.94963
413 1 20.4415 14.1518 4.71727 -8.94964
414 1 22.0139 15.7242 3.14484 -8.94963
415 1 1.57242 17.2966 4.71727 -8.94964
416 1 3.14484 15.7242 3.14484 -8.94962
417 1 4.71725 17.2967 4.71725 -8.94953
418 1 6.28967 15.7242 3.14482 -8.94962
419 1 7.86212 17.2966 4.71727 -8.94979
420 1 9.43454 15.7242 3.14485 -8.94963
421 1 11.0069 17.2966 4.71725 -8.94965
422 1 12.5794 15.7242 3.14485 -8.94977
423 1 14.1518 17.2967 4.71725 -8.9496
424 1 15.7242 15.7242 3.14483 -8.94957
425 1 17.2966 17.2966 4.71726 -8.94961
426 1 18.8691 15.7242 3.14484 -8.94964
427 1 20.4415 17.2966 4.71726 -8.94963
428 1 1.36936e-07 18.8691 3.14484 -8.94963
429 1 1.57242 20.4415 4.71726 -8.94963
430 1 3.14484 18.8691 3.14484 -8.94963
431 1 4.71726 20.4415 4.71726 -8.94962
432 1 6.28969 18.8691 3.14484 -8.94965
433 1 7.86211 20.4415 4.71727 -8.94964
434 1 9.43453 18.8691 3.14484 -8.94963
435 1 11.0069 20.4415 4.71727 -8.94964
436 1 12.5794 18.8691 3.14484 -8.94964
437 1 14.1518 20.4415 4.71726 -8.94963
438 1 15.7242 18.8691 3.14484 -8.94963
439 1 17.2966 20.4415 4.71726 -8.94963
440 1 18.8691 18.8691 3.14484 -8.94963
441 1 20.4415 20.4415 4.71726 -8.94963
442 1 1.57241 11.007 7.86212 -8.94971
443 1 4.71699 11.007 7.86228 -8.9515
444 1 7.85816 11.007 7.85898 -9.03429
445 1 11.027 11.007 7.82107 -9.27219
446 1 14.1509 11.007 7.8635 -9.00126
447 1 17.2966 11.007 7.86209 -8.94914
448 1 20.4415 11.007 7.86211 -8.9496
449 1 22.0139 12.5794 6.28969 -8.94965
450 1 1.5724 14.1518 7.86209 -8.94959
451 1 3.1448 12.5794 6.28967 -8.94984
452 1 4.71706 14.1519 7.86202 -8.94957
453 1 6.28911 12.5796 6.28908 -8.94922
454 1 7.8598 14.1537 7.85877 -8.98139
455 1 9.43324 12.58 6.28889 -9.00444
456 1 11.0087 14.1528 7.86072 -9.00098
457 1 12.5811 12.5818 6.28848 -8.98378
458 1 14.1526 14.1525 7.86161 -8.94761
459 1 15.7242 12.5792 6.28981 -8.95056
460 1 17.2967 14.1518 7.86206 -8.94965
461 1 18.869 12.5794 6.28969 -8.94964
462 1 20.4415 14.1518 7.8621 -8.94965
463 1 1.97939e-07 15.7242 6.28969 -8.94963
464 1 1.57242 17.2966 7.86211 -8.94964
465 1 3.14483 15.7242 6.28969 -8.94964
466 1 4.71727 17.2966 7.86212 -8.94975
467 1 6.28945 15.7245 6.28945 -8.94856
468 1 7.86189 17.297 7.86187 -8.94927
469 1 9.43461 15.7242 6.28975 -8.95014
470 1 11.0072 17.2969 7.86187 -8.94891
471 1 12.5795 15.7245 6.28954 -8.94973
472 1 14.1518 17.2967 7.86209 -8.94975
473 1 15.7243 15.7243 6.28962 -8.94935
474 1 17.2966 17.2966 7.86211 -8.94967
475 1 18.8691 15.7242 6.28968 -8.94962
476 1 20.4415 17.2966 7.86211 -8.94963
477 1 22.0139 18.8691 6.28969 -8.94963
478 1 1.57242 20.4415 7.86211 -8.94963
479 1 3.14484 18.8691 6.28969 -8.94965
480 1 4.71726 20.4415 7.86211 -8.94963
481 1 6.28966 18.8691 6.28966 -8.94959
482 1 7.8621 20.4415 7.8621 -8.94967
483 1 9.43453 18.8691 6.28969 -8.9496
484 1 11.007 20.4415 7.86209 -8.94966
485 1 12.5794 18.8691 6.28966 -8.94961
486 1 14.1518 20.4415 7.86211 -8.94964
487 1 15.7242 18.8691 6.28968 -8.94963
488 1 17.2966 20.4415 7.86211 -8.94963
489 1 18.8691 18.8691 6.28969 -8.94964
490 1 20.4415 20.4415 7.86211 -8.94963
491 1 -1.61147e-05 12.5794 9.43452 -8.94964
492 1 3.14462 12.5796 9.43433 -8.94876
493 1 6.28889 12.581 9.43252 -9.03348
494 1 9.4147 12.6265 9.42963 -9.25128
495 1 12.5857 12.5859 9.43296 -9.01682
496 1 15.7251 12.5797 9.43429 -8.95025
497 1 18.8691 12.5794 9.43451 -8.94982
498 1 22.0139 15.7242 9.43453 -8.94964
499 1 3.14487 15.7242 9.43454 -8.94969
500 1 6.28983 15.7242 9.43445 -8.95061
512 1 1.57204 11.007 11.0069 -8.95121
514 1 7.81242 11.007 10.9907 -9.24918
516 1 14.157 11.007 11.0058 -9.01106
519 1 1.57244 14.1518 11.0069 -8.94962
520 1 4.71729 14.1516 11.0069 -8.95106
521 1 7.85959 14.1533 11.0082 -9.03602
522 1 11.009 14.1523 11.0063 -9.05492
527 1 4.71727 17.2966 11.0069 -8.94976
528 1 7.86171 17.2971 11.007 -8.94824
531 1 17.2966 17.2966 11.0069 -8.94965
534 1 4.71727 20.4415 11.007 -8.94964
538 1 17.2966 20.4415 11.007 -8.94963
532 1 20.4415 17.2966 11.007 -8.94963
355 1 6.28968 12.5794 2.35784e-06 -8.94967
371 1 9.43453 15.7242 1.64324e-07 -8.94964
687 2 9.42773 11.007 11.7938 0.814207
513 1 4.71176 11.007 11.007 -8.96281
686 1 20.4415 20.4415 20.4415 -8.94963
515 1 11.0785 11.007 11.0303 -9.42056
685 1 18.8691 18.8691 18.8691 -8.94963
517 1 17.297 11.007 11.007 -8.95088
518 1 20.4415 11.007 11.007 -8.94982
684 1 17.2966 20.4415 20.4415 -8.94963
683 1 15.7242 18.8691 18.8691 -8.94963
682 1 14.1518 20.4415 20.4415 -8.94963
681 1 12.5794 18.8691 18.8691 -8.94965
523 1 14.1525 14.1523 11.0074 -8.94909
524 1 17.2967 14.1518 11.007 -8.94971
525 1 20.4415 14.1518 11.007 -8.94964
526 1 1.57242 17.2966 11.007 -8.94963
680 1 11.007 20.4415 20.4415 -8.94963
679 1 9.43453 18.8691 18.8691 -8.94963
529 1 11.0073 17.2971 11.007 -8.94785
530 1 14.1518 17.2967 11.007 -8.94978
678 1 7.86211 20.4415 20.4415 -8.94963
389 1 15.7242 18.8691 22.0139 -8.94963
533 1 1.57242 20.4415 11.007 -8.94963
677 1 6.28969 18.8691 18.8691 -8.94965
535 1 7.86208 20.4415 11.007 -8.94965
536 1 11.007 20.4415 11.007 -8.94964
537 1 14.1518 20.4415 11.007 -8.94966
676 1 4.71726 20.4415 20.4415 -8.94963
539 1 20.4415 20.4415 11.007 -8.94963
540 1 1.57239 11.007 14.1518 -8.94973
541 1 4.71681 11.007 14.1519 -8.95084
542 1 7.85798 11.007 14.1574 -8.98458
543 1 11.0113 11.007 14.1614 -8.99723
544 1 14.1521 11.007 14.1516 -8.95164
545 1 17.2967 11.007 14.1518 -8.94967
546 1 20.4415 11.007 14.1518 -8.94964
547 1 22.0139 12.5794 12.5794 -8.94965
548 1 1.57238 14.1518 14.1518 -8.9496
549 1 3.14453 12.5796 12.5796 -8.94884
550 1 4.71695 14.1519 14.1519 -8.94974
551 1 6.28867 12.5805 12.5814 -9.00079
552 1 7.85943 14.1531 14.1539 -8.98324
553 1 9.43382 12.623 12.6003 -9.273
554 1 11.0095 14.1529 14.1536 -8.98295
555 1 12.5821 12.5832 12.5824 -9.03152
556 1 14.1523 14.1521 14.1521 -8.94893
557 1 15.7245 12.5795 12.5795 -8.94955
558 1 17.2967 14.1518 14.1518 -8.94969
559 1 18.8691 12.5794 12.5794 -8.94964
560 1 20.4415 14.1518 14.1518 -8.94964
561 1 3.55248e-06 15.7242 12.5794 -8.94964
562 1 1.57242 17.2966 14.1518 -8.94965
563 1 3.14486 15.7242 12.5793 -8.94972
564 1 4.71726 17.2966 14.1518 -8.9497
565 1 6.28962 15.7244 12.5795 -8.9495
566 1 7.86192 17.2969 14.152 -8.94929
567 1 9.43462 15.729 12.5793 -8.96206
568 1 11.0071 17.2969 14.152 -8.94913
569 1 12.5793 15.7245 12.5794 -8.95081
570 1 14.1518 17.2966 14.1518 -8.94977
571 1 15.7243 15.7243 12.5794 -8.94942
572 1 17.2966 17.2966 14.1518 -8.94962
573 1 18.8691 15.7242 12.5794 -8.94963
574 1 20.4415 17.2966 14.1518 -8.94963
575 1 22.0139 18.8691 12.5794 -8.94963
576 1 1.57242 20.4415 14.1518 -8.94963
577 1 3.14484 18.8691 12.5794 -8.94964
578 1 4.71726 20.4415 14.1518 -8.94963
579 1 6.28967 18.8691 12.5794 -8.94956
580 1 7.8621 20.4415 14.1518 -8.94966
581 1 9.43453 18.8694 12.5794 -8.95098
582 1 11.007 20.4415 14.1518 -8.94965
583 1 12.5794 18.8691 12.5794 -8.94959
584 1 14.1518 20.4415 14.1518 -8.94963
585 1 15.7242 18.8691 12.5794 -8.94963
586 1 17.2966 20.4415 14.1518 -8.94963
587 1 18.8691 18.8691 12.5794 -8.94964
588 1 20.4415 20.4415 14.1518 -8.94963
589 1 1.57242 11.007 17.2966 -8.94962
590 1 4.71724 11.007 17.2967 -8.94949
591 1 7.86205 11.007 17.2972 -8.95108
592 1 11.007 11.007 17.2975 -8.95221
593 1 14.1518 11.007 17.2966 -8.94943
594 1 17.2966 11.007 17.2966 -8.94961
595 1 20.4415 11.007 17.2966 -8.94963
596 1 22.0139 12.5794 15.7242 -8.94965
597 1 1.57242 14.1518 17.2966 -8.94964
598 1 3.14478 12.5794 15.7242 -8.94979
599 1 4.71721 14.1519 17.2967 -8.94941
600 1 6.28906 12.5797 15.725 -8.94848
601 1 7.86219 14.1517 17.2967 -8.95039
602 1 9.43436 12.5785 15.7239 -8.99977
603 1 11.0069 14.1517 17.2966 -8.95038
604 1 12.5802 12.5799 15.7252 -8.94798
605 1 14.1519 14.1519 17.2967 -8.94937
606 1 15.7243 12.5794 15.7242 -8.94988
607 1 17.2966 14.1518 17.2966 -8.94965
608 1 18.8691 12.5794 15.7242 -8.94965
609 1 20.4415 14.1518 17.2966 -8.94963
610 1 -2.50078e-06 15.7242 15.7242 -8.94962
611 1 1.57242 17.2966 17.2966 -8.94963
612 1 3.14482 15.7242 15.7242 -8.9496
613 1 4.71726 17.2967 17.2966 -8.94956
614 1 6.2895 15.7244 15.7244 -8.9488
615 1 7.86213 17.2966 17.2966 -8.94977
616 1 9.43454 15.7239 15.724 -8.95021
617 1 11.0069 17.2966 17.2966 -8.94976
618 1 12.5795 15.7244 15.7244 -8.94898
619 1 14.1518 17.2966 17.2966 -8.94958
620 1 15.7242 15.7242 15.7242 -8.94953
621 1 17.2966 17.2966 17.2966 -8.94963
622 1 18.8691 15.7242 15.7242 -8.94963
623 1 20.4415 17.2966 17.2966 -8.94963
624 1 22.0139 18.8691 15.7242 -8.94963
625 1 1.57242 20.4415 17.2966 -8.94963
626 1 3.14484 18.8691 15.7242 -8.94964
627 1 4.71726 20.4415 17.2966 -8.94963
628 1 6.28967 18.8691 15.7242 -8.9496
629 1 7.86211 20.4415 17.2966 -8.94963
630 1 9.43453 18.869 15.7242 -8.94954
631 1 11.0069 20.4415 17.2966 -8.94963
632 1 12.5794 18.8691 15.7242 -8.94959
633 1 14.1518 20.4415 17.2966 -8.94963
634 1 15.7242 18.8691 15.7242 -8.94965
635 1 17.2966 20.4415 17.2966 -8.94963
636 1 18.8691 18.8691 15.7242 -8.94963
637 1 20.4415 20.4415 17.2966 -8.94963
638 1 1.57242 11.007 20.4415 -8.94963
639 1 4.71726 11.007 20.4415 -8.94962
640 1 7.86212 11.007 20.4415 -8.94982
641 1 11.0069 11.007 20.4415 -8.94998
642 1 14.1518 11.007 20.4415 -8.9496
643 1 17.2966 11.007 20.4415 -8.94964
644 1 20.4415 11.007 20.4415 -8.94963
645 1 1.8644e-07 12.5794 18.8691 -8.94963
646 1 1.57242 14.1518 20.4415 -8.94964
647 1 3.14484 12.5794 18.8691 -8.94966
648 1 4.71726 14.1518 20.4415 -8.94963
649 1 6.28965 12.5794 18.8691 -8.94974
650 1 7.86211 14.1518 20.4415 -8.94964
651 1 9.43452 12.5794 18.869 -8.94925
652 1 11.0069 14.1518 20.4415 -8.94963
653 1 12.5794 12.5794 18.8692 -8.94974
654 1 14.1518 14.1518 20.4415 -8.94963
655 1 15.7242 12.5794 18.8691 -8.94966
656 1 17.2966 14.1518 20.4415 -8.94964
657 1 18.8691 12.5794 18.8691 -8.94963
658 1 20.4415 14.1518 20.4415 -8.94963
659 1 22.0139 15.7242 18.8691 -8.94963
660 1 1.57242 17.2966 20.4415 -8.94963
661 1 3.14484 15.7242 18.8691 -8.94961
662 1 4.71727 17.2966 20.4415 -8.94964
663 1 6.2897 15.7242 18.8691 -8.94971
664 1 7.86211 17.2966 20.4415 -8.94963
665 1 9.43453 15.7242 18.869 -8.94955
666 1 11.007 17.2966 20.4415 -8.94963
667 1 12.5794 15.7242 18.869 -8.94972
668 1 14.1518 17.2966 20.4415 -8.94964
669 1 15.7242 15.7242 18.8691 -8.9496
670 1 17.2966 17.2966 20.4415 -8.94963
671 1 18.8691 15.7242 18.8691 -8.94963
672 1 20.4415 17.2966 20.4415 -8.94963
673 1 -3.88158e-09 18.8691 18.8691 -8.94963
674 1 1.57242 20.4415 20.4415 -8.94963
675 1 3.14484 18.8691 18.8691 -8.94963
353 1 3.14484 12.5794 22.0139 -8.94963
385 1 9.43453 18.8691 22.0139 -8.94963
357 1 9.43452 12.5794 22.0139 -8.94962
361 1 15.7242 12.5794 22.0139 -8.94963
365 1 3.44432e-08 15.7242 22.0139 -8.94963
369 1 6.28969 15.7242 22.0139 -8.94963
381 1 3.14484 18.8691 22.0139 -8.94963
373 1 12.5794 15.7242 22.0139 -8.94964
377 1 18.8691 15.7242 22.0139 -8.94963
