ITEM: TIMESTEP
44
ITEM: NUMBER OF ATOMS
688
ITEM: BOX BOUNDS pp pp pp
0.0000000000000000e+00 2.2013900999999997e+01
0.0000000000000000e+00 2.2013900999999997e+01
0.0000000000000000e+00 2.2013900999999997e+01
ITEM: ATOMS id type x y z c_pot
193 1 11.008 7.86224 11.0064 -9.05696
2 1 1.57242 1.57242 1.57242 -8.94963
175 1 18.8691 9.43453 9.43453 -8.94973
4 1 4.71726 1.57242 1.57242 -8.94963
174 1 15.7246 9.43444 9.43445 -8.95041
6 1 7.86211 1.57242 1.57242 -8.94963
173 1 12.5841 9.42986 9.43401 -9.01985
8 1 11.007 1.57242 1.57242 -8.94963
172 1 9.41749 9.39567 9.42987 -9.26063
10 1 14.1518 1.57242 1.57242 -8.94963
171 1 6.29031 9.4341 9.43379 -9.03508
12 1 17.2966 1.57242 1.57242 -8.94963
13 1 18.8691 4.09988e-17 7.63495e-10 -8.94963
14 1 20.4415 1.57242 1.57242 -8.94963
15 1 22.0139 3.14484 2.61263e-09 -8.94963
16 1 1.57242 4.71726 1.57242 -8.94963
170 1 3.14483 9.43444 9.43446 -8.94887
18 1 4.71726 4.71726 1.57242 -8.94963
19 1 6.28969 3.14484 3.02011e-08 -8.94963
20 1 7.86211 4.71726 1.57242 -8.94963
169 1 -1.01439e-06 9.43453 9.43453 -8.94962
22 1 11.007 4.71726 1.57242 -8.94963
23 1 12.5794 3.14484 2.45709e-08 -8.94963
24 1 14.1518 4.71726 1.57242 -8.94963
168 1 18.8691 6.28969 9.43453 -8.94963
26 1 17.2966 4.71726 1.57242 -8.94963
27 1 18.8691 3.14484 3.85833e-09 -8.94963
28 1 20.4415 4.71726 1.57242 -8.94963
167 1 15.7242 6.28969 9.43453 -8.94969
30 1 1.57242 7.86211 1.57242 -8.94963
31 1 3.14484 6.28969 8.705e-08 -8.94963
32 1 4.71726 7.86211 1.57242 -8.94963
166 1 12.5794 6.2894 9.43452 -8.95095
34 1 7.8621 7.8621 1.57241 -8.94962
165 1 9.43457 6.28676 9.43451 -8.96005
36 1 11.007 7.86211 1.57243 -8.94964
164 1 6.28983 6.28981 9.43451 -8.95058
38 1 14.1518 7.8621 1.57242 -8.94961
39 1 15.7242 6.28969 5.17188e-08 -8.94963
40 1 17.2966 7.86211 1.57242 -8.94964
163 1 3.14485 6.28968 9.43453 -8.94965
42 1 20.4415 7.86211 1.57242 -8.94963
43 1 22.0139 9.43453 -2.60855e-10 -8.94963
162 1 22.0139 6.28969 9.43453 -8.94963
161 1 18.8691 3.14484 9.43453 -8.94963
160 1 15.7242 3.14484 9.43453 -8.94963
47 1 12.5794 9.43453 -1.80524e-06 -8.94963
159 1 12.5794 3.14483 9.43453 -8.94969
49 1 18.8691 9.43453 -4.79413e-08 -8.94963
50 1 22.0139 5.6048e-16 3.14484 -8.94963
51 1 1.57242 1.57242 4.71726 -8.94963
52 1 3.14484 4.14603e-17 3.14484 -8.94963
53 1 4.71726 1.57242 4.71726 -8.94963
54 1 6.28969 5.38956e-16 3.14484 -8.94963
55 1 7.86211 1.57242 4.71726 -8.94963
56 1 9.43453 8.96541e-16 3.14484 -8.94963
57 1 11.007 1.57242 4.71726 -8.94963
58 1 12.5794 1.14188e-15 3.14484 -8.94963
59 1 14.1518 1.57242 4.71726 -8.94963
60 1 15.7242 1.74703e-15 3.14484 -8.94963
61 1 17.2966 1.57242 4.71726 -8.94963
62 1 18.8691 6.89309e-16 3.14484 -8.94963
63 1 20.4415 1.57242 4.71726 -8.94963
64 1 3.35468e-08 3.14484 3.14484 -8.94963
65 1 1.57242 4.71726 4.71726 -8.94964
66 1 3.14484 3.14484 3.14484 -8.94963
67 1 4.71726 4.71726 4.71726 -8.94961
68 1 6.28969 3.14484 3.14484 -8.94964
69 1 7.86211 4.71727 4.71727 -8.94971
70 1 9.43453 3.14484 3.14484 -8.94963
71 1 11.0069 4.71727 4.71726 -8.94965
72 1 12.5794 3.14484 3.14484 -8.94964
73 1 14.1518 4.71726 4.71726 -8.94962
74 1 15.7242 3.14484 3.14484 -8.94963
75 1 17.2966 4.71726 4.71726 -8.94962
76 1 18.8691 3.14484 3.14484 -8.94963
77 1 20.4415 4.71726 4.71726 -8.94963
78 1 22.0139 6.28969 3.14484 -8.94963
79 1 1.57242 7.86211 4.71726 -8.94963
80 1 3.14484 6.28969 3.14484 -8.94963
81 1 4.71725 7.86209 4.71725 -8.94955
82 1 6.28968 6.28968 3.14484 -8.94963
83 1 7.86208 7.86208 4.71717 -8.94988
84 1 9.43453 6.28968 3.14485 -8.94964
85 1 11.0069 7.86217 4.7173 -8.95028
86 1 12.5794 6.28969 3.14484 -8.94969
87 1 14.1518 7.86209 4.71724 -8.9494
88 1 15.7242 6.28969 3.14484 -8.94963
89 1 17.2966 7.86211 4.71727 -8.94968
90 1 18.8691 6.28969 3.14484 -8.94964
91 1 20.4415 7.86211 4.71726 -8.94963
92 1 5.39493e-08 9.43453 3.14484 -8.94963
93 1 3.14484 9.43453 3.14484 -8.94965
94 1 6.28968 9.43452 3.14483 -8.94969
95 1 9.43446 9.43446 3.14476 -8.94924
96 1 12.5794 9.43446 3.14479 -8.94921
97 1 15.7242 9.43454 3.14485 -8.9497
98 1 18.8691 9.43453 3.14484 -8.94963
99 1 -4.46902e-09 6.14898e-16 6.28969 -8.94963
100 1 1.57242 1.57242 7.86211 -8.94963
101 1 3.14484 -6.17107e-17 6.28969 -8.94963
102 1 4.71726 1.57242 7.86211 -8.94963
103 1 6.28969 5.4664e-16 6.28969 -8.94963
104 1 7.8621 1.57242 7.8621 -8.94964
105 1 9.43453 8.26724e-16 6.28969 -8.94963
106 1 11.007 1.57242 7.8621 -8.94964
107 1 12.5794 7.93297e-16 6.28969 -8.94963
108 1 14.1518 1.57242 7.86211 -8.94964
109 1 15.7242 1.05986e-15 6.28969 -8.94963
110 1 17.2966 1.57242 7.86211 -8.94963
111 1 18.8691 1.54239e-15 6.28969 -8.94963
112 1 20.4415 1.57242 7.86211 -8.94963
113 1 22.0139 3.14484 6.28969 -8.94963
114 1 1.57242 4.71726 7.86211 -8.94963
115 1 3.14484 3.14484 6.28969 -8.94964
116 1 4.71727 4.71728 7.86212 -8.94969
117 1 6.28968 3.14484 6.28968 -8.94961
118 1 7.86203 4.71718 7.86202 -8.94928
119 1 9.43453 3.14485 6.28969 -8.94963
120 1 11.007 4.71717 7.86202 -8.94919
121 1 12.5794 3.14484 6.28968 -8.94962
122 1 14.1518 4.71724 7.8621 -8.9497
123 1 15.7242 3.14484 6.28969 -8.94963
124 1 17.2966 4.71727 7.86211 -8.94965
125 1 18.8691 3.14484 6.28969 -8.94963
126 1 20.4415 4.71726 7.86211 -8.94963
127 1 4.88962e-07 6.28969 6.28969 -8.94963
128 1 1.57242 7.86211 7.86211 -8.9496
129 1 3.14485 6.28969 6.28969 -8.94966
130 1 4.71728 7.86215 7.86215 -8.94983
131 1 6.28964 6.28963 6.28964 -8.94921
132 1 7.86114 7.86161 7.86043 -8.98399
133 1 9.43456 6.28974 6.28976 -8.95024
134 1 11.008 7.86176 7.86149 -9.00215
135 1 12.5794 6.2896 6.28965 -8.94967
136 1 14.1522 7.86178 7.86186 -8.9483
137 1 15.7242 6.28967 6.28966 -8.9495
138 1 17.2967 7.86209 7.86209 -8.94964
139 1 18.8691 6.28968 6.28968 -8.94963
140 1 20.4415 7.86211 7.86211 -8.94964
141 1 22.0139 9.43453 6.28969 -8.94964
142 1 3.14483 9.43453 6.28968 -8.94974
143 1 6.28941 9.43436 6.28942 -8.94904
144 1 9.43376 9.43429 6.28939 -9.00513
145 1 12.58 9.43332 6.28961 -8.98593
146 1 15.7242 9.43461 6.28977 -8.95019
147 1 18.8691 9.43453 6.28969 -8.94963
148 1 5.11264e-09 2.20554e-16 9.43453 -8.94963
149 1 3.14484 6.46593e-16 9.43453 -8.94963
150 1 6.28969 -5.67876e-16 9.43453 -8.94963
151 1 9.43453 6.68386e-16 9.43453 -8.9497
152 1 12.5794 5.52159e-16 9.43453 -8.94964
153 1 15.7242 7.07388e-16 9.43453 -8.94963
154 1 18.8691 4.93525e-16 9.43453 -8.94963
155 1 -4.56125e-08 3.14484 9.43453 -8.94963
156 1 3.14484 3.14484 9.43453 -8.94963
157 1 6.28969 3.14485 9.43453 -8.94958
158 1 9.43453 3.14471 9.43453 -8.95047
177 1 4.71727 1.57242 11.007 -8.94964
181 1 17.2966 1.57242 11.007 -8.94963
184 1 4.71727 4.71728 11.0069 -8.9497
185 1 7.86196 4.71713 11.007 -8.94868
188 1 17.2966 4.71727 11.0069 -8.94964
190 1 1.57243 7.86211 11.0069 -8.94963
191 1 4.71737 7.86225 11.0069 -8.95073
192 1 7.86118 7.862 11.0074 -9.03931
189 1 20.4415 4.71726 11.007 -8.94963
35 1 9.43453 6.28969 2.79922e-07 -8.94963
45 1 6.28969 9.43453 7.64811e-07 -8.94965
176 1 1.57242 1.57242 11.007 -8.94963
343 1 18.8691 9.43453 18.8691 -8.94963
178 1 7.8621 1.57241 11.007 -8.94963
179 1 11.007 1.57241 11.007 -8.94963
180 1 14.1518 1.57242 11.007 -8.94964
342 1 15.7242 9.43453 18.8691 -8.94965
182 1 20.4415 1.57242 11.007 -8.94963
183 1 1.57242 4.71726 11.007 -8.94963
341 1 12.5794 9.43452 18.8691 -8.94967
340 1 9.43453 9.43451 18.869 -8.94929
186 1 11.0071 4.71712 11.007 -8.94857
187 1 14.1518 4.71725 11.007 -8.94971
339 1 6.28967 9.43452 18.8691 -8.94968
48 1 15.7242 9.43453 22.0139 -8.94963
338 1 3.14484 9.43453 18.8691 -8.94965
337 1 7.90501e-08 9.43453 18.8691 -8.94963
336 1 20.4415 7.86211 20.4415 -8.94963
335 1 18.8691 6.28969 18.8691 -8.94963
194 1 14.1521 7.86186 11.0072 -8.94924
195 1 17.2967 7.8621 11.007 -8.94968
196 1 20.4415 7.86211 11.007 -8.94963
197 1 7.64414e-11 1.01276e-15 12.5794 -8.94963
198 1 1.57242 1.57242 14.1518 -8.94963
199 1 3.14484 9.96416e-16 12.5794 -8.94963
200 1 4.71726 1.57242 14.1518 -8.94963
201 1 6.28969 1.01775e-15 12.5794 -8.94963
202 1 7.86211 1.57242 14.1518 -8.94963
203 1 9.43453 1.3946e-15 12.5794 -8.9497
204 1 11.007 1.57242 14.1518 -8.94963
205 1 12.5794 8.66863e-16 12.5794 -8.94963
206 1 14.1518 1.57242 14.1518 -8.94963
207 1 15.7242 4.92439e-16 12.5794 -8.94963
208 1 17.2966 1.57242 14.1518 -8.94963
209 1 18.8691 6.62396e-17 12.5794 -8.94963
210 1 20.4415 1.57242 14.1518 -8.94963
211 1 22.0139 3.14484 12.5794 -8.94963
212 1 1.57242 4.71726 14.1518 -8.94964
213 1 3.14484 3.14484 12.5794 -8.94963
214 1 4.71727 4.71727 14.1518 -8.94969
215 1 6.28969 3.14485 12.5794 -8.94961
216 1 7.86204 4.71721 14.1519 -8.94928
217 1 9.43453 3.14473 12.5794 -8.95039
218 1 11.007 4.71721 14.1519 -8.94921
219 1 12.5794 3.14484 12.5794 -8.94962
220 1 14.1518 4.71727 14.1518 -8.9497
221 1 15.7242 3.14484 12.5794 -8.94963
222 1 17.2966 4.71726 14.1518 -8.94963
223 1 18.8691 3.14484 12.5794 -8.94963
224 1 20.4415 4.71726 14.1518 -8.94963
225 1 1.15244e-06 6.28969 12.5794 -8.94964
226 1 1.57241 7.8621 14.1518 -8.94961
227 1 3.14485 6.28969 12.5794 -8.94968
228 1 4.71717 7.86207 14.1518 -8.94968
229 1 6.28974 6.28971 12.5794 -8.94998
230 1 7.8608 7.86195 14.1526 -8.98558
231 1 9.43456 6.28709 12.5793 -8.95971
232 1 11.0082 7.86207 14.1524 -8.98564
233 1 12.5793 6.28967 12.5794 -8.95053
234 1 14.1519 7.86206 14.1519 -8.94943
235 1 15.7242 6.28967 12.5794 -8.94952
236 1 17.2966 7.86211 14.1518 -8.94966
237 1 18.8691 6.28969 12.5794 -8.94963
238 1 20.4415 7.86211 14.1518 -8.94963
239 1 22.0139 9.43453 12.5794 -8.94964
240 1 3.14474 9.43444 12.5795 -8.94916
241 1 6.28933 9.43402 12.5805 -9.00215
242 1 9.4341 9.3989 12.5968 -9.28175
243 1 12.5803 9.43273 12.5805 -9.03598
244 1 15.7243 9.43451 12.5794 -8.94959
245 1 18.8691 9.43453 12.5794 -8.94962
246 1 1.51508e-10 7.82509e-16 15.7242 -8.94963
247 1 1.57242 1.57242 17.2966 -8.94963
248 1 3.14484 7.67223e-16 15.7242 -8.94963
249 1 4.71726 1.57242 17.2966 -8.94963
250 1 6.28969 -3.2298e-16 15.7242 -8.94963
251 1 7.86211 1.57242 17.2966 -8.94963
252 1 9.43453 1.1727e-15 15.7242 -8.94963
253 1 11.007 1.57242 17.2966 -8.94963
254 1 12.5794 1.03705e-15 15.7242 -8.94963
255 1 14.1518 1.57242 17.2966 -8.94963
256 1 15.7242 1.43555e-15 15.7242 -8.94963
257 1 17.2966 1.57242 17.2966 -8.94963
258 1 18.8691 1.0548e-15 15.7242 -8.94963
259 1 20.4415 1.57242 17.2966 -8.94963
260 1 22.0139 3.14484 15.7242 -8.94963
261 1 1.57242 4.71726 17.2966 -8.94963
262 1 3.14484 3.14484 15.7242 -8.94964
263 1 4.71727 4.71726 17.2966 -8.94962
264 1 6.28968 3.14484 15.7242 -8.94961
265 1 7.86212 4.71728 17.2966 -8.9497
266 1 9.43453 3.14486 15.7242 -8.94959
267 1 11.0069 4.71728 17.2966 -8.94969
268 1 12.5794 3.14484 15.7242 -8.94961
269 1 14.1518 4.71726 17.2966 -8.94963
270 1 15.7242 3.14484 15.7242 -8.94964
271 1 17.2966 4.71726 17.2966 -8.94963
272 1 18.8691 3.14484 15.7242 -8.94963
273 1 20.4415 4.71726 17.2966 -8.94963
274 1 -2.82029e-07 6.28969 15.7242 -8.94963
275 1 1.57242 7.86211 17.2966 -8.94963
276 1 3.14484 6.28968 15.7242 -8.94962
277 1 4.71725 7.86208 17.2967 -8.9495
278 1 6.28966 6.28965 15.7242 -8.94935
279 1 7.86217 7.86218 17.2966 -8.9501
280 1 9.43453 6.28989 15.724 -8.95039
281 1 11.0069 7.86218 17.2966 -8.9501
282 1 12.5794 6.28966 15.7242 -8.94944
283 1 14.1518 7.86208 17.2967 -8.94948
284 1 15.7242 6.28969 15.7242 -8.94961
285 1 17.2966 7.86211 17.2966 -8.94964
286 1 18.8691 6.28969 15.7242 -8.94963
287 1 20.4415 7.86211 17.2966 -8.94963
288 1 22.0139 9.43453 15.7242 -8.94964
289 1 3.14482 9.43452 15.7242 -8.94971
290 1 6.28936 9.43429 15.7246 -8.94858
291 1 9.43446 9.43536 15.7235 -8.99906
292 1 12.5798 9.43422 15.7246 -8.94814
293 1 15.7242 9.43453 15.7242 -8.94976
294 1 18.8691 9.43453 15.7242 -8.94964
295 1 22.0139 -9.34152e-17 18.8691 -8.94963
296 1 1.57242 1.57242 20.4415 -8.94963
297 1 3.14484 2.64045e-16 18.8691 -8.94963
298 1 4.71726 1.57242 20.4415 -8.94963
299 1 6.28969 5.14552e-16 18.8691 -8.94963
300 1 7.86211 1.57242 20.4415 -8.94963
301 1 9.43453 5.73493e-16 18.8691 -8.94963
302 1 11.007 1.57242 20.4415 -8.94963
303 1 12.5794 1.08571e-16 18.8691 -8.94963
304 1 14.1518 1.57242 20.4415 -8.94963
305 1 15.7242 1.33253e-15 18.8691 -8.94963
306 1 17.2966 1.57242 20.4415 -8.94963
307 1 18.8691 4.56335e-16 18.8691 -8.94963
308 1 20.4415 1.57242 20.4415 -8.94963
309 1 9.57874e-09 3.14484 18.8691 -8.94963
310 1 1.57242 4.71726 20.4415 -8.94963
311 1 3.14484 3.14484 18.8691 -8.94963
312 1 4.71726 4.71726 20.4415 -8.94964
313 1 6.28969 3.14484 18.8691 -8.94964
314 1 7.86211 4.71726 20.4415 -8.94963
315 1 9.43453 3.14484 18.8691 -8.94963
316 1 11.007 4.71726 20.4415 -8.94963
317 1 12.5794 3.14484 18.8691 -8.94964
318 1 14.1518 4.71726 20.4415 -8.94964
319 1 15.7242 3.14484 18.8691 -8.94963
320 1 17.2966 4.71726 20.4415 -8.94963
321 1 18.8691 3.14484 18.8691 -8.94963
322 1 20.4415 4.71726 20.4415 -8.94963
323 1 22.0139 6.28969 18.8691 -8.94963
324 1 1.57242 7.86211 20.4415 -8.94963
325 1 3.14484 6.28968 18.8691 -8.94962
326 1 4.71726 7.86211 20.4415 -8.94963
327 1 6.28969 6.28969 18.8691 -8.94967
328 1 7.86211 7.86211 20.4415 -8.94962
329 1 9.43453 6.28968 18.8691 -8.94958
330 1 11.0069 7.86211 20.4415 -8.94962
331 1 12.5794 6.28969 18.8691 -8.94968
332 1 14.1518 7.86211 20.4415 -8.94963
333 1 15.7242 6.28968 18.8691 -8.94962
334 1 17.2966 7.86211 20.4415 -8.94963
3 1 3.14484 1.24576e-15 22.0139 -8.94963
5 1 6.28969 7.82917e-16 22.0139 -8.94963
7 1 9.43453 4.2579e-16 22.0139 -8.94963
9 1 12.5794 1.91349e-16 22.0139 -8.94963
11 1 15.7242 9.74411e-16 22.0139 -8.94963
17 1 3.14484 3.14484 22.0139 -8.94963
21 1 9.43453 3.14484 22.0139 -8.94963
25 1 15.7242 3.14484 22.0139 -8.94963
29 1 9.12614e-09 6.28969 22.0139 -8.94963
33 1 6.28969 6.28969 22.0139 -8.94963
46 1 9.43453 9.43453 22.0139 -8.94962
37 1 12.5794 6.28969 22.0139 -8.94963
41 1 18.8691 6.28969 22.0139 -8.94963
44 1 3.14484 9.43453 22.0139 -8.94963
1 1 2.87703e-10 1.29177e-15 22.0139 -8.94963
344 1 1.57242 11.007 1.57242 -8.94963
345 1 4.71726 11.007 1.57242 -8.94962
346 1 7.86211 11.007 1.57242 -8.94969
347 1 11.007 11.007 1.5723 -8.95035
348 1 14.1518 11.007 1.57244 -8.9496
349 1 17.2966 11.007 1.57242 -8.94963
350 1 20.4415 11.007 1.57242 -8.94963
351 1 22.0139 12.5794 -2.60855e-10 -8.94963
352 1 1.57242 14.1518 1.57242 -8.94963
688 2 10.2176 11.007 9.43017 0.885496
354 1 4.71726 14.1518 1.57242 -8.94963
511 1 18.8691 18.8691 9.43453 -8.94963
356 1 7.8621 14.1518 1.57241 -8.94962
510 1 15.7242 18.8691 9.43453 -8.94963
358 1 11.007 14.1518 1.57243 -8.94964
359 1 12.5794 12.5794 -1.80524e-06 -8.94963
360 1 14.1518 14.1518 1.57242 -8.94961
509 1 12.5794 18.8691 9.43453 -8.94969
362 1 17.2966 14.1518 1.57242 -8.94964
363 1 18.8691 12.5794 -4.79413e-08 -8.94963
364 1 20.4415 14.1518 1.57242 -8.94963
508 1 9.43453 18.8692 9.43453 -8.95047
366 1 1.57242 17.2966 1.57242 -8.94963
367 1 3.14484 15.7242 8.705e-08 -8.94963
368 1 4.71726 17.2966 1.57242 -8.94963
507 1 6.28969 18.869 9.43453 -8.94958
370 1 7.86211 17.2966 1.57242 -8.94963
506 1 3.14484 18.8691 9.43453 -8.94963
372 1 11.007 17.2966 1.57242 -8.94963
505 1 -4.56125e-08 18.8691 9.43453 -8.94963
374 1 14.1518 17.2966 1.57242 -8.94963
375 1 15.7242 15.7242 5.17188e-08 -8.94963
376 1 17.2966 17.2966 1.57242 -8.94963
504 1 18.8691 15.7242 9.43453 -8.94963
378 1 20.4415 17.2966 1.57242 -8.94963
379 1 22.0139 18.8691 2.61263e-09 -8.94963
380 1 1.57242 20.4415 1.57242 -8.94963
503 1 15.7242 15.7242 9.43453 -8.94969
382 1 4.71726 20.4415 1.57242 -8.94963
383 1 6.28969 18.8691 3.02011e-08 -8.94963
384 1 7.86211 20.4415 1.57242 -8.94963
502 1 12.5794 15.7245 9.43452 -8.95095
386 1 11.007 20.4415 1.57242 -8.94963
387 1 12.5794 18.8691 2.45709e-08 -8.94963
388 1 14.1518 20.4415 1.57242 -8.94963
501 1 9.43457 15.7271 9.43451 -8.96005
390 1 17.2966 20.4415 1.57242 -8.94963
391 1 18.8691 18.8691 3.85833e-09 -8.94963
392 1 20.4415 20.4415 1.57242 -8.94963
393 1 1.57242 11.007 4.71726 -8.94962
394 1 4.71727 11.007 4.71728 -8.94957
395 1 7.86206 11.007 4.71709 -8.95038
396 1 11.0069 11.007 4.71473 -8.95868
397 1 14.1516 11.007 4.71748 -8.9503
398 1 17.2966 11.007 4.71726 -8.94958
399 1 20.4415 11.007 4.71726 -8.94963
400 1 5.39493e-08 12.5794 3.14484 -8.94963
401 1 1.57242 14.1518 4.71726 -8.94963
402 1 3.14484 12.5794 3.14484 -8.94965
403 1 4.71725 14.1518 4.71725 -8.94955
404 1 6.28968 12.5794 3.14483 -8.94969
405 1 7.86208 14.1518 4.71717 -8.94988
406 1 9.43446 12.5794 3.14476 -8.94924
407 1 11.0069 14.1517 4.7173 -8.95028
408 1 12.5794 12.5794 3.14479 -8.94921
409 1 14.1518 14.1518 4.71724 -8.9494
410 1 15.7242 12.5794 3.14485 -8.9497
411 1 17.2966 14.1518 4.71727 -8.94968
412 1 18.8691 12.5794 3.14484 -8.94963
413 1 20.4415 14.1518 4.71726 -8.94963
414 1 22.0139 15.7242 3.14484 -8.94963
415 1 1.57242 17.2966 4.71726 -8.94964
416 1 3.14484 15.7242 3.14484 -8.94963
417 1 4.71726 17.2966 4.71726 -8.94961
418 1 6.28968 15.7242 3.14484 -8.94963
419 1 7.86211 17.2966 4.71727 -8.94971
420 1 9.43453 15.7242 3.14485 -8.94964
421 1 11.0069 17.2966 4.71726 -8.94965
422 1 12.5794 15.7242 3.14484 -8.94969
423 1 14.1518 17.2966 4.71726 -8.94962
424 1 15.7242 15.7242 3.14484 -8.94963
425 1 17.2966 17.2966 4.71726 -8.94962
426 1 18.8691 15.7242 3.14484 -8.94964
427 1 20.4415 17.2966 4.71726 -8.94963
428 1 3.35468e-08 18.8691 3.14484 -8.94963
429 1 1.57242 20.4415 4.71726 -8.94963
430 1 3.14484 18.8691 3.14484 -8.94963
431 1 4.71726 20.4415 4.71726 -8.94963
432 1 6.28969 18.8691 3.14484 -8.94964
433 1 7.86211 20.4415 4.71726 -8.94963
434 1 9.43453 18.8691 3.14484 -8.94963
435 1 11.007 20.4415 4.71726 -8.94963
436 1 12.5794 18.8691 3.14484 -8.94964
437 1 14.1518 20.4415 4.71726 -8.94963
438 1 15.7242 18.8691 3.14484 -8.94963
439 1 17.2966 20.4415 4.71726 -8.94963
440 1 18.8691 18.8691 3.14484 -8.94963
441 1 20.4415 20.4415 4.71726 -8.94963
442 1 1.57242 11.007 7.86212 -8.9497
443 1 4.71716 11.007 7.86226 -8.95169
444 1 7.85833 11.007 7.85963 -9.03375
445 1 11.0237 11.007 7.82828 -9.27822
446 1 14.1507 11.007 7.86322 -9.00033
447 1 17.2966 11.007 7.8621 -8.94925
448 1 20.4415 11.007 7.86211 -8.94961
449 1 22.0139 12.5794 6.28969 -8.94964
450 1 1.57242 14.1518 7.86211 -8.9496
451 1 3.14483 12.5794 6.28968 -8.94974
452 1 4.71728 14.1517 7.86215 -8.94983
453 1 6.28941 12.5795 6.28942 -8.94904
454 1 7.86114 14.1523 7.86043 -8.98399
455 1 9.43376 12.5796 6.28939 -9.00513
456 1 11.008 14.1521 7.86149 -9.00215
457 1 12.58 12.5806 6.28961 -8.98593
458 1 14.1522 14.1521 7.86186 -8.9483
459 1 15.7242 12.5793 6.28977 -8.95019
460 1 17.2967 14.1518 7.86209 -8.94964
461 1 18.8691 12.5794 6.28969 -8.94963
462 1 20.4415 14.1518 7.86211 -8.94964
463 1 4.88962e-07 15.7242 6.28969 -8.94963
464 1 1.57242 17.2966 7.86211 -8.94963
465 1 3.14485 15.7242 6.28969 -8.94966
466 1 4.71727 17.2966 7.86212 -8.94969
467 1 6.28964 15.7243 6.28964 -8.94921
468 1 7.86203 17.2967 7.86202 -8.94928
469 1 9.43456 15.7242 6.28976 -8.95024
470 1 11.007 17.2967 7.86202 -8.94919
471 1 12.5794 15.7243 6.28965 -8.94967
472 1 14.1518 17.2967 7.8621 -8.9497
473 1 15.7242 15.7242 6.28966 -8.9495
474 1 17.2966 17.2966 7.86211 -8.94965
475 1 18.8691 15.7242 6.28968 -8.94963
476 1 20.4415 17.2966 7.86211 -8.94963
477 1 22.0139 18.8691 6.28969 -8.94963
478 1 1.57242 20.4415 7.86211 -8.94963
479 1 3.14484 18.8691 6.28969 -8.94964
480 1 4.71726 20.4415 7.86211 -8.94963
481 1 6.28968 18.8691 6.28968 -8.94961
482 1 7.8621 20.4415 7.8621 -8.94964
483 1 9.43453 18.8691 6.28969 -8.94963
484 1 11.007 20.4415 7.8621 -8.94964
485 1 12.5794 18.8691 6.28968 -8.94962
486 1 14.1518 20.4415 7.86211 -8.94964
487 1 15.7242 18.8691 6.28969 -8.94963
488 1 17.2966 20.4415 7.86211 -8.94963
489 1 18.8691 18.8691 6.28969 -8.94963
490 1 20.4415 20.4415 7.86211 -8.94963
491 1 -1.01439e-06 12.5794 9.43453 -8.94962
492 1 3.14483 12.5795 9.43446 -8.94887
493 1 6.29031 12.5798 9.43379 -9.03508
494 1 9.41749 12.6182 9.42987 -9.26063
495 1 12.5841 12.584 9.43401 -9.01985
496 1 15.7246 12.5795 9.43445 -8.95041
497 1 18.8691 12.5794 9.43453 -8.94973
498 1 22.0139 15.7242 9.43453 -8.94963
499 1 3.14485 15.7242 9.43453 -8.94965
500 1 6.28983 15.7241 9.43451 -8.95058
512 1 1.57229 11.007 11.0069 -8.9505
514 1 7.8214 11.007 10.9931 -9.25874
516 1 14.1541 11.007 11.006 -9.00823
519 1 1.57243 14.1518 11.0069 -8.94963
520 1 4.71737 14.1516 11.0069 -8.95073
521 1 7.86118 14.1519 11.0074 -9.03931
522 1 11.008 14.1517 11.0064 -9.05696
527 1 4.71727 17.2966 11.0069 -8.9497
528 1 7.86196 17.2968 11.007 -8.94868
531 1 17.2966 17.2966 11.0069 -8.94964
534 1 4.71727 20.4415 11.007 -8.94964
538 1 17.2966 20.4415 11.007 -8.94963
532 1 20.4415 17.2966 11.007 -8.94963
355 1 6.28969 12.5794 7.64811e-07 -8.94965
371 1 9.43453 15.7242 2.79922e-07 -8.94963
687 2 9.42974 11.007 11.7943 0.883227
513 1 4.71424 11.007 11.007 -8.9603
686 1 20.4415 20.4415 20.4415 -8.94963
515 1 11.0659 11.007 11.0263 -9.43751
685 1 18.8691 18.8691 18.8691 -8.94963
517 1 17.2967 11.007 11.007 -8.95018
518 1 20.4415 11.007 11.007 -8.94969
684 1 17.2966 20.4415 20.4415 -8.94963
683 1 15.7242 18.8691 18.8691 -8.94963
682 1 14.1518 20.4415 20.4415 -8.94963
681 1 12.5794 18.8691 18.8691 -8.94964
523 1 14.1521 14.152 11.0072 -8.94924
524 1 17.2967 14.1518 11.007 -8.94968
525 1 20.4415 14.1518 11.007 -8.94963
526 1 1.57242 17.2966 11.007 -8.94963
680 1 11.007 20.4415 20.4415 -8.94963
679 1 9.43453 18.8691 18.8691 -8.94963
529 1 11.0071 17.2968 11.007 -8.94857
530 1 14.1518 17.2967 11.007 -8.94971
678 1 7.86211 20.4415 20.4415 -8.94963
389 1 15.7242 18.8691 22.0139 -8.94963
533 1 1.57242 20.4415 11.007 -8.94963
677 1 6.28969 18.8691 18.8691 -8.94964
535 1 7.8621 20.4415 11.007 -8.94963
536 1 11.007 20.4415 11.007 -8.94963
537 1 14.1518 20.4415 11.007 -8.94964
676 1 4.71726 20.4415 20.4415 -8.94963
539 1 20.4415 20.4415 11.007 -8.94963
540 1 1.57241 11.007 14.1518 -8.9497
541 1 4.71704 11.007 14.1518 -8.95079
542 1 7.85861 11.007 14.1568 -8.98502
543 1 11.0105 11.007 14.159 -8.9951
544 1 14.1519 11.007 14.1516 -8.95167
545 1 17.2966 11.007 14.1518 -8.94967
546 1 20.4415 11.007 14.1518 -8.94964
547 1 22.0139 12.5794 12.5794 -8.94964
548 1 1.57241 14.1518 14.1518 -8.94961
549 1 3.14474 12.5795 12.5795 -8.94916
550 1 4.71717 14.1518 14.1518 -8.94968
551 1 6.28933 12.5799 12.5805 -9.00215
552 1 7.8608 14.152 14.1526 -8.98558
553 1 9.4341 12.615 12.5968 -9.28175
554 1 11.0082 14.1518 14.1524 -8.98564
555 1 12.5803 12.5812 12.5805 -9.03598
556 1 14.1519 14.1518 14.1519 -8.94943
557 1 15.7243 12.5794 12.5794 -8.94959
558 1 17.2966 14.1518 14.1518 -8.94966
559 1 18.8691 12.5794 12.5794 -8.94962
560 1 20.4415 14.1518 14.1518 -8.94963
561 1 1.15244e-06 15.7242 12.5794 -8.94964
562 1 1.57242 17.2966 14.1518 -8.94964
563 1 3.14485 15.7242 12.5794 -8.94968
564 1 4.71727 17.2966 14.1518 -8.94969
565 1 6.28974 15.7242 12.5794 -8.94998
566 1 7.86204 17.2967 14.1519 -8.94928
567 1 9.43456 15.7268 12.5793 -8.95971
568 1 11.007 17.2967 14.1519 -8.94921
569 1 12.5793 15.7242 12.5794 -8.95053
570 1 14.1518 17.2966 14.1518 -8.9497
571 1 15.7242 15.7242 12.5794 -8.94952
572 1 17.2966 17.2966 14.1518 -8.94963
573 1 18.8691 15.7242 12.5794 -8.94963
574 1 20.4415 17.2966 14.1518 -8.94963
575 1 22.0139 18.8691 12.5794 -8.94963
576 1 1.57242 20.4415 14.1518 -8.94963
577 1 3.14484 18.8691 12.5794 -8.94963
578 1 4.71726 20.4415 14.1518 -8.94963
579 1 6.28969 18.8691 12.5794 -8.94961
580 1 7.86211 20.4415 14.1518 -8.94963
581 1 9.43453 18.8692 12.5794 -8.95039
582 1 11.007 20.4415 14.1518 -8.94963
583 1 12.5794 18.8691 12.5794 -8.94962
584 1 14.1518 20.4415 14.1518 -8.94963
585 1 15.7242 18.8691 12.5794 -8.94963
586 1 17.2966 20.4415 14.1518 -8.94963
587 1 18.8691 18.8691 12.5794 -8.94963
588 1 20.4415 20.4415 14.1518 -8.94963
589 1 1.57242 11.007 17.2966 -8.94962
590 1 4.71727 11.007 17.2966 -8.94962
591 1 7.8621 11.007 17.297 -8.95103
592 1 11.007 11.007 17.2971 -8.95165
593 1 14.1518 11.007 17.2966 -8.9496
594 1 17.2966 11.007 17.2966 -8.94962
595 1 20.4415 11.007 17.2966 -8.94963
596 1 22.0139 12.5794 15.7242 -8.94964
597 1 1.57242 14.1518 17.2966 -8.94963
598 1 3.14482 12.5794 15.7242 -8.94971
599 1 4.71725 14.1518 17.2967 -8.9495
600 1 6.28936 12.5796 15.7246 -8.94858
601 1 7.86217 14.1517 17.2966 -8.9501
602 1 9.43446 12.5785 15.7235 -8.99906
603 1 11.0069 14.1517 17.2966 -8.9501
604 1 12.5798 12.5797 15.7246 -8.94814
605 1 14.1518 14.1518 17.2967 -8.94948
606 1 15.7242 12.5794 15.7242 -8.94976
607 1 17.2966 14.1518 17.2966 -8.94964
608 1 18.8691 12.5794 15.7242 -8.94964
609 1 20.4415 14.1518 17.2966 -8.94963
610 1 -2.82029e-07 15.7242 15.7242 -8.94963
611 1 1.57242 17.2966 17.2966 -8.94963
612 1 3.14484 15.7242 15.7242 -8.94962
613 1 4.71727 17.2966 17.2966 -8.94962
614 1 6.28966 15.7242 15.7242 -8.94935
615 1 7.86212 17.2966 17.2966 -8.9497
616 1 9.43453 15.724 15.724 -8.95039
617 1 11.0069 17.2966 17.2966 -8.94969
618 1 12.5794 15.7242 15.7242 -8.94944
619 1 14.1518 17.2966 17.2966 -8.94963
620 1 15.7242 15.7242 15.7242 -8.94961
621 1 17.2966 17.2966 17.2966 -8.94963
622 1 18.8691 15.7242 15.7242 -8.94963
623 1 20.4415 17.2966 17.2966 -8.94963
624 1 22.0139 18.8691 15.7242 -8.94963
625 1 1.57242 20.4415 17.2966 -8.94963
626 1 3.14484 18.8691 15.7242 -8.94964
627 1 4.71726 20.4415 17.2966 -8.94963
628 1 6.28968 18.8691 15.7242 -8.94961
629 1 7.86211 20.4415 17.2966 -8.94963
630 1 9.43453 18.869 15.7242 -8.94959
631 1 11.007 20.4415 17.2966 -8.94963
632 1 12.5794 18.8691 15.7242 -8.94961
633 1 14.1518 20.4415 17.2966 -8.94963
634 1 15.7242 18.8691 15.7242 -8.94964
635 1 17.2966 20.4415 17.2966 -8.94963
636 1 18.8691 18.8691 15.7242 -8.94963
637 1 20.4415 20.4415 17.2966 -8.94963
638 1 1.57242 11.007 20.4415 -8.94963
639 1 4.71726 11.007 20.4415 -8.94962
640 1 7.86211 11.007 20.4415 -8.94974
641 1 11.0069 11.007 20.4415 -8.9498
642 1 14.1518 11.007 20.4415 -8.94962
643 1 17.2966 11.007 20.4415 -8.94963
644 1 20.4415 11.007 20.4415 -8.94963
645 1 7.90501e-08 12.5794 18.8691 -8.94963
646 1 1.57242 14.1518 20.4415 -8.94963
647 1 3.14484 12.5794 18.8691 -8.94965
648 1 4.71726 14.1518 20.4415 -8.94963
649 1 6.28967 12.5794 18.8691 -8.94968
650 1 7.86211 14.1518 20.4415 -8.94962
651 1 9.43453 12.5794 18.869 -8.94929
652 1 11.0069 14.1518 20.4415 -8.94962
653 1 12.5794 12.5794 18.8691 -8.94967
654 1 14.1518 14.1518 20.4415 -8.94963
655 1 15.7242 12.5794 18.8691 -8.94965
656 1 17.2966 14.1518 20.4415 -8.94963
657 1 18.8691 12.5794 18.8691 -8.94963
658 1 20.4415 14.1518 20.4415 -8.94963
659 1 22.0139 15.7242 18.8691 -8.94963
660 1 1.57242 17.2966 20.4415 -8.94963
661 1 3.14484 15.7242 18.8691 -8.94962
662 1 4.71726 17.2966 20.4415 -8.94964
663 1 6.28969 15.7242 18.8691 -8.94967
664 1 7.86211 17.2966 20.4415 -8.94963
665 1 9.43453 15.7242 18.8691 -8.94958
666 1 11.007 17.2966 20.4415 -8.94963
667 1 12.5794 15.7242 18.8691 -8.94968
668 1 14.1518 17.2966 20.4415 -8.94964
669 1 15.7242 15.7242 18.8691 -8.94962
670 1 17.2966 17.2966 20.4415 -8.94963
671 1 18.8691 15.7242 18.8691 -8.94963
672 1 20.4415 17.2966 20.4415 -8.94963
673 1 9.57874e-09 18.8691 18.8691 -8.94963
674 1 1.57242 20.4415 20.4415 -8.94963
675 1 3.14484 18.8691 18.8691 -8.94963
353 1 3.14484 12.5794 22.0139 -8.94963
385 1 9.43453 18.8691 22.0139 -8.94963
357 1 9.43453 12.5794 22.0139 -8.94962
361 1 15.7242 12.5794 22.0139 -8.94963
365 1 9.12615e-09 15.7242 22.0139 -8.94963
369 1 6.28969 15.7242 22.0139 -8.94963
381 1 3.14484 18.8691 22.0139 -8.94963
373 1 12.5794 15.7242 22.0139 -8.94963
377 1 18.8691 15.7242 22.0139 -8.94963
