ITEM: TIMESTEP
37
ITEM: NUMBER OF ATOMS
688
ITEM: BOX BOUNDS pp pp pp
0.0000000000000000e+00 2.2013900999999997e+01
0.0000000000000000e+00 2.2013900999999997e+01
0.0000000000000000e+00 2.2013900999999997e+01
ITEM: ATOMS id type x y z c_pot
193 1 11.0072 7.86246 11.0066 -9.05955
2 1 1.57242 1.57242 1.57242 -8.94963
175 1 18.8691 9.43453 9.43453 -8.94967
4 1 4.71726 1.57242 1.57242 -8.94963
174 1 15.7243 9.43452 9.43451 -8.95033
6 1 7.86211 1.57242 1.57242 -8.94963
173 1 12.5823 9.43195 9.43467 -9.0243
8 1 11.007 1.57242 1.57242 -8.94963
172 1 9.42302 9.40892 9.43109 -9.2736
10 1 14.1518 1.57242 1.57242 -8.94963
171 1 6.29088 9.43483 9.43459 -9.03759
12 1 17.2966 1.57242 1.57242 -8.94963
13 1 18.8691 -4.75614e-18 3.81201e-11 -8.94963
14 1 20.4415 1.57242 1.57242 -8.94963
15 1 22.0139 3.14484 1.07349e-10 -8.94963
16 1 1.57242 4.71726 1.57242 -8.94963
170 1 3.14487 9.43451 9.43451 -8.9491
18 1 4.71726 4.71726 1.57242 -8.94963
19 1 6.28969 3.14484 3.33828e-09 -8.94963
20 1 7.86211 4.71726 1.57242 -8.94963
169 1 5.40327e-07 9.43453 9.43453 -8.94962
22 1 11.007 4.71726 1.57242 -8.94963
23 1 12.5794 3.14484 8.02892e-09 -8.94963
24 1 14.1518 4.71726 1.57242 -8.94963
168 1 18.8691 6.28969 9.43453 -8.94963
26 1 17.2966 4.71726 1.57242 -8.94963
27 1 18.8691 3.14484 3.76354e-10 -8.94963
28 1 20.4415 4.71726 1.57242 -8.94963
167 1 15.7242 6.28969 9.43453 -8.94969
30 1 1.57242 7.86211 1.57242 -8.94963
31 1 3.14484 6.28969 6.73703e-09 -8.94963
32 1 4.71726 7.86211 1.57242 -8.94963
166 1 12.5794 6.2896 9.43453 -8.95049
34 1 7.86211 7.86211 1.57242 -8.94963
165 1 9.43457 6.28861 9.43452 -8.95657
36 1 11.007 7.86211 1.57242 -8.94964
164 1 6.28975 6.28976 9.43453 -8.95032
38 1 14.1518 7.86211 1.57242 -8.94962
39 1 15.7242 6.28969 3.04518e-08 -8.94963
40 1 17.2966 7.86211 1.57242 -8.94963
163 1 3.14484 6.28968 9.43453 -8.94962
42 1 20.4415 7.86211 1.57242 -8.94963
43 1 22.0139 9.43453 3.70392e-10 -8.94963
162 1 22.0139 6.28969 9.43453 -8.94963
161 1 18.8691 3.14484 9.43453 -8.94963
160 1 15.7242 3.14484 9.43453 -8.94963
47 1 12.5794 9.43453 1.03959e-07 -8.94963
159 1 12.5794 3.14484 9.43453 -8.94966
49 1 18.8691 9.43453 -1.33867e-09 -8.94963
50 1 22.0139 2.64524e-16 3.14484 -8.94963
51 1 1.57242 1.57242 4.71726 -8.94963
52 1 3.14484 3.48447e-17 3.14484 -8.94963
53 1 4.71726 1.57242 4.71726 -8.94963
54 1 6.28969 3.94328e-16 3.14484 -8.94963
55 1 7.86211 1.57242 4.71726 -8.94963
56 1 9.43453 5.48782e-16 3.14484 -8.94963
57 1 11.007 1.57242 4.71726 -8.94963
58 1 12.5794 4.98863e-16 3.14484 -8.94963
59 1 14.1518 1.57242 4.71726 -8.94963
60 1 15.7242 7.53393e-16 3.14484 -8.94963
61 1 17.2966 1.57242 4.71726 -8.94963
62 1 18.8691 4.12293e-16 3.14484 -8.94963
63 1 20.4415 1.57242 4.71726 -8.94963
64 1 2.65319e-09 3.14484 3.14484 -8.94963
65 1 1.57242 4.71726 4.71726 -8.94963
66 1 3.14484 3.14484 3.14484 -8.94963
67 1 4.71726 4.71726 4.71726 -8.94963
68 1 6.28969 3.14484 3.14484 -8.94963
69 1 7.86211 4.71726 4.71726 -8.94965
70 1 9.43453 3.14484 3.14484 -8.94963
71 1 11.007 4.71727 4.71726 -8.94964
72 1 12.5794 3.14484 3.14484 -8.94963
73 1 14.1518 4.71727 4.71726 -8.94963
74 1 15.7242 3.14484 3.14484 -8.94963
75 1 17.2966 4.71726 4.71726 -8.94963
76 1 18.8691 3.14484 3.14484 -8.94963
77 1 20.4415 4.71726 4.71726 -8.94963
78 1 22.0139 6.28969 3.14484 -8.94963
79 1 1.57242 7.86211 4.71726 -8.94963
80 1 3.14484 6.28969 3.14484 -8.94963
81 1 4.71726 7.8621 4.71726 -8.94959
82 1 6.28969 6.28969 3.14484 -8.94963
83 1 7.86211 7.86211 4.71725 -8.94971
84 1 9.43453 6.28969 3.14484 -8.94963
85 1 11.0069 7.86213 4.71729 -8.95008
86 1 12.5794 6.28968 3.14484 -8.94964
87 1 14.1518 7.86212 4.71727 -8.9497
88 1 15.7242 6.28969 3.14484 -8.94964
89 1 17.2966 7.86211 4.71727 -8.94965
90 1 18.8691 6.28969 3.14484 -8.94963
91 1 20.4415 7.86211 4.71726 -8.94963
92 1 1.47792e-08 9.43453 3.14484 -8.94963
93 1 3.14484 9.43453 3.14484 -8.94964
94 1 6.28968 9.43453 3.14484 -8.94965
95 1 9.43451 9.43451 3.14483 -8.94945
96 1 12.5794 9.43451 3.14485 -8.94935
97 1 15.7242 9.43453 3.14484 -8.94964
98 1 18.8691 9.43453 3.14484 -8.94963
99 1 -3.12288e-11 2.57884e-16 6.28969 -8.94963
100 1 1.57242 1.57242 7.86211 -8.94963
101 1 3.14484 -1.76233e-16 6.28969 -8.94963
102 1 4.71726 1.57242 7.86211 -8.94963
103 1 6.28969 5.13056e-16 6.28969 -8.94963
104 1 7.86211 1.57242 7.86211 -8.94963
105 1 9.43453 6.06914e-16 6.28969 -8.94963
106 1 11.007 1.57242 7.86211 -8.94963
107 1 12.5794 3.61343e-16 6.28969 -8.94963
108 1 14.1518 1.57242 7.86211 -8.94963
109 1 15.7242 5.14775e-16 6.28969 -8.94963
110 1 17.2966 1.57242 7.86211 -8.94963
111 1 18.8691 6.18352e-16 6.28969 -8.94963
112 1 20.4415 1.57242 7.86211 -8.94963
113 1 22.0139 3.14484 6.28969 -8.94963
114 1 1.57242 4.71726 7.86211 -8.94963
115 1 3.14484 3.14484 6.28969 -8.94963
116 1 4.71726 4.71727 7.86211 -8.94964
117 1 6.28969 3.14484 6.28969 -8.94962
118 1 7.86209 4.71726 7.86209 -8.94937
119 1 9.43453 3.14484 6.28969 -8.94964
120 1 11.007 4.71725 7.86209 -8.94943
121 1 12.5794 3.14484 6.28969 -8.94963
122 1 14.1518 4.71726 7.86211 -8.94965
123 1 15.7242 3.14484 6.28969 -8.94963
124 1 17.2966 4.71726 7.86211 -8.94964
125 1 18.8691 3.14484 6.28969 -8.94963
126 1 20.4415 4.71726 7.86211 -8.94963
127 1 9.77704e-08 6.28969 6.28969 -8.94963
128 1 1.57242 7.86211 7.86211 -8.94962
129 1 3.14485 6.28969 6.28969 -8.94965
130 1 4.71731 7.86215 7.86214 -8.94991
131 1 6.28969 6.28969 6.28969 -8.94962
132 1 7.86207 7.86241 7.86168 -8.98827
133 1 9.43453 6.28972 6.28971 -8.95012
134 1 11.0074 7.86211 7.862 -9.00382
135 1 12.5794 6.28968 6.28968 -8.94964
136 1 14.1519 7.86201 7.86203 -8.94896
137 1 15.7242 6.28968 6.28968 -8.94958
138 1 17.2966 7.8621 7.86211 -8.94963
139 1 18.8691 6.28969 6.28969 -8.94963
140 1 20.4415 7.86211 7.86211 -8.94963
141 1 22.0139 9.43453 6.28969 -8.94963
142 1 3.14484 9.43453 6.28968 -8.94965
143 1 6.2896 9.43446 6.28961 -8.94912
144 1 9.43423 9.43455 6.2897 -9.00585
145 1 12.5793 9.43426 6.29014 -8.98946
146 1 15.7242 9.43456 6.28972 -8.94988
147 1 18.8691 9.43453 6.28969 -8.94963
148 1 9.64278e-10 -1.09038e-16 9.43453 -8.94963
149 1 3.14484 3.63694e-16 9.43453 -8.94963
150 1 6.28969 -1.29031e-16 9.43453 -8.94963
151 1 9.43453 3.52362e-16 9.43453 -8.94965
152 1 12.5794 3.04292e-16 9.43453 -8.94963
153 1 15.7242 6.51461e-16 9.43453 -8.94963
154 1 18.8691 4.10331e-16 9.43453 -8.94963
155 1 7.45598e-10 3.14484 9.43453 -8.94963
156 1 3.14484 3.14484 9.43453 -8.94963
157 1 6.28969 3.14485 9.43453 -8.94962
158 1 9.43453 3.14482 9.43453 -8.94994
177 1 4.71726 1.57242 11.007 -8.94963
181 1 17.2966 1.57242 11.007 -8.94963
184 1 4.71726 4.71727 11.0069 -8.94965
185 1 7.86208 4.71725 11.007 -8.94913
188 1 17.2966 4.71726 11.007 -8.94964
190 1 1.57242 7.86211 11.0069 -8.94963
191 1 4.71732 7.86216 11.0069 -8.9503
192 1 7.8622 7.86267 11.0069 -9.04426
189 1 20.4415 4.71726 11.007 -8.94963
35 1 9.43453 6.28969 6.12842e-08 -8.94963
45 1 6.28969 9.43453 1.05612e-07 -8.94964
176 1 1.57242 1.57242 11.007 -8.94963
343 1 18.8691 9.43453 18.8691 -8.94963
178 1 7.86211 1.57242 11.007 -8.94963
179 1 11.007 1.57242 11.007 -8.94963
180 1 14.1518 1.57242 11.007 -8.94963
342 1 15.7242 9.43453 18.8691 -8.94964
182 1 20.4415 1.57242 11.007 -8.94963
183 1 1.57242 4.71726 11.007 -8.94963
341 1 12.5794 9.43453 18.8691 -8.94964
340 1 9.43453 9.43453 18.869 -8.94937
186 1 11.007 4.71724 11.007 -8.94916
187 1 14.1518 4.71726 11.007 -8.94965
339 1 6.28968 9.43453 18.8691 -8.94964
48 1 15.7242 9.43453 22.0139 -8.94963
338 1 3.14484 9.43453 18.8691 -8.94964
337 1 1.0725e-08 9.43453 18.8691 -8.94963
336 1 20.4415 7.86211 20.4415 -8.94963
335 1 18.8691 6.28969 18.8691 -8.94963
194 1 14.1519 7.86202 11.0071 -8.9494
195 1 17.2966 7.86211 11.007 -8.94965
196 1 20.4415 7.86211 11.007 -8.94963
197 1 5.2728e-10 6.81009e-16 12.5794 -8.94963
198 1 1.57242 1.57242 14.1518 -8.94963
199 1 3.14484 6.80667e-16 12.5794 -8.94963
200 1 4.71726 1.57242 14.1518 -8.94963
201 1 6.28969 4.68618e-16 12.5794 -8.94963
202 1 7.86211 1.57242 14.1518 -8.94963
203 1 9.43453 5.27556e-16 12.5794 -8.94965
204 1 11.007 1.57242 14.1518 -8.94963
205 1 12.5794 3.57021e-16 12.5794 -8.94963
206 1 14.1518 1.57242 14.1518 -8.94963
207 1 15.7242 2.96351e-16 12.5794 -8.94963
208 1 17.2966 1.57242 14.1518 -8.94963
209 1 18.8691 3.4344e-16 12.5794 -8.94963
210 1 20.4415 1.57242 14.1518 -8.94963
211 1 22.0139 3.14484 12.5794 -8.94963
212 1 1.57242 4.71726 14.1518 -8.94963
213 1 3.14484 3.14484 12.5794 -8.94963
214 1 4.71726 4.71726 14.1518 -8.94965
215 1 6.28969 3.14484 12.5794 -8.94963
216 1 7.86209 4.71727 14.1518 -8.94936
217 1 9.43453 3.14482 12.5794 -8.94991
218 1 11.007 4.71727 14.1518 -8.94935
219 1 12.5794 3.14484 12.5794 -8.94963
220 1 14.1518 4.71726 14.1518 -8.94964
221 1 15.7242 3.14484 12.5794 -8.94963
222 1 17.2966 4.71726 14.1518 -8.94963
223 1 18.8691 3.14484 12.5794 -8.94963
224 1 20.4415 4.71726 14.1518 -8.94963
225 1 1.32932e-07 6.28969 12.5794 -8.94963
226 1 1.57242 7.86211 14.1518 -8.94962
227 1 3.14485 6.28969 12.5794 -8.94965
228 1 4.71726 7.86211 14.1518 -8.94964
229 1 6.28972 6.28972 12.5794 -8.95012
230 1 7.86181 7.86253 14.1517 -8.9893
231 1 9.43453 6.28873 12.5793 -8.95631
232 1 11.0072 7.86257 14.1517 -8.9895
233 1 12.5793 6.28971 12.5794 -8.95016
234 1 14.1518 7.86212 14.1518 -8.94973
235 1 15.7242 6.28968 12.5794 -8.94958
236 1 17.2966 7.86211 14.1518 -8.94964
237 1 18.8691 6.28969 12.5794 -8.94963
238 1 20.4415 7.86211 14.1518 -8.94963
239 1 22.0139 9.43453 12.5794 -8.94963
240 1 3.14482 9.43451 12.5794 -8.94942
241 1 6.28969 9.43444 12.5798 -9.00388
242 1 9.43438 9.4113 12.5908 -9.29366
243 1 12.5792 9.4342 12.5793 -9.04244
244 1 15.7242 9.43454 12.5794 -8.94964
245 1 18.8691 9.43453 12.5794 -8.94963
246 1 1.91571e-10 3.46951e-16 15.7242 -8.94963
247 1 1.57242 1.57242 17.2966 -8.94963
248 1 3.14484 5.99386e-16 15.7242 -8.94963
249 1 4.71726 1.57242 17.2966 -8.94963
250 1 6.28969 -1.10571e-16 15.7242 -8.94963
251 1 7.86211 1.57242 17.2966 -8.94963
252 1 9.43453 5.31531e-16 15.7242 -8.94963
253 1 11.007 1.57242 17.2966 -8.94963
254 1 12.5794 4.98417e-16 15.7242 -8.94963
255 1 14.1518 1.57242 17.2966 -8.94963
256 1 15.7242 7.91007e-16 15.7242 -8.94963
257 1 17.2966 1.57242 17.2966 -8.94963
258 1 18.8691 4.64125e-16 15.7242 -8.94963
259 1 20.4415 1.57242 17.2966 -8.94963
260 1 22.0139 3.14484 15.7242 -8.94963
261 1 1.57242 4.71726 17.2966 -8.94963
262 1 3.14484 3.14484 15.7242 -8.94963
263 1 4.71727 4.71726 17.2966 -8.94964
264 1 6.28969 3.14484 15.7242 -8.94962
265 1 7.86211 4.71727 17.2966 -8.94964
266 1 9.43453 3.14485 15.7242 -8.94962
267 1 11.0069 4.71726 17.2966 -8.94964
268 1 12.5794 3.14484 15.7242 -8.94962
269 1 14.1518 4.71726 17.2966 -8.94964
270 1 15.7242 3.14484 15.7242 -8.94963
271 1 17.2966 4.71726 17.2966 -8.94963
272 1 18.8691 3.14484 15.7242 -8.94963
273 1 20.4415 4.71726 17.2966 -8.94963
274 1 -7.99686e-10 6.28969 15.7242 -8.94963
275 1 1.57242 7.86211 17.2966 -8.94963
276 1 3.14484 6.28969 15.7242 -8.94963
277 1 4.71726 7.8621 17.2966 -8.94958
278 1 6.2897 6.28969 15.7242 -8.94968
279 1 7.86213 7.86214 17.2966 -8.94986
280 1 9.43453 6.28976 15.7242 -8.95026
281 1 11.0069 7.86214 17.2966 -8.94986
282 1 12.5794 6.28969 15.7242 -8.9497
283 1 14.1518 7.8621 17.2966 -8.94957
284 1 15.7242 6.28969 15.7242 -8.94964
285 1 17.2966 7.86211 17.2966 -8.94963
286 1 18.8691 6.28969 15.7242 -8.94963
287 1 20.4415 7.86211 17.2966 -8.94963
288 1 22.0139 9.43453 15.7242 -8.94963
289 1 3.14484 9.43453 15.7242 -8.94966
290 1 6.28957 9.43443 15.7243 -8.94889
291 1 9.43451 9.43512 15.7234 -8.99787
292 1 12.5795 9.43442 15.7243 -8.9486
293 1 15.7242 9.43453 15.7242 -8.94967
294 1 18.8691 9.43453 15.7242 -8.94963
295 1 22.0139 -3.33157e-17 18.8691 -8.94963
296 1 1.57242 1.57242 20.4415 -8.94963
297 1 3.14484 1.46818e-16 18.8691 -8.94963
298 1 4.71726 1.57242 20.4415 -8.94963
299 1 6.28969 3.45701e-16 18.8691 -8.94963
300 1 7.86211 1.57242 20.4415 -8.94963
301 1 9.43453 3.23051e-16 18.8691 -8.94963
302 1 11.007 1.57242 20.4415 -8.94963
303 1 12.5794 -6.5184e-17 18.8691 -8.94963
304 1 14.1518 1.57242 20.4415 -8.94963
305 1 15.7242 5.12148e-16 18.8691 -8.94963
306 1 17.2966 1.57242 20.4415 -8.94963
307 1 18.8691 1.01462e-16 18.8691 -8.94963
308 1 20.4415 1.57242 20.4415 -8.94963
309 1 1.17267e-09 3.14484 18.8691 -8.94963
310 1 1.57242 4.71726 20.4415 -8.94963
311 1 3.14484 3.14484 18.8691 -8.94963
312 1 4.71726 4.71726 20.4415 -8.94963
313 1 6.28969 3.14484 18.8691 -8.94963
314 1 7.86211 4.71726 20.4415 -8.94963
315 1 9.43453 3.14484 18.8691 -8.94963
316 1 11.007 4.71726 20.4415 -8.94963
317 1 12.5794 3.14484 18.8691 -8.94963
318 1 14.1518 4.71726 20.4415 -8.94963
319 1 15.7242 3.14484 18.8691 -8.94963
320 1 17.2966 4.71726 20.4415 -8.94963
321 1 18.8691 3.14484 18.8691 -8.94963
322 1 20.4415 4.71726 20.4415 -8.94963
323 1 22.0139 6.28969 18.8691 -8.94963
324 1 1.57242 7.86211 20.4415 -8.94963
325 1 3.14484 6.28969 18.8691 -8.94963
326 1 4.71726 7.86211 20.4415 -8.94963
327 1 6.28969 6.28969 18.8691 -8.94965
328 1 7.86211 7.86211 20.4415 -8.94963
329 1 9.43453 6.28968 18.8691 -8.94961
330 1 11.007 7.86211 20.4415 -8.94963
331 1 12.5794 6.28969 18.8691 -8.94965
332 1 14.1518 7.86211 20.4415 -8.94963
333 1 15.7242 6.28969 18.8691 -8.94963
334 1 17.2966 7.86211 20.4415 -8.94963
3 1 3.14484 7.60293e-16 22.0139 -8.94963
5 1 6.28969 4.31117e-16 22.0139 -8.94963
7 1 9.43453 9.15231e-17 22.0139 -8.94963
9 1 12.5794 4.12536e-17 22.0139 -8.94963
11 1 15.7242 6.05103e-16 22.0139 -8.94963
17 1 3.14484 3.14484 22.0139 -8.94963
21 1 9.43453 3.14484 22.0139 -8.94963
25 1 15.7242 3.14484 22.0139 -8.94963
29 1 7.90905e-10 6.28969 22.0139 -8.94963
33 1 6.28969 6.28969 22.0139 -8.94963
46 1 9.43453 9.43453 22.0139 -8.94962
37 1 12.5794 6.28969 22.0139 -8.94963
41 1 18.8691 6.28969 22.0139 -8.94963
44 1 3.14484 9.43453 22.0139 -8.94963
1 1 1.77776e-11 6.00732e-16 22.0139 -8.94963
344 1 1.57242 11.007 1.57242 -8.94963
345 1 4.71726 11.007 1.57242 -8.94963
346 1 7.86211 11.007 1.57242 -8.94966
347 1 11.007 11.007 1.5724 -8.9499
348 1 14.1518 11.007 1.57242 -8.94963
349 1 17.2966 11.007 1.57242 -8.94963
350 1 20.4415 11.007 1.57242 -8.94963
351 1 22.0139 12.5794 3.70392e-10 -8.94963
352 1 1.57242 14.1518 1.57242 -8.94963
688 2 10.2192 11.007 9.43189 0.997653
354 1 4.71726 14.1518 1.57242 -8.94963
511 1 18.8691 18.8691 9.43453 -8.94963
356 1 7.86211 14.1518 1.57242 -8.94963
510 1 15.7242 18.8691 9.43453 -8.94963
358 1 11.007 14.1518 1.57242 -8.94964
359 1 12.5794 12.5794 1.03959e-07 -8.94963
360 1 14.1518 14.1518 1.57242 -8.94962
509 1 12.5794 18.8691 9.43453 -8.94966
362 1 17.2966 14.1518 1.57242 -8.94963
363 1 18.8691 12.5794 -1.33867e-09 -8.94963
364 1 20.4415 14.1518 1.57242 -8.94963
508 1 9.43453 18.8691 9.43453 -8.94994
366 1 1.57242 17.2966 1.57242 -8.94963
367 1 3.14484 15.7242 6.73703e-09 -8.94963
368 1 4.71726 17.2966 1.57242 -8.94963
507 1 6.28969 18.8691 9.43453 -8.94962
370 1 7.86211 17.2966 1.57242 -8.94963
506 1 3.14484 18.8691 9.43453 -8.94963
372 1 11.007 17.2966 1.57242 -8.94963
505 1 7.45599e-10 18.8691 9.43453 -8.94963
374 1 14.1518 17.2966 1.57242 -8.94963
375 1 15.7242 15.7242 3.04518e-08 -8.94963
376 1 17.2966 17.2966 1.57242 -8.94963
504 1 18.8691 15.7242 9.43453 -8.94963
378 1 20.4415 17.2966 1.57242 -8.94963
379 1 22.0139 18.8691 1.07349e-10 -8.94963
380 1 1.57242 20.4415 1.57242 -8.94963
503 1 15.7242 15.7242 9.43453 -8.94969
382 1 4.71726 20.4415 1.57242 -8.94963
383 1 6.28969 18.8691 3.33828e-09 -8.94963
384 1 7.86211 20.4415 1.57242 -8.94963
502 1 12.5794 15.7243 9.43453 -8.95049
386 1 11.007 20.4415 1.57242 -8.94963
387 1 12.5794 18.8691 8.02892e-09 -8.94963
388 1 14.1518 20.4415 1.57242 -8.94963
501 1 9.43457 15.7253 9.43452 -8.95657
390 1 17.2966 20.4415 1.57242 -8.94963
391 1 18.8691 18.8691 3.76355e-10 -8.94963
392 1 20.4415 20.4415 1.57242 -8.94963
393 1 1.57242 11.007 4.71726 -8.94963
394 1 4.71727 11.007 4.71727 -8.94965
395 1 7.86209 11.007 4.71721 -8.95015
396 1 11.0069 11.007 4.71633 -8.9556
397 1 14.1517 11.007 4.71734 -8.95022
398 1 17.2966 11.007 4.71726 -8.94961
399 1 20.4415 11.007 4.71726 -8.94963
400 1 1.47792e-08 12.5794 3.14484 -8.94963
401 1 1.57242 14.1518 4.71726 -8.94963
402 1 3.14484 12.5794 3.14484 -8.94964
403 1 4.71726 14.1518 4.71726 -8.94959
404 1 6.28968 12.5794 3.14484 -8.94965
405 1 7.86211 14.1518 4.71725 -8.94971
406 1 9.43451 12.5794 3.14483 -8.94945
407 1 11.0069 14.1518 4.71729 -8.95008
408 1 12.5794 12.5794 3.14485 -8.94935
409 1 14.1518 14.1518 4.71727 -8.9497
410 1 15.7242 12.5794 3.14484 -8.94964
411 1 17.2966 14.1518 4.71727 -8.94965
412 1 18.8691 12.5794 3.14484 -8.94963
413 1 20.4415 14.1518 4.71726 -8.94963
414 1 22.0139 15.7242 3.14484 -8.94963
415 1 1.57242 17.2966 4.71726 -8.94963
416 1 3.14484 15.7242 3.14484 -8.94963
417 1 4.71726 17.2966 4.71726 -8.94963
418 1 6.28969 15.7242 3.14484 -8.94963
419 1 7.86211 17.2966 4.71726 -8.94965
420 1 9.43453 15.7242 3.14484 -8.94963
421 1 11.007 17.2966 4.71726 -8.94964
422 1 12.5794 15.7242 3.14484 -8.94964
423 1 14.1518 17.2966 4.71726 -8.94963
424 1 15.7242 15.7242 3.14484 -8.94964
425 1 17.2966 17.2966 4.71726 -8.94963
426 1 18.8691 15.7242 3.14484 -8.94963
427 1 20.4415 17.2966 4.71726 -8.94963
428 1 2.65319e-09 18.8691 3.14484 -8.94963
429 1 1.57242 20.4415 4.71726 -8.94963
430 1 3.14484 18.8691 3.14484 -8.94963
431 1 4.71726 20.4415 4.71726 -8.94963
432 1 6.28969 18.8691 3.14484 -8.94963
433 1 7.86211 20.4415 4.71726 -8.94963
434 1 9.43453 18.8691 3.14484 -8.94963
435 1 11.007 20.4415 4.71726 -8.94963
436 1 12.5794 18.8691 3.14484 -8.94963
437 1 14.1518 20.4415 4.71726 -8.94963
438 1 15.7242 18.8691 3.14484 -8.94963
439 1 17.2966 20.4415 4.71726 -8.94963
440 1 18.8691 18.8691 3.14484 -8.94963
441 1 20.4415 20.4415 4.71726 -8.94963
442 1 1.57242 11.007 7.86211 -8.94966
443 1 4.71723 11.007 7.86217 -8.95126
444 1 7.85932 11.007 7.86061 -9.03309
445 1 11.018 11.007 7.8399 -9.2869
446 1 14.1509 11.007 7.86279 -8.9987
447 1 17.2966 11.007 7.86211 -8.94937
448 1 20.4415 11.007 7.86211 -8.94962
449 1 22.0139 12.5794 6.28969 -8.94963
450 1 1.57242 14.1518 7.86211 -8.94962
451 1 3.14484 12.5794 6.28968 -8.94965
452 1 4.71731 14.1518 7.86214 -8.94991
453 1 6.2896 12.5794 6.28961 -8.94912
454 1 7.86207 14.1515 7.86168 -8.98827
455 1 9.43423 12.5794 6.2897 -9.00585
456 1 11.0074 14.1518 7.862 -9.00382
457 1 12.5793 12.5796 6.29014 -8.98946
458 1 14.1519 14.1519 7.86203 -8.94896
459 1 15.7242 12.5793 6.28972 -8.94988
460 1 17.2966 14.1518 7.86211 -8.94963
461 1 18.8691 12.5794 6.28969 -8.94963
462 1 20.4415 14.1518 7.86211 -8.94963
463 1 9.77704e-08 15.7242 6.28969 -8.94963
464 1 1.57242 17.2966 7.86211 -8.94963
465 1 3.14485 15.7242 6.28969 -8.94965
466 1 4.71726 17.2966 7.86211 -8.94964
467 1 6.28969 15.7242 6.28969 -8.94962
468 1 7.86209 17.2966 7.86209 -8.94937
469 1 9.43453 15.7242 6.28971 -8.95012
470 1 11.007 17.2967 7.86209 -8.94943
471 1 12.5794 15.7242 6.28968 -8.94964
472 1 14.1518 17.2966 7.86211 -8.94965
473 1 15.7242 15.7242 6.28968 -8.94958
474 1 17.2966 17.2966 7.86211 -8.94964
475 1 18.8691 15.7242 6.28969 -8.94963
476 1 20.4415 17.2966 7.86211 -8.94963
477 1 22.0139 18.8691 6.28969 -8.94963
478 1 1.57242 20.4415 7.86211 -8.94963
479 1 3.14484 18.8691 6.28969 -8.94963
480 1 4.71726 20.4415 7.86211 -8.94963
481 1 6.28969 18.8691 6.28969 -8.94962
482 1 7.86211 20.4415 7.86211 -8.94963
483 1 9.43453 18.8691 6.28969 -8.94964
484 1 11.007 20.4415 7.86211 -8.94963
485 1 12.5794 18.8691 6.28969 -8.94963
486 1 14.1518 20.4415 7.86211 -8.94963
487 1 15.7242 18.8691 6.28969 -8.94963
488 1 17.2966 20.4415 7.86211 -8.94963
489 1 18.8691 18.8691 6.28969 -8.94963
490 1 20.4415 20.4415 7.86211 -8.94963
491 1 5.40327e-07 12.5794 9.43453 -8.94962
492 1 3.14487 12.5794 9.43451 -8.9491
493 1 6.29088 12.5791 9.43459 -9.03759
494 1 9.42302 12.605 9.43109 -9.2736
495 1 12.5823 12.582 9.43467 -9.0243
496 1 15.7243 12.5794 9.43451 -8.95033
497 1 18.8691 12.5794 9.43453 -8.94967
498 1 22.0139 15.7242 9.43453 -8.94963
499 1 3.14484 15.7242 9.43453 -8.94962
500 1 6.28975 15.7241 9.43453 -8.95032
512 1 1.57239 11.007 11.0069 -8.94995
514 1 7.83533 11.007 10.9977 -9.27215
516 1 14.1521 11.007 11.0064 -9.00422
519 1 1.57242 14.1518 11.0069 -8.94963
520 1 4.71732 14.1517 11.0069 -8.9503
521 1 7.8622 14.1512 11.0069 -9.04426
522 1 11.0072 14.1514 11.0066 -9.05955
527 1 4.71726 17.2966 11.0069 -8.94965
528 1 7.86208 17.2966 11.007 -8.94913
531 1 17.2966 17.2966 11.007 -8.94964
534 1 4.71726 20.4415 11.007 -8.94963
538 1 17.2966 20.4415 11.007 -8.94963
532 1 20.4415 17.2966 11.007 -8.94963
355 1 6.28969 12.5794 1.05612e-07 -8.94964
371 1 9.43453 15.7242 6.12842e-08 -8.94963
687 2 9.43178 11.007 11.7942 0.997684
513 1 4.71617 11.007 11.007 -8.95677
686 1 20.4415 20.4415 20.4415 -8.94963
515 1 11.0457 11.007 11.0198 -9.45907
685 1 18.8691 18.8691 18.8691 -8.94963
517 1 17.2966 11.007 11.007 -8.94967
518 1 20.4415 11.007 11.007 -8.94964
684 1 17.2966 20.4415 20.4415 -8.94963
683 1 15.7242 18.8691 18.8691 -8.94963
682 1 14.1518 20.4415 20.4415 -8.94963
681 1 12.5794 18.8691 18.8691 -8.94963
523 1 14.1519 14.1519 11.0071 -8.9494
524 1 17.2966 14.1518 11.007 -8.94965
525 1 20.4415 14.1518 11.007 -8.94963
526 1 1.57242 17.2966 11.007 -8.94963
680 1 11.007 20.4415 20.4415 -8.94963
679 1 9.43453 18.8691 18.8691 -8.94963
529 1 11.007 17.2967 11.007 -8.94916
530 1 14.1518 17.2966 11.007 -8.94965
678 1 7.86211 20.4415 20.4415 -8.94963
389 1 15.7242 18.8691 22.0139 -8.94963
533 1 1.57242 20.4415 11.007 -8.94963
677 1 6.28969 18.8691 18.8691 -8.94963
535 1 7.86211 20.4415 11.007 -8.94963
536 1 11.007 20.4415 11.007 -8.94963
537 1 14.1518 20.4415 11.007 -8.94963
676 1 4.71726 20.4415 20.4415 -8.94963
539 1 20.4415 20.4415 11.007 -8.94963
540 1 1.57242 11.007 14.1518 -8.94966
541 1 4.71718 11.007 14.1518 -8.95047
542 1 7.85975 11.007 14.1553 -8.98559
543 1 11.0093 11.007 14.1561 -8.99201
544 1 14.1518 11.007 14.1517 -8.95116
545 1 17.2966 11.007 14.1518 -8.94964
546 1 20.4415 11.007 14.1518 -8.94963
547 1 22.0139 12.5794 12.5794 -8.94963
548 1 1.57242 14.1518 14.1518 -8.94962
549 1 3.14482 12.5794 12.5794 -8.94942
550 1 4.71726 14.1518 14.1518 -8.94964
551 1 6.28969 12.5795 12.5798 -9.00388
552 1 7.86181 14.1514 14.1517 -8.9893
553 1 9.43438 12.6026 12.5908 -9.29366
554 1 11.0072 14.1513 14.1517 -8.9895
555 1 12.5792 12.5797 12.5793 -9.04244
556 1 14.1518 14.1518 14.1518 -8.94973
557 1 15.7242 12.5794 12.5794 -8.94964
558 1 17.2966 14.1518 14.1518 -8.94964
559 1 18.8691 12.5794 12.5794 -8.94963
560 1 20.4415 14.1518 14.1518 -8.94963
561 1 1.32932e-07 15.7242 12.5794 -8.94963
562 1 1.57242 17.2966 14.1518 -8.94963
563 1 3.14485 15.7242 12.5794 -8.94965
564 1 4.71726 17.2966 14.1518 -8.94965
565 1 6.28972 15.7242 12.5794 -8.95012
566 1 7.86209 17.2966 14.1518 -8.94936
567 1 9.43453 15.7252 12.5793 -8.95631
568 1 11.007 17.2966 14.1518 -8.94935
569 1 12.5793 15.7242 12.5794 -8.95016
570 1 14.1518 17.2966 14.1518 -8.94964
571 1 15.7242 15.7242 12.5794 -8.94958
572 1 17.2966 17.2966 14.1518 -8.94963
573 1 18.8691 15.7242 12.5794 -8.94963
574 1 20.4415 17.2966 14.1518 -8.94963
575 1 22.0139 18.8691 12.5794 -8.94963
576 1 1.57242 20.4415 14.1518 -8.94963
577 1 3.14484 18.8691 12.5794 -8.94963
578 1 4.71726 20.4415 14.1518 -8.94963
579 1 6.28969 18.8691 12.5794 -8.94963
580 1 7.86211 20.4415 14.1518 -8.94963
581 1 9.43453 18.8691 12.5794 -8.94991
582 1 11.007 20.4415 14.1518 -8.94963
583 1 12.5794 18.8691 12.5794 -8.94963
584 1 14.1518 20.4415 14.1518 -8.94963
585 1 15.7242 18.8691 12.5794 -8.94963
586 1 17.2966 20.4415 14.1518 -8.94963
587 1 18.8691 18.8691 12.5794 -8.94963
588 1 20.4415 20.4415 14.1518 -8.94963
589 1 1.57242 11.007 17.2966 -8.94963
590 1 4.71727 11.007 17.2966 -8.94967
591 1 7.86211 11.007 17.2967 -8.95067
592 1 11.0069 11.007 17.2968 -8.95089
593 1 14.1518 11.007 17.2966 -8.94967
594 1 17.2966 11.007 17.2966 -8.94963
595 1 20.4415 11.007 17.2966 -8.94963
596 1 22.0139 12.5794 15.7242 -8.94963
597 1 1.57242 14.1518 17.2966 -8.94963
598 1 3.14484 12.5794 15.7242 -8.94966
599 1 4.71726 14.1518 17.2966 -8.94958
600 1 6.28957 12.5795 15.7243 -8.94889
601 1 7.86213 14.1518 17.2966 -8.94986
602 1 9.43451 12.5788 15.7234 -8.99787
603 1 11.0069 14.1518 17.2966 -8.94986
604 1 12.5795 12.5795 15.7243 -8.9486
605 1 14.1518 14.1518 17.2966 -8.94957
606 1 15.7242 12.5794 15.7242 -8.94967
607 1 17.2966 14.1518 17.2966 -8.94963
608 1 18.8691 12.5794 15.7242 -8.94963
609 1 20.4415 14.1518 17.2966 -8.94963
610 1 -7.99686e-10 15.7242 15.7242 -8.94963
611 1 1.57242 17.2966 17.2966 -8.94963
612 1 3.14484 15.7242 15.7242 -8.94963
613 1 4.71727 17.2966 17.2966 -8.94964
614 1 6.2897 15.7242 15.7242 -8.94968
615 1 7.86211 17.2966 17.2966 -8.94964
616 1 9.43453 15.7241 15.7242 -8.95026
617 1 11.0069 17.2966 17.2966 -8.94964
618 1 12.5794 15.7242 15.7242 -8.9497
619 1 14.1518 17.2966 17.2966 -8.94964
620 1 15.7242 15.7242 15.7242 -8.94964
621 1 17.2966 17.2966 17.2966 -8.94963
622 1 18.8691 15.7242 15.7242 -8.94963
623 1 20.4415 17.2966 17.2966 -8.94963
624 1 22.0139 18.8691 15.7242 -8.94963
625 1 1.57242 20.4415 17.2966 -8.94963
626 1 3.14484 18.8691 15.7242 -8.94963
627 1 4.71726 20.4415 17.2966 -8.94963
628 1 6.28969 18.8691 15.7242 -8.94962
629 1 7.86211 20.4415 17.2966 -8.94963
630 1 9.43453 18.8691 15.7242 -8.94962
631 1 11.007 20.4415 17.2966 -8.94963
632 1 12.5794 18.8691 15.7242 -8.94962
633 1 14.1518 20.4415 17.2966 -8.94963
634 1 15.7242 18.8691 15.7242 -8.94963
635 1 17.2966 20.4415 17.2966 -8.94963
636 1 18.8691 18.8691 15.7242 -8.94963
637 1 20.4415 20.4415 17.2966 -8.94963
638 1 1.57242 11.007 20.4415 -8.94963
639 1 4.71726 11.007 20.4415 -8.94963
640 1 7.86211 11.007 20.4415 -8.94967
641 1 11.0069 11.007 20.4415 -8.94968
642 1 14.1518 11.007 20.4415 -8.94963
643 1 17.2966 11.007 20.4415 -8.94963
644 1 20.4415 11.007 20.4415 -8.94963
645 1 1.0725e-08 12.5794 18.8691 -8.94963
646 1 1.57242 14.1518 20.4415 -8.94963
647 1 3.14484 12.5794 18.8691 -8.94964
648 1 4.71726 14.1518 20.4415 -8.94963
649 1 6.28968 12.5794 18.8691 -8.94964
650 1 7.86211 14.1518 20.4415 -8.94963
651 1 9.43453 12.5794 18.869 -8.94937
652 1 11.007 14.1518 20.4415 -8.94963
653 1 12.5794 12.5794 18.8691 -8.94964
654 1 14.1518 14.1518 20.4415 -8.94963
655 1 15.7242 12.5794 18.8691 -8.94964
656 1 17.2966 14.1518 20.4415 -8.94963
657 1 18.8691 12.5794 18.8691 -8.94963
658 1 20.4415 14.1518 20.4415 -8.94963
659 1 22.0139 15.7242 18.8691 -8.94963
660 1 1.57242 17.2966 20.4415 -8.94963
661 1 3.14484 15.7242 18.8691 -8.94963
662 1 4.71726 17.2966 20.4415 -8.94963
663 1 6.28969 15.7242 18.8691 -8.94965
664 1 7.86211 17.2966 20.4415 -8.94963
665 1 9.43453 15.7242 18.8691 -8.94961
666 1 11.007 17.2966 20.4415 -8.94963
667 1 12.5794 15.7242 18.8691 -8.94965
668 1 14.1518 17.2966 20.4415 -8.94963
669 1 15.7242 15.7242 18.8691 -8.94963
670 1 17.2966 17.2966 20.4415 -8.94963
671 1 18.8691 15.7242 18.8691 -8.94963
672 1 20.4415 17.2966 20.4415 -8.94963
673 1 1.17267e-09 18.8691 18.8691 -8.94963
674 1 1.57242 20.4415 20.4415 -8.94963
675 1 3.14484 18.8691 18.8691 -8.94963
353 1 3.14484 12.5794 22.0139 -8.94963
385 1 9.43453 18.8691 22.0139 -8.94963
357 1 9.43453 12.5794 22.0139 -8.94962
361 1 15.7242 12.5794 22.0139 -8.94963
365 1 7.90905e-10 15.7242 22.0139 -8.94963
369 1 6.28969 15.7242 22.0139 -8.94963
381 1 3.14484 18.8691 22.0139 -8.94963
373 1 12.5794 15.7242 22.0139 -8.94963
377 1 18.8691 15.7242 22.0139 -8.94963
