ITEM: TIMESTEP
7
ITEM: NUMBER OF ATOMS
688
ITEM: BOX BOUNDS pp pp pp
0.0000000000000000e+00 2.2013900999999997e+01
0.0000000000000000e+00 2.2013900999999997e+01
0.0000000000000000e+00 2.2013900999999997e+01
ITEM: ATOMS id type x y z c_pot
1 1 1.38028e-16 3.90324e-17 3.9668e-17 -8.94963
2 1 1.57242 1.57242 1.57242 -8.94963
3 1 3.14484 3.87774e-17 -8.65938e-17 -8.94963
4 1 4.71726 1.57242 1.57242 -8.94963
5 1 6.28969 3.84437e-17 5.42839e-16 -8.94963
6 1 7.86211 1.57242 1.57242 -8.94963
7 1 9.43453 5.23618e-17 2.52907e-14 -8.94963
8 1 11.007 1.57242 1.57242 -8.94963
9 1 12.5794 2.24296e-17 4.60104e-15 -8.94963
10 1 14.1518 1.57242 1.57242 -8.94963
11 1 15.7242 3.45084e-17 -2.03572e-15 -8.94963
12 1 17.2966 1.57242 1.57242 -8.94963
13 1 18.8691 3.9906e-17 9.28133e-17 -8.94963
14 1 20.4415 1.57242 1.57242 -8.94963
15 1 1.10245e-15 3.14484 2.99418e-16 -8.94963
16 1 1.57242 4.71726 1.57242 -8.94963
17 1 3.14484 3.14484 -8.91437e-15 -8.94963
18 1 4.71726 4.71726 1.57242 -8.94963
19 1 6.28969 3.14484 -3.74311e-14 -8.94963
20 1 7.86211 4.71726 1.57242 -8.94963
21 1 9.43453 3.14484 -4.75873e-12 -8.94963
22 1 11.007 4.71726 1.57242 -8.94963
23 1 12.5794 3.14484 4.1293e-12 -8.94963
24 1 14.1518 4.71726 1.57242 -8.94963
25 1 15.7242 3.14484 -1.33744e-13 -8.94963
26 1 17.2966 4.71726 1.57242 -8.94963
27 1 18.8691 3.14484 1.09245e-14 -8.94963
28 1 20.4415 4.71726 1.57242 -8.94963
29 1 -1.80358e-14 6.28969 2.19879e-15 -8.94963
30 1 1.57242 7.86211 1.57242 -8.94963
31 1 3.14484 6.28969 -1.1256e-16 -8.94963
32 1 4.71726 7.86211 1.57242 -8.94963
33 1 6.28969 6.28969 -1.33423e-11 -8.94963
34 1 7.86211 7.86211 1.57242 -8.94963
35 1 9.43453 6.28969 -9.25943e-11 -8.94963
36 1 11.007 7.86211 1.57242 -8.94963
37 1 12.5794 6.28969 -8.53572e-12 -8.94963
38 1 14.1518 7.86211 1.57242 -8.94963
39 1 15.7242 6.28969 1.3206e-11 -8.94963
40 1 17.2966 7.86211 1.57242 -8.94963
41 1 18.8691 6.28969 -8.29133e-14 -8.94963
42 1 20.4415 7.86211 1.57242 -8.94963
43 1 -2.07723e-13 9.43453 -3.38488e-14 -8.94963
44 1 3.14484 9.43453 -3.7133e-12 -8.94963
45 1 6.28969 9.43453 -7.98748e-11 -8.94963
46 1 9.43453 9.43453 -1.5901e-09 -8.94963
47 1 12.5794 9.43453 9.38878e-10 -8.94963
48 1 15.7242 9.43453 2.48998e-11 -8.94963
49 1 18.8691 9.43453 5.02734e-12 -8.94963
50 1 1.62625e-15 3.84319e-17 3.14484 -8.94963
51 1 1.57242 1.57242 4.71726 -8.94963
52 1 3.14484 3.00067e-17 3.14484 -8.94963
53 1 4.71726 1.57242 4.71726 -8.94963
54 1 6.28969 3.83877e-17 3.14484 -8.94963
55 1 7.86211 1.57242 4.71726 -8.94963
56 1 9.43453 4.88751e-17 3.14484 -8.94963
57 1 11.007 1.57242 4.71726 -8.94963
58 1 12.5794 4.86148e-17 3.14484 -8.94963
59 1 14.1518 1.57242 4.71726 -8.94963
60 1 15.7242 2.67881e-17 3.14484 -8.94963
61 1 17.2966 1.57242 4.71726 -8.94963
62 1 18.8691 2.41327e-17 3.14484 -8.94963
63 1 20.4415 1.57242 4.71726 -8.94963
64 1 3.77435e-14 3.14484 3.14484 -8.94963
65 1 1.57242 4.71726 4.71726 -8.94963
66 1 3.14484 3.14484 3.14484 -8.94963
67 1 4.71726 4.71726 4.71726 -8.94963
68 1 6.28969 3.14484 3.14484 -8.94963
69 1 7.86211 4.71726 4.71726 -8.94963
70 1 9.43453 3.14484 3.14484 -8.94963
71 1 11.007 4.71726 4.71726 -8.94963
72 1 12.5794 3.14484 3.14484 -8.94963
73 1 14.1518 4.71726 4.71726 -8.94963
74 1 15.7242 3.14484 3.14484 -8.94963
75 1 17.2966 4.71726 4.71726 -8.94963
76 1 18.8691 3.14484 3.14484 -8.94963
77 1 20.4415 4.71726 4.71726 -8.94963
78 1 -6.52736e-13 6.28969 3.14484 -8.94963
79 1 1.57242 7.86211 4.71726 -8.94963
80 1 3.14484 6.28969 3.14484 -8.94963
81 1 4.71726 7.86211 4.71726 -8.94963
82 1 6.28969 6.28969 3.14484 -8.94963
83 1 7.86211 7.86211 4.71726 -8.94963
84 1 9.43453 6.28969 3.14484 -8.94963
85 1 11.007 7.86211 4.71726 -8.94968
86 1 12.5794 6.28969 3.14484 -8.94963
87 1 14.1518 7.86211 4.71726 -8.94966
88 1 15.7242 6.28969 3.14484 -8.94963
89 1 17.2966 7.86211 4.71726 -8.94963
90 1 18.8691 6.28969 3.14484 -8.94963
91 1 20.4415 7.86211 4.71726 -8.94963
92 1 7.44083e-12 9.43453 3.14484 -8.94963
93 1 3.14484 9.43453 3.14484 -8.94963
94 1 6.28969 9.43453 3.14484 -8.94963
95 1 9.43453 9.43453 3.14484 -8.94962
96 1 12.5794 9.43453 3.14484 -8.9496
97 1 15.7242 9.43453 3.14484 -8.94963
98 1 18.8691 9.43453 3.14484 -8.94963
99 1 -1.54194e-14 2.45295e-17 6.28969 -8.94963
100 1 1.57242 1.57242 7.86211 -8.94963
101 1 3.14484 3.04993e-17 6.28969 -8.94963
102 1 4.71726 1.57242 7.86211 -8.94963
103 1 6.28969 5.82462e-17 6.28969 -8.94963
104 1 7.86211 1.57242 7.86211 -8.94963
105 1 9.43453 3.98248e-17 6.28969 -8.94963
106 1 11.007 1.57242 7.86211 -8.94963
107 1 12.5794 3.48392e-17 6.28969 -8.94963
108 1 14.1518 1.57242 7.86211 -8.94963
109 1 15.7242 2.63075e-17 6.28969 -8.94963
110 1 17.2966 1.57242 7.86211 -8.94963
111 1 18.8691 3.40134e-17 6.28969 -8.94963
112 1 20.4415 1.57242 7.86211 -8.94963
113 1 -5.55794e-13 3.14484 6.28969 -8.94963
114 1 1.57242 4.71726 7.86211 -8.94963
115 1 3.14484 3.14484 6.28969 -8.94963
116 1 4.71726 4.71726 7.86211 -8.94963
117 1 6.28969 3.14484 6.28969 -8.94963
118 1 7.86211 4.71726 7.86211 -8.9496
119 1 9.43453 3.14484 6.28969 -8.94963
120 1 11.007 4.71726 7.86211 -8.94962
121 1 12.5794 3.14484 6.28969 -8.94963
122 1 14.1518 4.71726 7.86211 -8.94963
123 1 15.7242 3.14484 6.28969 -8.94963
124 1 17.2966 4.71726 7.86211 -8.94963
125 1 18.8691 3.14484 6.28969 -8.94963
126 1 20.4415 4.71726 7.86211 -8.94963
127 1 2.99538e-11 6.28969 6.28969 -8.94963
128 1 1.57242 7.86211 7.86211 -8.94963
129 1 3.14484 6.28969 6.28969 -8.94963
130 1 4.71727 7.86211 7.86211 -8.94968
131 1 6.28969 6.28969 6.28969 -8.94966
132 1 7.86217 7.8622 7.86213 -8.99479
133 1 9.43453 6.28968 6.28968 -8.94969
134 1 11.007 7.86213 7.86213 -9.00641
135 1 12.5794 6.28969 6.28969 -8.94963
136 1 14.1518 7.86211 7.86211 -8.94958
137 1 15.7242 6.28969 6.28969 -8.94963
138 1 17.2966 7.86211 7.86211 -8.94963
139 1 18.8691 6.28969 6.28969 -8.94963
140 1 20.4415 7.86211 7.86211 -8.94963
141 1 2.15824e-11 9.43453 6.28969 -8.94963
142 1 3.14484 9.43453 6.28969 -8.94963
143 1 6.28968 9.43453 6.28968 -8.94956
144 1 9.43452 9.43455 6.28971 -9.00663
145 1 12.5793 9.43456 6.28979 -8.9949
146 1 15.7242 9.43453 6.28969 -8.94965
147 1 18.8691 9.43453 6.28969 -8.94963
148 1 -2.68363e-13 1.78572e-17 9.43453 -8.94963
149 1 3.14484 2.11704e-17 9.43453 -8.94963
150 1 6.28969 5.13497e-17 9.43453 -8.94963
151 1 9.43453 4.0243e-17 9.43453 -8.94963
152 1 12.5794 3.09058e-17 9.43453 -8.94963
153 1 15.7242 2.89658e-17 9.43453 -8.94963
154 1 18.8691 4.25416e-17 9.43453 -8.94963
155 1 8.44543e-12 3.14484 9.43453 -8.94963
156 1 3.14484 3.14484 9.43453 -8.94963
157 1 6.28969 3.14484 9.43453 -8.94963
158 1 9.43453 3.14484 9.43453 -8.94964
159 1 12.5794 3.14484 9.43453 -8.94963
160 1 15.7242 3.14484 9.43453 -8.94963
161 1 18.8691 3.14484 9.43453 -8.94963
162 1 5.84584e-11 6.28969 9.43453 -8.94963
163 1 3.14484 6.28969 9.43453 -8.94963
164 1 6.28968 6.28969 9.43453 -8.94971
165 1 9.43453 6.28966 9.43453 -8.95065
166 1 12.5794 6.28968 9.43453 -8.94972
167 1 15.7242 6.28969 9.43453 -8.94964
168 1 18.8691 6.28969 9.43453 -8.94963
169 1 2.42329e-09 9.43453 9.43453 -8.94963
170 1 3.14484 9.43453 9.43453 -8.94957
171 1 6.2899 9.43463 9.43459 -9.04103
172 1 9.43326 9.43172 9.43412 -9.2848
173 1 12.5797 9.43431 9.4346 -9.031
174 1 15.7242 9.43453 9.43453 -8.94973
175 1 18.8691 9.43453 9.43453 -8.94963
176 1 1.57242 1.57242 11.007 -8.94963
177 1 4.71726 1.57242 11.007 -8.94963
178 1 7.86211 1.57242 11.007 -8.94963
179 1 11.007 1.57242 11.007 -8.94963
180 1 14.1518 1.57242 11.007 -8.94963
181 1 17.2966 1.57242 11.007 -8.94963
182 1 20.4415 1.57242 11.007 -8.94963
183 1 1.57242 4.71726 11.007 -8.94963
184 1 4.71726 4.71726 11.007 -8.94963
185 1 7.86211 4.71726 11.007 -8.94959
186 1 11.007 4.71726 11.007 -8.9496
187 1 14.1518 4.71726 11.007 -8.94963
188 1 17.2966 4.71726 11.007 -8.94963
189 1 20.4415 4.71726 11.007 -8.94963
190 1 1.57242 7.86211 11.007 -8.94963
191 1 4.71726 7.86211 11.007 -8.9497
192 1 7.86219 7.86223 11.0069 -9.05174
193 1 11.0069 7.86217 11.0069 -9.06334
194 1 14.1518 7.8621 11.007 -8.94961
195 1 17.2966 7.86211 11.007 -8.94963
196 1 20.4415 7.86211 11.007 -8.94963
197 1 -2.47882e-13 3.78183e-17 12.5794 -8.94963
198 1 1.57242 1.57242 14.1518 -8.94963
199 1 3.14484 3.85748e-17 12.5794 -8.94963
200 1 4.71726 1.57242 14.1518 -8.94963
201 1 6.28969 3.57669e-17 12.5794 -8.94963
202 1 7.86211 1.57242 14.1518 -8.94963
203 1 9.43453 3.0678e-17 12.5794 -8.94963
204 1 11.007 1.57242 14.1518 -8.94963
205 1 12.5794 3.50542e-17 12.5794 -8.94963
206 1 14.1518 1.57242 14.1518 -8.94963
207 1 15.7242 4.06148e-17 12.5794 -8.94963
208 1 17.2966 1.57242 14.1518 -8.94963
209 1 18.8691 3.48992e-17 12.5794 -8.94963
210 1 20.4415 1.57242 14.1518 -8.94963
211 1 -4.54947e-13 3.14484 12.5794 -8.94963
212 1 1.57242 4.71726 14.1518 -8.94963
213 1 3.14484 3.14484 12.5794 -8.94963
214 1 4.71726 4.71726 14.1518 -8.94963
215 1 6.28969 3.14484 12.5794 -8.94963
216 1 7.86211 4.71726 14.1518 -8.9496
217 1 9.43453 3.14484 12.5794 -8.94964
218 1 11.007 4.71726 14.1518 -8.9496
219 1 12.5794 3.14484 12.5794 -8.94963
220 1 14.1518 4.71726 14.1518 -8.94963
221 1 15.7242 3.14484 12.5794 -8.94963
222 1 17.2966 4.71726 14.1518 -8.94963
223 1 18.8691 3.14484 12.5794 -8.94963
224 1 20.4415 4.71726 14.1518 -8.94963
225 1 -2.5453e-11 6.28969 12.5794 -8.94963
226 1 1.57242 7.86211 14.1518 -8.94963
227 1 3.14484 6.28969 12.5794 -8.94963
228 1 4.71726 7.86211 14.1518 -8.94963
229 1 6.28968 6.28968 12.5794 -8.94971
230 1 7.86214 7.86221 14.1517 -8.99489
231 1 9.43453 6.28966 12.5794 -8.95061
232 1 11.0069 7.86221 14.1517 -8.99492
233 1 12.5794 6.28968 12.5794 -8.94968
234 1 14.1518 7.86211 14.1518 -8.94967
235 1 15.7242 6.28969 12.5794 -8.94963
236 1 17.2966 7.86211 14.1518 -8.94963
237 1 18.8691 6.28969 12.5794 -8.94963
238 1 20.4415 7.86211 14.1518 -8.94963
239 1 -1.07193e-10 9.43453 12.5794 -8.94963
240 1 3.14484 9.43453 12.5794 -8.94962
241 1 6.28971 9.43455 12.5794 -9.00641
242 1 9.43453 9.43201 12.5806 -9.3057
243 1 12.5793 9.43459 12.5793 -9.05162
244 1 15.7242 9.43453 12.5794 -8.94964
245 1 18.8691 9.43453 12.5794 -8.94963
246 1 -1.27949e-14 3.15667e-17 15.7242 -8.94963
247 1 1.57242 1.57242 17.2966 -8.94963
248 1 3.14484 2.50595e-17 15.7242 -8.94963
249 1 4.71726 1.57242 17.2966 -8.94963
250 1 6.28969 3.16503e-17 15.7242 -8.94963
251 1 7.86211 1.57242 17.2966 -8.94963
252 1 9.43453 4.5376e-17 15.7242 -8.94963
253 1 11.007 1.57242 17.2966 -8.94963
254 1 12.5794 3.46609e-17 15.7242 -8.94963
255 1 14.1518 1.57242 17.2966 -8.94963
256 1 15.7242 3.41483e-17 15.7242 -8.94963
257 1 17.2966 1.57242 17.2966 -8.94963
258 1 18.8691 3.25011e-17 15.7242 -8.94963
259 1 20.4415 1.57242 17.2966 -8.94963
260 1 -4.59858e-13 3.14484 15.7242 -8.94963
261 1 1.57242 4.71726 17.2966 -8.94963
262 1 3.14484 3.14484 15.7242 -8.94963
263 1 4.71726 4.71726 17.2966 -8.94963
264 1 6.28969 3.14484 15.7242 -8.94963
265 1 7.86211 4.71726 17.2966 -8.94963
266 1 9.43453 3.14484 15.7242 -8.94963
267 1 11.007 4.71726 17.2966 -8.94963
268 1 12.5794 3.14484 15.7242 -8.94963
269 1 14.1518 4.71726 17.2966 -8.94963
270 1 15.7242 3.14484 15.7242 -8.94963
271 1 17.2966 4.71726 17.2966 -8.94963
272 1 18.8691 3.14484 15.7242 -8.94963
273 1 20.4415 4.71726 17.2966 -8.94963
274 1 3.36131e-12 6.28969 15.7242 -8.94963
275 1 1.57242 7.86211 17.2966 -8.94963
276 1 3.14484 6.28969 15.7242 -8.94963
277 1 4.71726 7.86211 17.2966 -8.94963
278 1 6.28969 6.28969 15.7242 -8.94966
279 1 7.86211 7.86211 17.2966 -8.94965
280 1 9.43453 6.28969 15.7242 -8.94971
281 1 11.007 7.86211 17.2966 -8.94965
282 1 12.5794 6.28969 15.7242 -8.94966
283 1 14.1518 7.86211 17.2966 -8.94963
284 1 15.7242 6.28969 15.7242 -8.94963
285 1 17.2966 7.86211 17.2966 -8.94963
286 1 18.8691 6.28969 15.7242 -8.94963
287 1 20.4415 7.86211 17.2966 -8.94963
288 1 -8.31728e-11 9.43453 15.7242 -8.94963
289 1 3.14484 9.43453 15.7242 -8.94963
290 1 6.28968 9.43453 15.7242 -8.94955
291 1 9.43453 9.4346 15.7241 -8.99576
292 1 12.5794 9.43453 15.7242 -8.94952
293 1 15.7242 9.43453 15.7242 -8.94963
294 1 18.8691 9.43453 15.7242 -8.94963
295 1 1.43867e-15 4.17367e-17 18.8691 -8.94963
296 1 1.57242 1.57242 20.4415 -8.94963
297 1 3.14484 3.53146e-17 18.8691 -8.94963
298 1 4.71726 1.57242 20.4415 -8.94963
299 1 6.28969 3.65411e-17 18.8691 -8.94963
300 1 7.86211 1.57242 20.4415 -8.94963
301 1 9.43453 3.52457e-17 18.8691 -8.94963
302 1 11.007 1.57242 20.4415 -8.94963
303 1 12.5794 3.03768e-17 18.8691 -8.94963
304 1 14.1518 1.57242 20.4415 -8.94963
305 1 15.7242 2.94677e-17 18.8691 -8.94963
306 1 17.2966 1.57242 20.4415 -8.94963
307 1 18.8691 3.88257e-17 18.8691 -8.94963
308 1 20.4415 1.57242 20.4415 -8.94963
309 1 1.78967e-14 3.14484 18.8691 -8.94963
310 1 1.57242 4.71726 20.4415 -8.94963
311 1 3.14484 3.14484 18.8691 -8.94963
312 1 4.71726 4.71726 20.4415 -8.94963
313 1 6.28969 3.14484 18.8691 -8.94963
314 1 7.86211 4.71726 20.4415 -8.94963
315 1 9.43453 3.14484 18.8691 -8.94963
316 1 11.007 4.71726 20.4415 -8.94963
317 1 12.5794 3.14484 18.8691 -8.94963
318 1 14.1518 4.71726 20.4415 -8.94963
319 1 15.7242 3.14484 18.8691 -8.94963
320 1 17.2966 4.71726 20.4415 -8.94963
321 1 18.8691 3.14484 18.8691 -8.94963
322 1 20.4415 4.71726 20.4415 -8.94963
323 1 -5.71011e-13 6.28969 18.8691 -8.94963
324 1 1.57242 7.86211 20.4415 -8.94963
325 1 3.14484 6.28969 18.8691 -8.94963
326 1 4.71726 7.86211 20.4415 -8.94963
327 1 6.28969 6.28969 18.8691 -8.94963
328 1 7.86211 7.86211 20.4415 -8.94963
329 1 9.43453 6.28969 18.8691 -8.94963
330 1 11.007 7.86211 20.4415 -8.94963
331 1 12.5794 6.28969 18.8691 -8.94963
332 1 14.1518 7.86211 20.4415 -8.94963
333 1 15.7242 6.28969 18.8691 -8.94963
334 1 17.2966 7.86211 20.4415 -8.94963
335 1 18.8691 6.28969 18.8691 -8.94963
336 1 20.4415 7.86211 20.4415 -8.94963
337 1 -1.32339e-12 9.43453 18.8691 -8.94963
338 1 3.14484 9.43453 18.8691 -8.94963
339 1 6.28969 9.43453 18.8691 -8.94963
340 1 9.43453 9.43453 18.8691 -8.9496
341 1 12.5794 9.43453 18.8691 -8.94963
342 1 15.7242 9.43453 18.8691 -8.94963
343 1 18.8691 9.43453 18.8691 -8.94963
344 1 1.57242 11.007 1.57242 -8.94963
345 1 4.71726 11.007 1.57242 -8.94963
346 1 7.86211 11.007 1.57242 -8.94963
347 1 11.007 11.007 1.57242 -8.94964
348 1 14.1518 11.007 1.57242 -8.94963
349 1 17.2966 11.007 1.57242 -8.94963
350 1 20.4415 11.007 1.57242 -8.94963
351 1 -2.07718e-13 12.5794 -3.38484e-14 -8.94963
352 1 1.57242 14.1518 1.57242 -8.94963
353 1 3.14484 12.5794 -3.7133e-12 -8.94963
354 1 4.71726 14.1518 1.57242 -8.94963
355 1 6.28969 12.5794 -7.98748e-11 -8.94963
356 1 7.86211 14.1518 1.57242 -8.94963
357 1 9.43453 12.5794 -1.5901e-09 -8.94963
358 1 11.007 14.1518 1.57242 -8.94963
359 1 12.5794 12.5794 9.38878e-10 -8.94963
360 1 14.1518 14.1518 1.57242 -8.94963
361 1 15.7242 12.5794 2.48998e-11 -8.94963
362 1 17.2966 14.1518 1.57242 -8.94963
363 1 18.8691 12.5794 5.02734e-12 -8.94963
364 1 20.4415 14.1518 1.57242 -8.94963
365 1 -1.80358e-14 15.7242 2.18854e-15 -8.94963
366 1 1.57242 17.2966 1.57242 -8.94963
367 1 3.14484 15.7242 -1.162e-16 -8.94963
368 1 4.71726 17.2966 1.57242 -8.94963
369 1 6.28969 15.7242 -1.33423e-11 -8.94963
370 1 7.86211 17.2966 1.57242 -8.94963
371 1 9.43453 15.7242 -9.25943e-11 -8.94963
372 1 11.007 17.2966 1.57242 -8.94963
373 1 12.5794 15.7242 -8.53574e-12 -8.94963
374 1 14.1518 17.2966 1.57242 -8.94963
375 1 15.7242 15.7242 1.3206e-11 -8.94963
376 1 17.2966 17.2966 1.57242 -8.94963
377 1 18.8691 15.7242 -8.29211e-14 -8.94963
378 1 20.4415 17.2966 1.57242 -8.94963
379 1 1.1001e-15 18.8691 3.09798e-16 -8.94963
380 1 1.57242 20.4415 1.57242 -8.94963
381 1 3.14484 18.8691 -8.90636e-15 -8.94963
382 1 4.71726 20.4415 1.57242 -8.94963
383 1 6.28969 18.8691 -3.74272e-14 -8.94963
384 1 7.86211 20.4415 1.57242 -8.94963
385 1 9.43453 18.8691 -4.75871e-12 -8.94963
386 1 11.007 20.4415 1.57242 -8.94963
387 1 12.5794 18.8691 4.12933e-12 -8.94963
388 1 14.1518 20.4415 1.57242 -8.94963
389 1 15.7242 18.8691 -1.33734e-13 -8.94963
390 1 17.2966 20.4415 1.57242 -8.94963
391 1 18.8691 18.8691 1.09283e-14 -8.94963
392 1 20.4415 20.4415 1.57242 -8.94963
393 1 1.57242 11.007 4.71726 -8.94963
394 1 4.71726 11.007 4.71726 -8.94964
395 1 7.86211 11.007 4.71726 -8.94969
396 1 11.0069 11.007 4.71724 -8.95053
397 1 14.1518 11.007 4.71726 -8.94971
398 1 17.2966 11.007 4.71726 -8.94963
399 1 20.4415 11.007 4.71726 -8.94963
400 1 7.44083e-12 12.5794 3.14484 -8.94963
401 1 1.57242 14.1518 4.71726 -8.94963
402 1 3.14484 12.5794 3.14484 -8.94963
403 1 4.71726 14.1518 4.71726 -8.94963
404 1 6.28969 12.5794 3.14484 -8.94963
405 1 7.86211 14.1518 4.71726 -8.94963
406 1 9.43453 12.5794 3.14484 -8.94962
407 1 11.007 14.1518 4.71726 -8.94968
408 1 12.5794 12.5794 3.14484 -8.9496
409 1 14.1518 14.1518 4.71726 -8.94966
410 1 15.7242 12.5794 3.14484 -8.94963
411 1 17.2966 14.1518 4.71726 -8.94963
412 1 18.8691 12.5794 3.14484 -8.94963
413 1 20.4415 14.1518 4.71726 -8.94963
414 1 -6.52741e-13 15.7242 3.14484 -8.94963
415 1 1.57242 17.2966 4.71726 -8.94963
416 1 3.14484 15.7242 3.14484 -8.94963
417 1 4.71726 17.2966 4.71726 -8.94963
418 1 6.28969 15.7242 3.14484 -8.94963
419 1 7.86211 17.2966 4.71726 -8.94963
420 1 9.43453 15.7242 3.14484 -8.94963
421 1 11.007 17.2966 4.71726 -8.94963
422 1 12.5794 15.7242 3.14484 -8.94963
423 1 14.1518 17.2966 4.71726 -8.94963
424 1 15.7242 15.7242 3.14484 -8.94963
425 1 17.2966 17.2966 4.71726 -8.94963
426 1 18.8691 15.7242 3.14484 -8.94963
427 1 20.4415 17.2966 4.71726 -8.94963
428 1 3.77494e-14 18.8691 3.14484 -8.94963
429 1 1.57242 20.4415 4.71726 -8.94963
430 1 3.14484 18.8691 3.14484 -8.94963
431 1 4.71726 20.4415 4.71726 -8.94963
432 1 6.28969 18.8691 3.14484 -8.94963
433 1 7.86211 20.4415 4.71726 -8.94963
434 1 9.43453 18.8691 3.14484 -8.94963
435 1 11.007 20.4415 4.71726 -8.94963
436 1 12.5794 18.8691 3.14484 -8.94963
437 1 14.1518 20.4415 4.71726 -8.94963
438 1 15.7242 18.8691 3.14484 -8.94963
439 1 17.2966 20.4415 4.71726 -8.94963
440 1 18.8691 18.8691 3.14484 -8.94963
441 1 20.4415 20.4415 4.71726 -8.94963
442 1 1.57242 11.007 7.86211 -8.94963
443 1 4.71726 11.007 7.86211 -8.94983
444 1 7.86177 11.007 7.86196 -9.03191
445 1 11.0082 11.007 7.85969 -9.29489
446 1 14.1517 11.007 7.86217 -8.99585
447 1 17.2966 11.007 7.86211 -8.9496
448 1 20.4415 11.007 7.86211 -8.94963
449 1 2.15824e-11 12.5794 6.28969 -8.94963
450 1 1.57242 14.1518 7.86211 -8.94963
451 1 3.14484 12.5794 6.28969 -8.94963
452 1 4.71727 14.1518 7.86211 -8.94968
453 1 6.28968 12.5794 6.28968 -8.94956
454 1 7.86217 14.1517 7.86213 -8.99479
455 1 9.43452 12.5794 6.28971 -9.00663
456 1 11.007 14.1518 7.86213 -9.00641
457 1 12.5793 12.5793 6.28979 -8.9949
458 1 14.1518 14.1518 7.86211 -8.94958
459 1 15.7242 12.5794 6.28969 -8.94965
460 1 17.2966 14.1518 7.86211 -8.94963
461 1 18.8691 12.5794 6.28969 -8.94963
462 1 20.4415 14.1518 7.86211 -8.94963
463 1 2.99538e-11 15.7242 6.28969 -8.94963
464 1 1.57242 17.2966 7.86211 -8.94963
465 1 3.14484 15.7242 6.28969 -8.94963
466 1 4.71726 17.2966 7.86211 -8.94963
467 1 6.28969 15.7242 6.28969 -8.94966
468 1 7.86211 17.2966 7.86211 -8.9496
469 1 9.43453 15.7242 6.28968 -8.94969
470 1 11.007 17.2966 7.86211 -8.94962
471 1 12.5794 15.7242 6.28969 -8.94963
472 1 14.1518 17.2966 7.86211 -8.94963
473 1 15.7242 15.7242 6.28969 -8.94963
474 1 17.2966 17.2966 7.86211 -8.94963
475 1 18.8691 15.7242 6.28969 -8.94963
476 1 20.4415 17.2966 7.86211 -8.94963
477 1 -5.55809e-13 18.8691 6.28969 -8.94963
478 1 1.57242 20.4415 7.86211 -8.94963
479 1 3.14484 18.8691 6.28969 -8.94963
480 1 4.71726 20.4415 7.86211 -8.94963
481 1 6.28969 18.8691 6.28969 -8.94963
482 1 7.86211 20.4415 7.86211 -8.94963
483 1 9.43453 18.8691 6.28969 -8.94963
484 1 11.007 20.4415 7.86211 -8.94963
485 1 12.5794 18.8691 6.28969 -8.94963
486 1 14.1518 20.4415 7.86211 -8.94963
487 1 15.7242 18.8691 6.28969 -8.94963
488 1 17.2966 20.4415 7.86211 -8.94963
489 1 18.8691 18.8691 6.28969 -8.94963
490 1 20.4415 20.4415 7.86211 -8.94963
491 1 2.42329e-09 12.5794 9.43453 -8.94963
492 1 3.14484 12.5794 9.43453 -8.94957
493 1 6.2899 12.5793 9.43459 -9.04103
494 1 9.43326 12.5822 9.43412 -9.2848
495 1 12.5797 12.5796 9.4346 -9.031
496 1 15.7242 12.5794 9.43453 -8.94973
497 1 18.8691 12.5794 9.43453 -8.94963
498 1 5.84584e-11 15.7242 9.43453 -8.94963
499 1 3.14484 15.7242 9.43453 -8.94963
500 1 6.28968 15.7242 9.43453 -8.94971
501 1 9.43453 15.7242 9.43453 -8.95065
502 1 12.5794 15.7242 9.43453 -8.94972
503 1 15.7242 15.7242 9.43453 -8.94964
504 1 18.8691 15.7242 9.43453 -8.94963
505 1 8.44542e-12 18.8691 9.43453 -8.94963
506 1 3.14484 18.8691 9.43453 -8.94963
507 1 6.28969 18.8691 9.43453 -8.94963
508 1 9.43453 18.8691 9.43453 -8.94964
509 1 12.5794 18.8691 9.43453 -8.94963
510 1 15.7242 18.8691 9.43453 -8.94963
511 1 18.8691 18.8691 9.43453 -8.94963
688 2 10.2206 11.007 9.43426 1.20287
512 1 1.57242 11.007 11.007 -8.94964
513 1 4.71724 11.007 11.007 -8.95069
514 1 7.85916 11.007 11.0059 -9.28465
515 1 11.0112 11.007 11.0083 -9.47405
516 1 14.1517 11.007 11.0069 -8.99677
517 1 17.2966 11.007 11.007 -8.9496
518 1 20.4415 11.007 11.007 -8.94963
519 1 1.57242 14.1518 11.007 -8.94963
520 1 4.71726 14.1518 11.007 -8.9497
521 1 7.86219 14.1517 11.0069 -9.05174
522 1 11.0069 14.1517 11.0069 -9.06334
523 1 14.1518 14.1518 11.007 -8.94961
524 1 17.2966 14.1518 11.007 -8.94963
525 1 20.4415 14.1518 11.007 -8.94963
526 1 1.57242 17.2966 11.007 -8.94963
527 1 4.71726 17.2966 11.007 -8.94963
528 1 7.86211 17.2966 11.007 -8.94959
529 1 11.007 17.2966 11.007 -8.9496
530 1 14.1518 17.2966 11.007 -8.94963
531 1 17.2966 17.2966 11.007 -8.94963
532 1 20.4415 17.2966 11.007 -8.94963
533 1 1.57242 20.4415 11.007 -8.94963
534 1 4.71726 20.4415 11.007 -8.94963
535 1 7.86211 20.4415 11.007 -8.94963
536 1 11.007 20.4415 11.007 -8.94963
537 1 14.1518 20.4415 11.007 -8.94963
538 1 17.2966 20.4415 11.007 -8.94963
539 1 20.4415 20.4415 11.007 -8.94963
540 1 1.57242 11.007 14.1518 -8.94963
541 1 4.71726 11.007 14.1518 -8.94973
542 1 7.86185 11.007 14.1522 -8.9859
543 1 11.0072 11.007 14.1522 -8.98679
544 1 14.1518 11.007 14.1518 -8.94981
545 1 17.2966 11.007 14.1518 -8.94963
546 1 20.4415 11.007 14.1518 -8.94963
547 1 -1.07193e-10 12.5794 12.5794 -8.94963
548 1 1.57242 14.1518 14.1518 -8.94963
549 1 3.14484 12.5794 12.5794 -8.94962
550 1 4.71726 14.1518 14.1518 -8.94963
551 1 6.28971 12.5794 12.5794 -9.00641
552 1 7.86214 14.1517 14.1517 -8.99489
553 1 9.43453 12.5819 12.5806 -9.3057
554 1 11.0069 14.1517 14.1517 -8.99492
555 1 12.5793 12.5793 12.5793 -9.05162
556 1 14.1518 14.1518 14.1518 -8.94967
557 1 15.7242 12.5794 12.5794 -8.94964
558 1 17.2966 14.1518 14.1518 -8.94963
559 1 18.8691 12.5794 12.5794 -8.94963
560 1 20.4415 14.1518 14.1518 -8.94963
561 1 -2.5453e-11 15.7242 12.5794 -8.94963
562 1 1.57242 17.2966 14.1518 -8.94963
563 1 3.14484 15.7242 12.5794 -8.94963
564 1 4.71726 17.2966 14.1518 -8.94963
565 1 6.28968 15.7242 12.5794 -8.94971
566 1 7.86211 17.2966 14.1518 -8.9496
567 1 9.43453 15.7242 12.5794 -8.95061
568 1 11.007 17.2966 14.1518 -8.9496
569 1 12.5794 15.7242 12.5794 -8.94968
570 1 14.1518 17.2966 14.1518 -8.94963
571 1 15.7242 15.7242 12.5794 -8.94963
572 1 17.2966 17.2966 14.1518 -8.94963
573 1 18.8691 15.7242 12.5794 -8.94963
574 1 20.4415 17.2966 14.1518 -8.94963
575 1 -4.5495e-13 18.8691 12.5794 -8.94963
576 1 1.57242 20.4415 14.1518 -8.94963
577 1 3.14484 18.8691 12.5794 -8.94963
578 1 4.71726 20.4415 14.1518 -8.94963
579 1 6.28969 18.8691 12.5794 -8.94963
580 1 7.86211 20.4415 14.1518 -8.94963
581 1 9.43453 18.8691 12.5794 -8.94964
582 1 11.007 20.4415 14.1518 -8.94963
583 1 12.5794 18.8691 12.5794 -8.94963
584 1 14.1518 20.4415 14.1518 -8.94963
585 1 15.7242 18.8691 12.5794 -8.94963
586 1 17.2966 20.4415 14.1518 -8.94963
587 1 18.8691 18.8691 12.5794 -8.94963
588 1 20.4415 20.4415 14.1518 -8.94963
589 1 1.57242 11.007 17.2966 -8.94963
590 1 4.71726 11.007 17.2966 -8.94964
591 1 7.86211 11.007 17.2966 -8.94976
592 1 11.007 11.007 17.2966 -8.94976
593 1 14.1518 11.007 17.2966 -8.94964
594 1 17.2966 11.007 17.2966 -8.94963
595 1 20.4415 11.007 17.2966 -8.94963
596 1 -8.31728e-11 12.5794 15.7242 -8.94963
597 1 1.57242 14.1518 17.2966 -8.94963
598 1 3.14484 12.5794 15.7242 -8.94963
599 1 4.71726 14.1518 17.2966 -8.94963
600 1 6.28968 12.5794 15.7242 -8.94955
601 1 7.86211 14.1518 17.2966 -8.94965
602 1 9.43453 12.5793 15.7241 -8.99576
603 1 11.007 14.1518 17.2966 -8.94965
604 1 12.5794 12.5794 15.7242 -8.94952
605 1 14.1518 14.1518 17.2966 -8.94963
606 1 15.7242 12.5794 15.7242 -8.94963
607 1 17.2966 14.1518 17.2966 -8.94963
608 1 18.8691 12.5794 15.7242 -8.94963
609 1 20.4415 14.1518 17.2966 -8.94963
610 1 3.36132e-12 15.7242 15.7242 -8.94963
611 1 1.57242 17.2966 17.2966 -8.94963
612 1 3.14484 15.7242 15.7242 -8.94963
613 1 4.71726 17.2966 17.2966 -8.94963
614 1 6.28969 15.7242 15.7242 -8.94966
615 1 7.86211 17.2966 17.2966 -8.94963
616 1 9.43453 15.7242 15.7242 -8.94971
617 1 11.007 17.2966 17.2966 -8.94963
618 1 12.5794 15.7242 15.7242 -8.94966
619 1 14.1518 17.2966 17.2966 -8.94963
620 1 15.7242 15.7242 15.7242 -8.94963
621 1 17.2966 17.2966 17.2966 -8.94963
622 1 18.8691 15.7242 15.7242 -8.94963
623 1 20.4415 17.2966 17.2966 -8.94963
624 1 -4.59863e-13 18.8691 15.7242 -8.94963
625 1 1.57242 20.4415 17.2966 -8.94963
626 1 3.14484 18.8691 15.7242 -8.94963
627 1 4.71726 20.4415 17.2966 -8.94963
628 1 6.28969 18.8691 15.7242 -8.94963
629 1 7.86211 20.4415 17.2966 -8.94963
630 1 9.43453 18.8691 15.7242 -8.94963
631 1 11.007 20.4415 17.2966 -8.94963
632 1 12.5794 18.8691 15.7242 -8.94963
633 1 14.1518 20.4415 17.2966 -8.94963
634 1 15.7242 18.8691 15.7242 -8.94963
635 1 17.2966 20.4415 17.2966 -8.94963
636 1 18.8691 18.8691 15.7242 -8.94963
637 1 20.4415 20.4415 17.2966 -8.94963
638 1 1.57242 11.007 20.4415 -8.94963
639 1 4.71726 11.007 20.4415 -8.94963
640 1 7.86211 11.007 20.4415 -8.94963
641 1 11.007 11.007 20.4415 -8.94963
642 1 14.1518 11.007 20.4415 -8.94963
643 1 17.2966 11.007 20.4415 -8.94963
644 1 20.4415 11.007 20.4415 -8.94963
645 1 -1.32339e-12 12.5794 18.8691 -8.94963
646 1 1.57242 14.1518 20.4415 -8.94963
647 1 3.14484 12.5794 18.8691 -8.94963
648 1 4.71726 14.1518 20.4415 -8.94963
649 1 6.28969 12.5794 18.8691 -8.94963
650 1 7.86211 14.1518 20.4415 -8.94963
651 1 9.43453 12.5794 18.8691 -8.9496
652 1 11.007 14.1518 20.4415 -8.94963
653 1 12.5794 12.5794 18.8691 -8.94963
654 1 14.1518 14.1518 20.4415 -8.94963
655 1 15.7242 12.5794 18.8691 -8.94963
656 1 17.2966 14.1518 20.4415 -8.94963
657 1 18.8691 12.5794 18.8691 -8.94963
658 1 20.4415 14.1518 20.4415 -8.94963
659 1 -5.71002e-13 15.7242 18.8691 -8.94963
660 1 1.57242 17.2966 20.4415 -8.94963
661 1 3.14484 15.7242 18.8691 -8.94963
662 1 4.71726 17.2966 20.4415 -8.94963
663 1 6.28969 15.7242 18.8691 -8.94963
664 1 7.86211 17.2966 20.4415 -8.94963
665 1 9.43453 15.7242 18.8691 -8.94963
666 1 11.007 17.2966 20.4415 -8.94963
667 1 12.5794 15.7242 18.8691 -8.94963
668 1 14.1518 17.2966 20.4415 -8.94963
669 1 15.7242 15.7242 18.8691 -8.94963
670 1 17.2966 17.2966 20.4415 -8.94963
671 1 18.8691 15.7242 18.8691 -8.94963
672 1 20.4415 17.2966 20.4415 -8.94963
673 1 1.78838e-14 18.8691 18.8691 -8.94963
674 1 1.57242 20.4415 20.4415 -8.94963
675 1 3.14484 18.8691 18.8691 -8.94963
676 1 4.71726 20.4415 20.4415 -8.94963
677 1 6.28969 18.8691 18.8691 -8.94963
678 1 7.86211 20.4415 20.4415 -8.94963
679 1 9.43453 18.8691 18.8691 -8.94963
680 1 11.007 20.4415 20.4415 -8.94963
681 1 12.5794 18.8691 18.8691 -8.94963
682 1 14.1518 20.4415 20.4415 -8.94963
683 1 15.7242 18.8691 18.8691 -8.94963
684 1 17.2966 20.4415 20.4415 -8.94963
685 1 18.8691 18.8691 18.8691 -8.94963
686 1 20.4415 20.4415 20.4415 -8.94963
687 2 9.43427 11.007 11.7933 1.20294
