ITEM: TIMESTEP
74
ITEM: NUMBER OF ATOMS
688
ITEM: BOX BOUNDS pp pp pp
0.0000000000000000e+00 2.2013900999999997e+01
0.0000000000000000e+00 2.2013900999999997e+01
0.0000000000000000e+00 2.2013900999999997e+01
ITEM: ATOMS id type x y z c_pot
193 1 11.013 7.85569 11.0079 -9.0505
2 1 1.57219 1.57229 1.57223 -8.94951
175 1 18.8701 9.43415 9.43409 -8.95017
4 1 4.717 1.57226 1.57216 -8.94964
174 1 15.7283 9.43271 9.43325 -8.95031
6 1 7.86199 1.57225 1.57216 -8.94961
173 1 12.5903 9.42323 9.43099 -9.01449
8 1 11.007 1.57225 1.57216 -8.94961
172 1 9.41354 9.37574 9.43239 -9.24345
10 1 14.152 1.57224 1.57217 -8.94963
171 1 6.28346 9.42835 9.42894 -9.03258
12 1 17.2969 1.57225 1.57222 -8.94955
13 1 18.8692 -8.35566e-15 -1.03513e-05 -8.94951
14 1 20.4415 1.5723 1.57228 -8.94952
15 1 22.0138 3.14467 -1.26353e-05 -8.94957
16 1 1.57216 4.71702 1.57218 -8.94961
170 1 3.14137 9.43316 9.43307 -8.94888
18 1 4.71685 4.71687 1.57199 -8.94963
19 1 6.28948 3.14459 -6.74943e-05 -8.94963
20 1 7.86193 4.71681 1.57201 -8.94963
169 1 -0.000811813 9.43413 9.43407 -8.95001
22 1 11.007 4.71681 1.57199 -8.9496
23 1 12.5795 3.14457 -6.1566e-05 -8.94961
24 1 14.1521 4.7168 1.57203 -8.94975
168 1 18.8697 6.28903 9.43432 -8.94956
26 1 17.2971 4.71686 1.57211 -8.94945
27 1 18.8693 3.14461 -2.32147e-05 -8.94952
28 1 20.4416 4.71704 1.57225 -8.94962
167 1 15.7258 6.28821 9.43423 -8.94931
30 1 1.57218 7.86198 1.57221 -8.94962
31 1 3.14451 6.28947 -3.34127e-05 -8.94966
32 1 4.71684 7.86191 1.57201 -8.94977
166 1 12.5812 6.28538 9.43365 -8.95133
34 1 7.86168 7.86157 1.5716 -8.94966
165 1 9.43408 6.27566 9.43458 -8.96611
36 1 11.007 7.86166 1.57162 -8.94953
164 1 6.28775 6.28613 9.43363 -8.95021
38 1 14.1525 7.86147 1.57154 -8.94962
39 1 15.7247 6.28923 -0.000121267 -8.94959
40 1 17.297 7.86192 1.57219 -8.94967
163 1 3.1436 6.28859 9.43419 -8.94971
42 1 20.4416 7.86198 1.57227 -8.94961
43 1 22.0138 9.43448 8.12652e-06 -8.94962
162 1 22.0136 6.28913 9.43432 -8.94962
161 1 18.8694 3.14446 9.43441 -8.9496
160 1 15.7251 3.14399 9.43431 -8.94955
47 1 12.5798 9.43422 -0.00044254 -8.94999
159 1 12.5804 3.1429 9.43404 -8.94959
49 1 18.8693 9.43445 4.40201e-06 -8.94961
50 1 22.0138 -2.43502e-14 3.14462 -8.94958
51 1 1.57208 1.57222 4.71691 -8.94959
52 1 3.14446 -1.86997e-14 3.14445 -8.94951
53 1 4.71668 1.57203 4.7166 -8.94952
54 1 6.28944 -6.34157e-16 3.14441 -8.94959
55 1 7.86188 1.57205 4.71661 -8.94954
56 1 9.4345 -1.36721e-14 3.14441 -8.94959
57 1 11.0071 1.57201 4.7166 -8.94954
58 1 12.5796 -2.36307e-14 3.14442 -8.94959
59 1 14.1523 1.57203 4.71664 -8.94958
60 1 15.7246 3.20272e-14 3.14446 -8.94958
61 1 17.2971 1.57218 4.71689 -8.94958
62 1 18.8693 -5.90412e-14 3.14461 -8.94956
63 1 20.4415 1.57226 4.71702 -8.94962
64 1 -0.000161606 3.14458 3.14453 -8.94952
65 1 1.57187 4.71675 4.71668 -8.94945
66 1 3.14437 3.14445 3.14433 -8.94941
67 1 4.7163 4.71627 4.71614 -8.94891
68 1 6.28938 3.14441 3.14428 -8.94969
69 1 7.86178 4.71624 4.71624 -8.94987
70 1 9.43447 3.14436 3.14428 -8.94958
71 1 11.0072 4.71628 4.71624 -8.94948
72 1 12.5796 3.14436 3.14426 -8.94962
73 1 14.1527 4.7161 4.71621 -8.94953
74 1 15.7247 3.14436 3.14433 -8.94955
75 1 17.2973 4.71666 4.71663 -8.94936
76 1 18.8693 3.14455 3.14454 -8.94952
77 1 20.4415 4.71686 4.71685 -8.94954
78 1 22.0138 6.28946 3.14451 -8.94965
79 1 1.57192 7.86183 4.71666 -8.94967
80 1 3.14431 6.2893 3.14424 -8.94968
81 1 4.71642 7.86147 4.71614 -8.94983
82 1 6.28907 6.28897 3.14377 -8.94972
83 1 7.86124 7.86075 4.71512 -8.95087
84 1 9.43444 6.28887 3.14394 -8.9495
85 1 11.007 7.86117 4.7156 -8.95048
86 1 12.5797 6.28894 3.14392 -8.94998
87 1 14.1536 7.8603 4.71506 -8.94819
88 1 15.7251 6.28889 3.14391 -8.94919
89 1 17.2973 7.86177 4.71666 -8.95005
90 1 18.8694 6.28939 3.14449 -8.94972
91 1 20.4416 7.8619 4.71685 -8.94965
92 1 -0.000137912 9.43445 3.14453 -8.94959
93 1 3.14439 9.43444 3.14431 -8.94958
94 1 6.28926 9.43441 3.14403 -8.9501
95 1 9.43381 9.43363 3.14293 -8.94824
96 1 12.5806 9.43347 3.14243 -8.94935
97 1 15.7248 9.43438 3.14426 -8.94974
98 1 18.8693 9.43445 3.14451 -8.94958
99 1 -0.0001447 8.4877e-15 6.28948 -8.94962
100 1 1.57204 1.57219 7.86188 -8.94961
101 1 3.14432 -6.45109e-15 6.28927 -8.94957
102 1 4.71649 1.57188 7.86161 -8.94955
103 1 6.28909 1.77069e-14 6.28896 -8.94975
104 1 7.86158 1.57141 7.86139 -8.95003
105 1 9.43451 -4.16487e-14 6.28898 -8.9496
106 1 11.0074 1.57142 7.86139 -8.94981
107 1 12.5799 -4.05855e-14 6.28899 -8.9497
108 1 14.1525 1.57184 7.86158 -8.94963
109 1 15.7248 2.52704e-14 6.28925 -8.94961
110 1 17.2971 1.57214 7.86186 -8.94961
111 1 18.8693 2.4264e-14 6.28947 -8.94961
112 1 20.4415 1.57226 7.86197 -8.94962
113 1 22.0137 3.14452 6.28941 -8.94964
114 1 1.57181 4.71666 7.86175 -8.94969
115 1 3.14412 3.14422 6.2891 -8.94963
116 1 4.71601 4.71578 7.86129 -8.94981
117 1 6.28876 3.14348 6.28857 -8.9495
118 1 7.86066 4.71338 7.86041 -8.9495
119 1 9.4345 3.14354 6.28883 -8.94939
120 1 11.008 4.71396 7.86057 -8.94844
121 1 12.5802 3.14352 6.28865 -8.94956
122 1 14.1531 4.71537 7.86125 -8.94989
123 1 15.725 3.14411 6.28908 -8.94957
124 1 17.2974 4.71647 7.86169 -8.94968
125 1 18.8694 3.14446 6.28938 -8.94963
126 1 20.4416 4.71681 7.86185 -8.94962
127 1 -0.0003783 6.28914 6.28911 -8.94962
128 1 1.57111 7.86126 7.86124 -8.94966
129 1 3.14349 6.28861 6.28855 -8.94922
130 1 4.71406 7.85945 7.8597 -8.94875
131 1 6.28733 6.28703 6.28707 -8.9469
132 1 7.85653 7.85443 7.85531 -8.97981
133 1 9.43482 6.28729 6.28859 -8.94929
134 1 11.0104 7.857 7.85823 -8.99927
135 1 12.5809 6.28709 6.28776 -8.94971
136 1 14.1556 7.8585 7.85977 -8.94631
137 1 15.7258 6.28832 6.2884 -8.94867
138 1 17.2983 7.86106 7.86122 -8.94968
139 1 18.8697 6.28906 6.28906 -8.94957
140 1 20.4416 7.86161 7.86157 -8.94984
141 1 22.0136 9.43435 6.28912 -8.94956
142 1 3.14388 9.43426 6.2888 -8.94983
143 1 6.28812 9.43383 6.28757 -8.9509
144 1 9.43277 9.432 6.28789 -9.0037
145 1 12.5837 9.42943 6.28475 -8.98262
146 1 15.7253 9.43434 6.28905 -8.95147
147 1 18.8695 9.4344 6.28916 -8.94958
148 1 -0.000132404 3.95821e-16 9.43447 -8.94962
149 1 3.14427 -9.41123e-15 9.43437 -8.94959
150 1 6.28892 -6.23983e-15 9.4342 -8.94965
151 1 9.43448 -1.1148e-14 9.43423 -8.95054
152 1 12.58 3.87733e-14 9.43418 -8.94971
153 1 15.7248 -6.79956e-14 9.43437 -8.94966
154 1 18.8693 -1.19215e-14 9.43445 -8.9496
155 1 -0.000200929 3.14451 9.43442 -8.9496
156 1 3.1441 3.14419 9.43435 -8.9496
157 1 6.28858 3.14305 9.43404 -8.94924
158 1 9.43444 3.14136 9.43423 -8.95271
177 1 4.71646 1.5719 11.007 -8.94952
181 1 17.2971 1.57212 11.007 -8.94958
184 1 4.71593 4.71592 11.007 -8.94961
185 1 7.85977 4.71196 11.0073 -8.94763
188 1 17.2975 4.71646 11.007 -8.94958
190 1 1.57118 7.8615 11.007 -8.94961
191 1 4.71447 7.86082 11.0073 -8.95156
192 1 7.85429 7.85362 11.0102 -9.03255
189 1 20.4416 4.71681 11.007 -8.94961
35 1 9.43443 6.28927 -0.000177852 -8.94962
45 1 6.28936 9.43442 -0.000133656 -8.94973
176 1 1.57203 1.5722 11.007 -8.94959
343 1 18.8694 9.43441 18.8694 -8.94957
178 1 7.86139 1.57098 11.0071 -8.95011
179 1 11.0076 1.57101 11.0071 -8.94995
180 1 14.1526 1.57181 11.007 -8.94964
342 1 15.725 9.43431 18.8698 -8.94952
182 1 20.4415 1.57227 11.007 -8.94962
183 1 1.57178 4.71665 11.007 -8.94959
341 1 12.58 9.43414 18.8702 -8.95022
340 1 9.43436 9.43422 18.8695 -8.94898
186 1 11.009 4.71236 11.0073 -8.94671
187 1 14.1533 4.7154 11.0071 -8.94989
339 1 6.28918 9.43437 18.8697 -8.94992
48 1 15.7247 9.43439 22.0139 -8.94953
338 1 3.14437 9.43442 18.8696 -8.94959
337 1 -0.000120527 9.43445 18.8694 -8.94959
336 1 20.4416 7.86197 20.4416 -8.9496
335 1 18.8694 6.28939 18.8694 -8.94961
194 1 14.1561 7.8591 11.0077 -8.94874
195 1 17.2984 7.8612 11.007 -8.94976
196 1 20.4417 7.86162 11.007 -8.94974
197 1 -0.000134931 -2.80946e-16 12.5795 -8.94961
198 1 1.57203 1.57219 14.152 -8.94962
199 1 3.14426 -9.24295e-15 12.5796 -8.94959
200 1 4.71646 1.57189 14.1524 -8.94952
201 1 6.28892 4.64135e-15 12.5798 -8.94973
202 1 7.86161 1.5715 14.1526 -8.94987
203 1 9.43448 -7.23816e-15 12.5798 -8.95046
204 1 11.0074 1.57145 14.1526 -8.94987
205 1 12.5801 3.64998e-14 12.5798 -8.94968
206 1 14.1525 1.57185 14.1524 -8.94958
207 1 15.7248 -4.94478e-14 12.5796 -8.94966
208 1 17.2971 1.57213 14.1521 -8.94961
209 1 18.8693 3.81414e-14 12.5795 -8.94961
210 1 20.4415 1.57226 14.1519 -8.94962
211 1 22.0137 3.14451 12.5795 -8.94961
212 1 1.57178 4.71666 14.1522 -8.94969
213 1 3.14406 3.14419 12.5796 -8.94964
214 1 4.71584 4.71576 14.1528 -8.9493
215 1 6.2885 3.14294 12.5801 -8.94935
216 1 7.86073 4.71392 14.1537 -8.94942
217 1 9.43449 3.14145 12.5799 -8.95231
218 1 11.0083 4.71398 14.1537 -8.94893
219 1 12.5804 3.14292 12.5801 -8.94945
220 1 14.1532 4.71549 14.1528 -8.9499
221 1 15.7251 3.14398 12.5797 -8.94962
222 1 17.2975 4.71646 14.1523 -8.94953
223 1 18.8694 3.14443 12.5795 -8.94961
224 1 20.4416 4.71681 14.1521 -8.94963
225 1 -0.000353337 6.28913 12.5796 -8.94969
226 1 1.57123 7.86135 14.1526 -8.94955
227 1 3.14346 6.28861 12.5798 -8.94988
228 1 4.7145 7.86024 14.1535 -8.94961
229 1 6.28701 6.28594 12.5812 -8.94791
230 1 7.85631 7.85588 14.1576 -8.9823
231 1 9.43484 6.27708 12.5805 -8.9646
232 1 11.0121 7.85657 14.1571 -8.98064
233 1 12.5814 6.28563 12.5808 -8.95063
234 1 14.1561 7.85872 14.1552 -8.9479
235 1 15.7261 6.2881 12.5801 -8.94904
236 1 17.2983 7.8612 14.1527 -8.94994
237 1 18.8698 6.28902 12.5797 -8.94964
238 1 20.4416 7.86163 14.1523 -8.94976
239 1 22.0131 9.43413 12.5798 -8.94987
240 1 3.14173 9.43326 12.5806 -8.94831
241 1 6.2847 9.4307 12.5834 -8.99846
242 1 9.43423 9.38233 12.6015 -9.26609
243 1 12.5879 9.42596 12.587 -9.02649
244 1 15.728 9.43327 12.5806 -8.95001
245 1 18.8702 9.43414 12.5798 -8.94995
246 1 -0.000149486 -3.61653e-14 15.7244 -8.94962
247 1 1.57207 1.57222 17.297 -8.94955
248 1 3.14429 1.01146e-14 15.7247 -8.94954
249 1 4.71671 1.57206 17.2973 -8.94956
250 1 6.28914 1.14487e-14 15.7249 -8.94972
251 1 7.8619 1.57209 17.2973 -8.9495
252 1 9.4345 -9.70522e-15 15.7249 -8.94955
253 1 11.0071 1.57208 17.2973 -8.9495
254 1 12.5799 3.21979e-14 15.7249 -8.94971
255 1 14.1523 1.57203 17.2973 -8.94955
256 1 15.7248 6.34893e-15 15.7247 -8.9496
257 1 17.2971 1.57216 17.297 -8.9496
258 1 18.8693 -3.99213e-14 15.7245 -8.94961
259 1 20.4415 1.57226 17.2969 -8.94959
260 1 22.0137 3.14451 15.7245 -8.94962
261 1 1.57192 4.7168 17.2972 -8.94954
262 1 3.14412 3.14424 15.7248 -8.94951
263 1 4.71631 4.71632 17.2977 -8.94906
264 1 6.28881 3.14364 15.7253 -8.94956
265 1 7.86183 4.71651 17.2975 -8.94976
266 1 9.43448 3.14371 15.7251 -8.94923
267 1 11.0072 4.7165 17.2975 -8.94971
268 1 12.5802 3.14357 15.7254 -8.9495
269 1 14.1527 4.7162 17.2977 -8.94919
270 1 15.725 3.14411 15.7249 -8.94964
271 1 17.2974 4.7166 17.2973 -8.94937
272 1 18.8694 3.14445 15.7245 -8.9496
273 1 20.4416 4.71687 17.297 -8.94958
274 1 -0.000327505 6.28919 15.7248 -8.94961
275 1 1.57193 7.86184 17.2972 -8.94964
276 1 3.14363 6.28881 15.7252 -8.94948
277 1 4.71636 7.86151 17.2977 -8.9494
278 1 6.2875 6.28732 15.7267 -8.94769
279 1 7.86171 7.8615 17.2979 -8.95132
280 1 9.43453 6.28813 15.7251 -8.94927
281 1 11.0071 7.86152 17.298 -8.95109
282 1 12.5814 6.28723 15.7266 -8.94808
283 1 14.1532 7.86097 17.2984 -8.94926
284 1 15.7259 6.28827 15.7257 -8.94885
285 1 17.2975 7.86169 17.2974 -8.94966
286 1 18.8697 6.2891 15.7248 -8.94966
287 1 20.4416 7.86187 17.2971 -8.94962
288 1 22.0136 9.43435 15.7248 -8.94963
289 1 3.14374 9.43424 15.7251 -8.94988
290 1 6.2878 9.43385 15.7263 -8.94914
291 1 9.43407 9.43448 15.7245 -8.99979
292 1 12.5826 9.43272 15.7284 -8.94828
293 1 15.7259 9.43412 15.7254 -8.94988
294 1 18.8697 9.43432 15.7248 -8.94962
295 1 22.0138 -4.76671e-15 18.8693 -8.94954
296 1 1.57219 1.57228 20.4416 -8.94951
297 1 3.14447 -6.24923e-14 18.8694 -8.94953
298 1 4.71703 1.57228 20.4417 -8.94964
299 1 6.28946 1.05737e-14 18.8694 -8.94957
300 1 7.86199 1.57228 20.4417 -8.94961
301 1 9.43451 -7.27417e-14 18.8694 -8.94958
302 1 11.007 1.57228 20.4417 -8.9496
303 1 12.5795 -1.15461e-14 18.8694 -8.94959
304 1 14.152 1.57227 20.4417 -8.94963
305 1 15.7246 3.17586e-14 18.8694 -8.94955
306 1 17.2969 1.57225 20.4417 -8.94954
307 1 18.8693 4.61395e-14 18.8693 -8.94957
308 1 20.4415 1.5723 20.4416 -8.94952
309 1 -0.000138336 3.14459 18.8693 -8.94955
310 1 1.57218 4.71703 20.4417 -8.9496
311 1 3.14439 3.14446 18.8695 -8.94942
312 1 4.71689 4.71691 20.4417 -8.94969
313 1 6.28941 3.14449 18.8695 -8.94967
314 1 7.86194 4.71689 20.4417 -8.9496
315 1 9.43448 3.14446 18.8695 -8.9496
316 1 11.007 4.71687 20.4417 -8.94961
317 1 12.5796 3.14443 18.8696 -8.94966
318 1 14.1521 4.71683 20.4418 -8.94972
319 1 15.7247 3.14438 18.8696 -8.94948
320 1 17.297 4.71687 20.4417 -8.94952
321 1 18.8693 3.14452 18.8694 -8.94949
322 1 20.4416 4.71704 20.4416 -8.94961
323 1 22.0138 6.28944 18.8694 -8.94961
324 1 1.57218 7.86197 20.4417 -8.94961
325 1 3.14435 6.28932 18.8696 -8.94958
326 1 4.71686 7.8619 20.4418 -8.94969
327 1 6.28922 6.28919 18.8698 -8.95002
328 1 7.86183 7.86178 20.4416 -8.94977
329 1 9.43444 6.28912 18.8696 -8.94943
330 1 11.007 7.86177 20.4417 -8.9497
331 1 12.5797 6.28913 18.8698 -8.94997
332 1 14.1524 7.86166 20.4419 -8.94979
333 1 15.725 6.28905 18.8698 -8.9495
334 1 17.297 7.8619 20.4417 -8.94957
3 1 3.14462 3.41447e-14 22.0139 -8.94962
5 1 6.28952 3.87643e-14 22.0139 -8.94961
7 1 9.43451 4.45076e-14 22.0139 -8.94961
9 1 12.5795 2.06468e-15 22.0139 -8.94961
11 1 15.7244 8.82617e-15 22.0139 -8.94962
17 1 3.14455 3.14461 22.0139 -8.94959
21 1 9.43449 3.14457 22.0138 -8.9496
25 1 15.7245 3.14455 22.0139 -8.94965
29 1 -8.06662e-05 6.28953 22.0139 -8.94962
33 1 6.28933 6.28932 22.0137 -8.94972
46 1 9.43429 9.43424 22.0134 -8.94958
37 1 12.5796 6.28928 22.0138 -8.94969
41 1 18.8693 6.28948 22.0139 -8.94964
44 1 3.14452 9.43446 22.0139 -8.9496
1 1 -9.26839e-05 3.30709e-14 22.0139 -8.94949
344 1 1.57219 11.007 1.57223 -8.9496
345 1 4.71685 11.007 1.57205 -8.94961
346 1 7.8619 11.007 1.57182 -8.94939
347 1 11.007 11.007 1.57032 -8.95214
348 1 14.1524 11.007 1.57176 -8.94926
349 1 17.297 11.007 1.57221 -8.94959
350 1 20.4415 11.007 1.57228 -8.9496
351 1 22.0138 12.5794 8.12652e-06 -8.94962
352 1 1.57218 14.1519 1.57221 -8.94962
688 2 10.1981 11.007 9.42531 0.755972
354 1 4.71684 14.152 1.57201 -8.94977
511 1 18.8694 18.8694 9.43441 -8.9496
356 1 7.86168 14.1523 1.5716 -8.94966
510 1 15.7251 18.8699 9.43431 -8.94955
358 1 11.007 14.1522 1.57162 -8.94953
359 1 12.5798 12.5797 -0.00044254 -8.94999
360 1 14.1525 14.1524 1.57154 -8.94962
509 1 12.5804 18.871 9.43404 -8.94959
362 1 17.297 14.152 1.57219 -8.94967
363 1 18.8693 12.5794 4.40201e-06 -8.94961
364 1 20.4416 14.1519 1.57227 -8.94961
508 1 9.43444 18.8725 9.43423 -8.95271
366 1 1.57216 17.2969 1.57218 -8.94961
367 1 3.14451 15.7244 -3.34127e-05 -8.94966
368 1 4.71685 17.297 1.57199 -8.94963
507 1 6.28858 18.8709 9.43404 -8.94924
370 1 7.86193 17.2971 1.57201 -8.94963
506 1 3.1441 18.8697 9.43435 -8.9496
372 1 11.007 17.2971 1.57199 -8.9496
505 1 -0.000200929 18.8694 9.43442 -8.9496
374 1 14.1521 17.2971 1.57203 -8.94975
375 1 15.7247 15.7247 -0.000121267 -8.94959
376 1 17.2971 17.297 1.57211 -8.94945
504 1 18.8697 15.7249 9.43432 -8.94956
378 1 20.4416 17.2969 1.57225 -8.94962
379 1 22.0138 18.8692 -1.26353e-05 -8.94957
380 1 1.57219 20.4416 1.57223 -8.94951
503 1 15.7258 15.7257 9.43423 -8.94931
382 1 4.717 20.4416 1.57216 -8.94964
383 1 6.28948 18.8693 -6.74943e-05 -8.94963
384 1 7.86199 20.4417 1.57216 -8.94961
502 1 12.5812 15.7285 9.43365 -8.95133
386 1 11.007 20.4417 1.57216 -8.94961
387 1 12.5795 18.8693 -6.1566e-05 -8.94961
388 1 14.152 20.4417 1.57217 -8.94963
501 1 9.43408 15.7382 9.43458 -8.96611
390 1 17.2969 20.4417 1.57222 -8.94955
391 1 18.8693 18.8693 -2.32147e-05 -8.94952
392 1 20.4415 20.4416 1.57228 -8.94952
393 1 1.57195 11.007 4.71669 -8.94956
394 1 4.71654 11.007 4.71633 -8.94896
395 1 7.86219 11.007 4.71613 -8.94986
396 1 11.0075 11.007 4.70792 -8.96344
397 1 14.1523 11.007 4.71635 -8.9492
398 1 17.2972 11.007 4.71669 -8.94943
399 1 20.4415 11.007 4.71684 -8.94959
400 1 -0.000137912 12.5794 3.14453 -8.94959
401 1 1.57192 14.1521 4.71666 -8.94967
402 1 3.14439 12.5795 3.14431 -8.94958
403 1 4.71642 14.1524 4.71614 -8.94983
404 1 6.28926 12.5795 3.14403 -8.9501
405 1 7.86124 14.1531 4.71512 -8.95087
406 1 9.43381 12.5803 3.14293 -8.94824
407 1 11.007 14.1527 4.7156 -8.95048
408 1 12.5806 12.5804 3.14243 -8.94935
409 1 14.1536 14.1536 4.71506 -8.94819
410 1 15.7248 12.5795 3.14426 -8.94974
411 1 17.2973 14.1521 4.71666 -8.95005
412 1 18.8693 12.5794 3.14451 -8.94958
413 1 20.4416 14.152 4.71685 -8.94965
414 1 22.0138 15.7244 3.14451 -8.94965
415 1 1.57187 17.2972 4.71668 -8.94945
416 1 3.14431 15.7246 3.14424 -8.94968
417 1 4.7163 17.2976 4.71614 -8.94891
418 1 6.28907 15.7249 3.14377 -8.94972
419 1 7.86178 17.2977 4.71624 -8.94987
420 1 9.43444 15.725 3.14394 -8.9495
421 1 11.0072 17.2976 4.71624 -8.94948
422 1 12.5797 15.725 3.14392 -8.94998
423 1 14.1527 17.2978 4.71621 -8.94953
424 1 15.7251 15.725 3.14391 -8.94919
425 1 17.2973 17.2972 4.71663 -8.94936
426 1 18.8694 15.7245 3.14449 -8.94972
427 1 20.4415 17.297 4.71685 -8.94954
428 1 -0.000161606 18.8693 3.14453 -8.94952
429 1 1.57208 20.4417 4.71691 -8.94959
430 1 3.14437 18.8695 3.14433 -8.94941
431 1 4.71668 20.4419 4.7166 -8.94952
432 1 6.28938 18.8695 3.14428 -8.94969
433 1 7.86188 20.4419 4.71661 -8.94954
434 1 9.43447 18.8695 3.14428 -8.94958
435 1 11.0071 20.4419 4.7166 -8.94954
436 1 12.5796 18.8695 3.14426 -8.94962
437 1 14.1523 20.4419 4.71664 -8.94958
438 1 15.7247 18.8695 3.14433 -8.94955
439 1 17.2971 20.4417 4.71689 -8.94958
440 1 18.8693 18.8694 3.14454 -8.94952
441 1 20.4415 20.4416 4.71702 -8.94962
442 1 1.57133 11.007 7.86146 -8.94929
443 1 4.71513 11.007 7.86114 -8.94977
444 1 7.85987 11.007 7.86027 -9.03613
445 1 11.0293 11.007 7.81665 -9.26917
446 1 14.1516 11.007 7.86309 -9.00086
447 1 17.2977 11.007 7.86148 -8.94845
448 1 20.4415 11.007 7.86157 -8.94946
449 1 22.0136 12.5796 6.28912 -8.94956
450 1 1.57111 14.1526 7.86124 -8.94966
451 1 3.14388 12.5796 6.2888 -8.94983
452 1 4.71406 14.1544 7.8597 -8.94875
453 1 6.28812 12.5801 6.28757 -8.9509
454 1 7.85653 14.1595 7.85531 -8.97981
455 1 9.43277 12.5819 6.28789 -9.0037
456 1 11.0104 14.1569 7.85823 -8.99927
457 1 12.5837 12.5845 6.28475 -8.98262
458 1 14.1556 14.1554 7.85977 -8.94631
459 1 15.7253 12.5796 6.28905 -8.95147
460 1 17.2983 14.1528 7.86122 -8.94968
461 1 18.8695 12.5795 6.28916 -8.94958
462 1 20.4416 14.1523 7.86157 -8.94984
463 1 -0.0003783 15.7248 6.28911 -8.94962
464 1 1.57181 17.2972 7.86175 -8.94969
465 1 3.14349 15.7253 6.28855 -8.94922
466 1 4.71601 17.2981 7.86129 -8.94981
467 1 6.28733 15.7269 6.28707 -8.9469
468 1 7.86066 17.3005 7.86041 -8.9495
469 1 9.43482 15.7266 6.28859 -8.94929
470 1 11.008 17.2999 7.86057 -8.94844
471 1 12.5809 15.7268 6.28776 -8.94971
472 1 14.1531 17.2985 7.86125 -8.94989
473 1 15.7258 15.7256 6.2884 -8.94867
474 1 17.2974 17.2974 7.86169 -8.94968
475 1 18.8697 15.7248 6.28906 -8.94957
476 1 20.4416 17.2971 7.86185 -8.94962
477 1 22.0137 18.8694 6.28941 -8.94964
478 1 1.57204 20.4417 7.86188 -8.94961
479 1 3.14412 18.8697 6.2891 -8.94963
480 1 4.71649 20.442 7.86161 -8.94955
481 1 6.28876 18.8704 6.28857 -8.9495
482 1 7.86158 20.4425 7.86139 -8.95003
483 1 9.4345 18.8704 6.28883 -8.94939
484 1 11.0074 20.4425 7.86139 -8.94981
485 1 12.5802 18.8704 6.28865 -8.94956
486 1 14.1525 20.4421 7.86158 -8.94963
487 1 15.725 18.8698 6.28908 -8.94957
488 1 17.2971 20.4418 7.86186 -8.94961
489 1 18.8694 18.8694 6.28938 -8.94963
490 1 20.4415 20.4416 7.86197 -8.94962
491 1 -0.000811813 12.5798 9.43407 -8.95001
492 1 3.14137 12.5807 9.43307 -8.94888
493 1 6.28346 12.5855 9.42894 -9.03258
494 1 9.41354 12.6382 9.43239 -9.24345
495 1 12.5903 12.5907 9.43099 -9.01449
496 1 15.7283 12.5812 9.43325 -8.95031
497 1 18.8701 12.5797 9.43409 -8.95017
498 1 22.0136 15.7248 9.43432 -8.94962
499 1 3.1436 15.7253 9.43419 -8.94971
500 1 6.28775 15.7278 9.43363 -8.95021
512 1 1.56941 11.007 11.0069 -8.95298
514 1 7.79957 11.007 10.9884 -9.24191
516 1 14.1635 11.007 11.0053 -9.0135
519 1 1.57118 14.1524 11.007 -8.94961
520 1 4.71447 14.1531 11.0073 -8.95156
521 1 7.85429 14.1603 11.0102 -9.03255
522 1 11.013 14.1582 11.0079 -9.0505
527 1 4.71593 17.298 11.007 -8.94961
528 1 7.85977 17.3019 11.0073 -8.94763
531 1 17.2975 17.2974 11.007 -8.94958
534 1 4.71646 20.442 11.007 -8.94952
538 1 17.2971 20.4418 11.007 -8.94958
532 1 20.4416 17.2971 11.007 -8.94961
355 1 6.28936 12.5795 -0.000133656 -8.94973
371 1 9.43443 15.7246 -0.000177852 -8.94962
687 2 9.41724 11.007 11.786 0.747191
513 1 4.70391 11.007 11.0066 -8.96728
686 1 20.4415 20.4416 20.4416 -8.94952
515 1 11.0904 11.007 11.034 -9.40132
685 1 18.8693 18.8694 18.8694 -8.94949
517 1 17.2998 11.007 11.007 -8.95216
518 1 20.4416 11.007 11.007 -8.95056
684 1 17.2969 20.4416 20.4417 -8.94954
683 1 15.7247 18.8695 18.8696 -8.94948
682 1 14.152 20.4416 20.4417 -8.94963
681 1 12.5796 18.8695 18.8696 -8.94966
523 1 14.1561 14.1548 11.0077 -8.94874
524 1 17.2984 14.1527 11.007 -8.94976
525 1 20.4417 14.1523 11.007 -8.94974
526 1 1.57178 17.2973 11.007 -8.94959
680 1 11.007 20.4416 20.4417 -8.9496
679 1 9.43448 18.8694 18.8695 -8.9496
529 1 11.009 17.3015 11.0073 -8.94671
530 1 14.1533 17.2985 11.0071 -8.94989
678 1 7.86199 20.4416 20.4417 -8.94961
389 1 15.7245 18.8693 22.0139 -8.94965
533 1 1.57203 20.4417 11.007 -8.94959
677 1 6.28941 18.8694 18.8695 -8.94967
535 1 7.86139 20.4429 11.0071 -8.95011
536 1 11.0076 20.4429 11.0071 -8.94995
537 1 14.1526 20.4421 11.007 -8.94964
676 1 4.71703 20.4416 20.4417 -8.94964
539 1 20.4415 20.4416 11.007 -8.94962
540 1 1.57127 11.007 14.1524 -8.9495
541 1 4.71489 11.007 14.1526 -8.95001
542 1 7.85769 11.007 14.1563 -8.98397
543 1 11.0141 11.007 14.1648 -9.00068
544 1 14.155 11.007 14.1533 -8.95075
545 1 17.2982 11.007 14.1525 -8.94946
546 1 20.4417 11.007 14.1523 -8.94965
547 1 22.0131 12.5798 12.5798 -8.94987
548 1 1.57123 14.1526 14.1526 -8.94955
549 1 3.14173 12.5806 12.5806 -8.94831
550 1 4.7145 14.1537 14.1535 -8.94961
551 1 6.2847 12.5832 12.5834 -8.99846
552 1 7.85631 14.158 14.1576 -8.9823
553 1 9.43423 12.6316 12.6015 -9.26609
554 1 11.0121 14.1573 14.1571 -8.98064
555 1 12.5879 12.5879 12.587 -9.02649
556 1 14.1561 14.1552 14.1552 -8.9479
557 1 15.728 12.5806 12.5806 -8.95001
558 1 17.2983 14.1527 14.1527 -8.94994
559 1 18.8702 12.5798 12.5798 -8.94995
560 1 20.4416 14.1523 14.1523 -8.94976
561 1 -0.000353337 15.7248 12.5796 -8.94969
562 1 1.57178 17.2972 14.1522 -8.94969
563 1 3.14346 15.7253 12.5798 -8.94988
564 1 4.71584 17.2981 14.1528 -8.9493
565 1 6.28701 15.728 12.5812 -8.94791
566 1 7.86073 17.3 14.1537 -8.94942
567 1 9.43484 15.7368 12.5805 -8.9646
568 1 11.0083 17.2999 14.1537 -8.94893
569 1 12.5814 15.7283 12.5808 -8.95063
570 1 14.1532 17.2984 14.1528 -8.9499
571 1 15.7261 15.7258 12.5801 -8.94904
572 1 17.2975 17.2974 14.1523 -8.94953
573 1 18.8698 15.7249 12.5797 -8.94964
574 1 20.4416 17.2971 14.1521 -8.94963
575 1 22.0137 18.8694 12.5795 -8.94961
576 1 1.57203 20.4417 14.152 -8.94962
577 1 3.14406 18.8697 12.5796 -8.94964
578 1 4.71646 20.442 14.1524 -8.94952
579 1 6.2885 18.871 12.5801 -8.94935
580 1 7.86161 20.4424 14.1526 -8.94987
581 1 9.43449 18.8725 12.5799 -8.95231
582 1 11.0074 20.4424 14.1526 -8.94987
583 1 12.5804 18.871 12.5801 -8.94945
584 1 14.1525 20.442 14.1524 -8.94958
585 1 15.7251 18.8699 12.5797 -8.94962
586 1 17.2971 20.4418 14.1521 -8.94961
587 1 18.8694 18.8695 12.5795 -8.94961
588 1 20.4415 20.4416 14.1519 -8.94962
589 1 1.57192 11.007 17.2972 -8.94955
590 1 4.7164 11.007 17.2975 -8.94904
591 1 7.86174 11.007 17.2977 -8.95058
592 1 11.0075 11.007 17.2994 -8.95331
593 1 14.153 11.007 17.298 -8.94878
594 1 17.2975 11.007 17.2974 -8.94952
595 1 20.4416 11.007 17.2971 -8.94961
596 1 22.0136 12.5795 15.7248 -8.94963
597 1 1.57193 14.1521 17.2972 -8.94964
598 1 3.14374 12.5797 15.7251 -8.94988
599 1 4.71636 14.1524 17.2977 -8.9494
600 1 6.2878 12.5801 15.7263 -8.94914
601 1 7.86171 14.1524 17.2979 -8.95132
602 1 9.43407 12.5794 15.7245 -8.99979
603 1 11.0071 14.1524 17.298 -8.95109
604 1 12.5826 12.5812 15.7284 -8.94828
605 1 14.1532 14.1529 17.2984 -8.94926
606 1 15.7259 12.5798 15.7254 -8.94988
607 1 17.2975 14.1522 17.2974 -8.94966
608 1 18.8697 12.5796 15.7248 -8.94962
609 1 20.4416 14.152 17.2971 -8.94962
610 1 -0.000327505 15.7247 15.7248 -8.94961
611 1 1.57192 17.2971 17.2972 -8.94954
612 1 3.14363 15.7251 15.7252 -8.94948
613 1 4.71631 17.2976 17.2977 -8.94906
614 1 6.2875 15.7266 15.7267 -8.94769
615 1 7.86183 17.2974 17.2975 -8.94976
616 1 9.43453 15.7258 15.7251 -8.94927
617 1 11.0072 17.2974 17.2975 -8.94971
618 1 12.5814 15.7267 15.7266 -8.94808
619 1 14.1527 17.2977 17.2977 -8.94919
620 1 15.7259 15.7256 15.7257 -8.94885
621 1 17.2974 17.2973 17.2973 -8.94937
622 1 18.8697 15.7248 15.7248 -8.94966
623 1 20.4416 17.297 17.297 -8.94958
624 1 22.0137 18.8694 15.7245 -8.94962
625 1 1.57207 20.4417 17.297 -8.94955
626 1 3.14412 18.8697 15.7248 -8.94951
627 1 4.71671 20.4418 17.2973 -8.94956
628 1 6.28881 18.8703 15.7253 -8.94956
629 1 7.8619 20.4418 17.2973 -8.9495
630 1 9.43448 18.8702 15.7251 -8.94923
631 1 11.0071 20.4418 17.2973 -8.9495
632 1 12.5802 18.8703 15.7254 -8.9495
633 1 14.1523 20.4419 17.2973 -8.94955
634 1 15.725 18.8698 15.7249 -8.94964
635 1 17.2971 20.4417 17.297 -8.9496
636 1 18.8694 18.8695 15.7245 -8.9496
637 1 20.4415 20.4416 17.2969 -8.94959
638 1 1.57219 11.007 20.4417 -8.9496
639 1 4.71685 11.007 20.4417 -8.9496
640 1 7.86188 11.007 20.4416 -8.94967
641 1 11.007 11.007 20.4416 -8.95055
642 1 14.1524 11.007 20.4419 -8.94955
643 1 17.297 11.007 20.4417 -8.94957
644 1 20.4416 11.007 20.4417 -8.94959
645 1 -0.000120527 12.5795 18.8694 -8.94959
646 1 1.57218 14.1519 20.4417 -8.94961
647 1 3.14437 12.5795 18.8696 -8.94959
648 1 4.71686 14.152 20.4418 -8.94969
649 1 6.28918 12.5795 18.8697 -8.94992
650 1 7.86183 14.1521 20.4416 -8.94977
651 1 9.43436 12.5797 18.8695 -8.94898
652 1 11.007 14.1521 20.4417 -8.9497
653 1 12.58 12.5798 18.8702 -8.95022
654 1 14.1524 14.1522 20.4419 -8.94979
655 1 15.725 12.5796 18.8698 -8.94952
656 1 17.297 14.152 20.4417 -8.94957
657 1 18.8694 12.5795 18.8694 -8.94957
658 1 20.4416 14.1519 20.4416 -8.9496
659 1 22.0138 15.7245 18.8694 -8.94961
660 1 1.57218 17.2969 20.4417 -8.9496
661 1 3.14435 15.7246 18.8696 -8.94958
662 1 4.71689 17.297 20.4417 -8.94969
663 1 6.28922 15.7247 18.8698 -8.95002
664 1 7.86194 17.297 20.4417 -8.9496
665 1 9.43444 15.7248 18.8696 -8.94943
666 1 11.007 17.297 20.4417 -8.94961
667 1 12.5797 15.7248 18.8698 -8.94997
668 1 14.1521 17.2971 20.4418 -8.94972
669 1 15.725 15.7249 18.8698 -8.9495
670 1 17.297 17.297 20.4417 -8.94952
671 1 18.8694 15.7245 18.8694 -8.94961
672 1 20.4416 17.2969 20.4416 -8.94961
673 1 -0.000138336 18.8693 18.8693 -8.94955
674 1 1.57219 20.4416 20.4416 -8.94951
675 1 3.14439 18.8694 18.8695 -8.94942
353 1 3.14452 12.5794 22.0139 -8.9496
385 1 9.43449 18.8693 22.0138 -8.9496
357 1 9.43429 12.5797 22.0134 -8.94958
361 1 15.7247 12.5795 22.0139 -8.94953
365 1 -8.06662e-05 15.7244 22.0139 -8.94962
369 1 6.28933 15.7246 22.0137 -8.94972
381 1 3.14455 18.8693 22.0139 -8.94959
373 1 12.5796 15.7246 22.0138 -8.94969
377 1 18.8693 15.7244 22.0139 -8.94964
