ITEM: TIMESTEP
29
ITEM: NUMBER OF ATOMS
688
ITEM: BOX BOUNDS pp pp pp
0.0000000000000000e+00 2.2013900999999997e+01
0.0000000000000000e+00 2.2013900999999997e+01
0.0000000000000000e+00 2.2013900999999997e+01
ITEM: ATOMS id type x y z c_pot
193 1 11.007 7.86239 11.0068 -9.06134
2 1 1.57242 1.57242 1.57242 -8.94963
175 1 18.8691 9.43453 9.43453 -8.94964
4 1 4.71726 1.57242 1.57242 -8.94963
174 1 15.7242 9.43453 9.43453 -8.9501
6 1 7.86211 1.57242 1.57242 -8.94963
173 1 12.5811 9.43316 9.43477 -9.0275
8 1 11.007 1.57242 1.57242 -8.94963
172 1 9.42764 9.41929 9.4324 -9.28061
10 1 14.1518 1.57242 1.57242 -8.94963
171 1 6.29064 9.43489 9.43473 -9.03931
12 1 17.2966 1.57242 1.57242 -8.94963
13 1 18.8691 1.13697e-16 1.46229e-12 -8.94963
14 1 20.4415 1.57242 1.57242 -8.94963
15 1 22.0139 3.14484 4.09644e-12 -8.94963
16 1 1.57242 4.71726 1.57242 -8.94963
170 1 3.14486 9.43453 9.43453 -8.9493
18 1 4.71726 4.71726 1.57242 -8.94963
19 1 6.28969 3.14484 2.62428e-10 -8.94963
20 1 7.86211 4.71726 1.57242 -8.94963
169 1 1.70398e-07 9.43453 9.43453 -8.94963
22 1 11.007 4.71726 1.57242 -8.94963
23 1 12.5794 3.14484 1.43975e-09 -8.94963
24 1 14.1518 4.71726 1.57242 -8.94963
168 1 18.8691 6.28969 9.43453 -8.94963
26 1 17.2966 4.71726 1.57242 -8.94963
27 1 18.8691 3.14484 2.69131e-11 -8.94963
28 1 20.4415 4.71726 1.57242 -8.94963
167 1 15.7242 6.28969 9.43453 -8.94967
30 1 1.57242 7.86211 1.57242 -8.94963
31 1 3.14484 6.28969 4.67069e-10 -8.94963
32 1 4.71726 7.86211 1.57242 -8.94963
166 1 12.5794 6.28966 9.43453 -8.95013
34 1 7.86211 7.86211 1.57242 -8.94963
165 1 9.43456 6.28931 9.43452 -8.95391
36 1 11.007 7.86211 1.57242 -8.94964
164 1 6.2897 6.28971 9.43453 -8.95006
38 1 14.1518 7.86211 1.57242 -8.94963
39 1 15.7242 6.28969 5.12644e-09 -8.94963
40 1 17.2966 7.86211 1.57242 -8.94963
163 1 3.14484 6.28968 9.43453 -8.94962
42 1 20.4415 7.86211 1.57242 -8.94963
43 1 22.0139 9.43453 4.79323e-11 -8.94963
162 1 22.0139 6.28969 9.43453 -8.94963
161 1 18.8691 3.14484 9.43453 -8.94963
160 1 15.7242 3.14484 9.43453 -8.94963
47 1 12.5794 9.43453 6.01762e-08 -8.94963
159 1 12.5794 3.14484 9.43453 -8.94964
49 1 18.8691 9.43453 7.11035e-10 -8.94963
50 1 22.0139 1.23083e-16 3.14484 -8.94963
51 1 1.57242 1.57242 4.71726 -8.94963
52 1 3.14484 4.00351e-17 3.14484 -8.94963
53 1 4.71726 1.57242 4.71726 -8.94963
54 1 6.28969 2.95272e-16 3.14484 -8.94963
55 1 7.86211 1.57242 4.71726 -8.94963
56 1 9.43453 3.53154e-16 3.14484 -8.94963
57 1 11.007 1.57242 4.71726 -8.94963
58 1 12.5794 2.91629e-16 3.14484 -8.94963
59 1 14.1518 1.57242 4.71726 -8.94963
60 1 15.7242 3.46575e-16 3.14484 -8.94963
61 1 17.2966 1.57242 4.71726 -8.94963
62 1 18.8691 1.24298e-16 3.14484 -8.94963
63 1 20.4415 1.57242 4.71726 -8.94963
64 1 1.80733e-10 3.14484 3.14484 -8.94963
65 1 1.57242 4.71726 4.71726 -8.94963
66 1 3.14484 3.14484 3.14484 -8.94963
67 1 4.71726 4.71726 4.71726 -8.94963
68 1 6.28969 3.14484 3.14484 -8.94963
69 1 7.86211 4.71726 4.71726 -8.94963
70 1 9.43453 3.14484 3.14484 -8.94963
71 1 11.007 4.71726 4.71726 -8.94963
72 1 12.5794 3.14484 3.14484 -8.94963
73 1 14.1518 4.71726 4.71726 -8.94963
74 1 15.7242 3.14484 3.14484 -8.94963
75 1 17.2966 4.71726 4.71726 -8.94963
76 1 18.8691 3.14484 3.14484 -8.94963
77 1 20.4415 4.71726 4.71726 -8.94963
78 1 22.0139 6.28969 3.14484 -8.94963
79 1 1.57242 7.86211 4.71726 -8.94963
80 1 3.14484 6.28969 3.14484 -8.94963
81 1 4.71726 7.86211 4.71726 -8.94961
82 1 6.28969 6.28969 3.14484 -8.94963
83 1 7.86211 7.86211 4.71727 -8.94965
84 1 9.43453 6.28969 3.14484 -8.94963
85 1 11.007 7.86211 4.71727 -8.9499
86 1 12.5794 6.28969 3.14484 -8.94963
87 1 14.1518 7.86211 4.71727 -8.94974
88 1 15.7242 6.28969 3.14484 -8.94964
89 1 17.2966 7.86211 4.71726 -8.94964
90 1 18.8691 6.28969 3.14484 -8.94963
91 1 20.4415 7.86211 4.71726 -8.94963
92 1 2.77705e-09 9.43453 3.14484 -8.94963
93 1 3.14484 9.43453 3.14484 -8.94963
94 1 6.28969 9.43453 3.14484 -8.94964
95 1 9.43453 9.43453 3.14484 -8.94955
96 1 12.5794 9.43453 3.14485 -8.94946
97 1 15.7242 9.43453 3.14484 -8.94963
98 1 18.8691 9.43453 3.14484 -8.94963
99 1 1.88293e-11 1.18807e-16 6.28969 -8.94963
100 1 1.57242 1.57242 7.86211 -8.94963
101 1 3.14484 -2.77073e-17 6.28969 -8.94963
102 1 4.71726 1.57242 7.86211 -8.94963
103 1 6.28969 3.70121e-16 6.28969 -8.94963
104 1 7.86211 1.57242 7.86211 -8.94963
105 1 9.43453 3.67227e-16 6.28969 -8.94963
106 1 11.007 1.57242 7.86211 -8.94963
107 1 12.5794 1.81199e-16 6.28969 -8.94963
108 1 14.1518 1.57242 7.86211 -8.94963
109 1 15.7242 1.82464e-16 6.28969 -8.94963
110 1 17.2966 1.57242 7.86211 -8.94963
111 1 18.8691 2.497e-16 6.28969 -8.94963
112 1 20.4415 1.57242 7.86211 -8.94963
113 1 22.0139 3.14484 6.28969 -8.94963
114 1 1.57242 4.71726 7.86211 -8.94963
115 1 3.14484 3.14484 6.28969 -8.94963
116 1 4.71726 4.71726 7.86211 -8.94963
117 1 6.28969 3.14484 6.28969 -8.94963
118 1 7.8621 4.71727 7.8621 -8.94947
119 1 9.43453 3.14484 6.28969 -8.94964
120 1 11.007 4.71726 7.8621 -8.94954
121 1 12.5794 3.14484 6.28969 -8.94963
122 1 14.1518 4.71726 7.86211 -8.94964
123 1 15.7242 3.14484 6.28969 -8.94963
124 1 17.2966 4.71726 7.86211 -8.94963
125 1 18.8691 3.14484 6.28969 -8.94963
126 1 20.4415 4.71726 7.86211 -8.94963
127 1 1.39036e-08 6.28969 6.28969 -8.94963
128 1 1.57242 7.86211 7.86211 -8.94963
129 1 3.14484 6.28969 6.28969 -8.94964
130 1 4.71728 7.86212 7.86212 -8.94984
131 1 6.28969 6.28969 6.28969 -8.94971
132 1 7.86228 7.86247 7.86207 -8.99141
133 1 9.43453 6.28969 6.28969 -8.94994
134 1 11.0071 7.86218 7.86213 -9.00504
135 1 12.5794 6.28969 6.28969 -8.94963
136 1 14.1518 7.86207 7.86208 -8.94929
137 1 15.7242 6.28969 6.28969 -8.94961
138 1 17.2966 7.86211 7.86211 -8.94963
139 1 18.8691 6.28969 6.28969 -8.94963
140 1 20.4415 7.86211 7.86211 -8.94963
141 1 22.0139 9.43453 6.28969 -8.94963
142 1 3.14484 9.43453 6.28968 -8.94963
143 1 6.28966 9.4345 6.28966 -8.94929
144 1 9.43442 9.43459 6.28976 -9.00625
145 1 12.5792 9.43454 6.2901 -8.99206
146 1 15.7242 9.43454 6.2897 -8.94974
147 1 18.8691 9.43453 6.28969 -8.94963
148 1 7.78728e-11 -3.91342e-17 9.43453 -8.94963
149 1 3.14484 2.26899e-16 9.43453 -8.94963
150 1 6.28969 1.86602e-16 9.43453 -8.94963
151 1 9.43453 2.36358e-16 9.43453 -8.94964
152 1 12.5794 7.90577e-17 9.43453 -8.94963
153 1 15.7242 3.5769e-16 9.43453 -8.94963
154 1 18.8691 2.6955e-16 9.43453 -8.94963
155 1 1.55502e-09 3.14484 9.43453 -8.94963
156 1 3.14484 3.14484 9.43453 -8.94963
157 1 6.28969 3.14484 9.43453 -8.94963
158 1 9.43453 3.14484 9.43453 -8.94974
177 1 4.71726 1.57242 11.007 -8.94963
181 1 17.2966 1.57242 11.007 -8.94963
184 1 4.71726 4.71726 11.007 -8.94963
185 1 7.8621 4.71727 11.007 -8.94937
188 1 17.2966 4.71726 11.007 -8.94963
190 1 1.57242 7.86211 11.007 -8.94963
191 1 4.71728 7.86212 11.0069 -8.95002
192 1 7.86237 7.86263 11.0068 -9.04782
189 1 20.4415 4.71726 11.007 -8.94963
35 1 9.43453 6.28969 7.80171e-09 -8.94963
45 1 6.28969 9.43453 1.17016e-08 -8.94963
176 1 1.57242 1.57242 11.007 -8.94963
343 1 18.8691 9.43453 18.8691 -8.94963
178 1 7.86211 1.57242 11.007 -8.94963
179 1 11.007 1.57242 11.007 -8.94963
180 1 14.1518 1.57242 11.007 -8.94963
342 1 15.7242 9.43453 18.8691 -8.94963
182 1 20.4415 1.57242 11.007 -8.94963
183 1 1.57242 4.71726 11.007 -8.94963
341 1 12.5794 9.43453 18.8691 -8.94963
340 1 9.43453 9.43453 18.869 -8.94947
186 1 11.007 4.71726 11.007 -8.94942
187 1 14.1518 4.71726 11.007 -8.94964
339 1 6.28969 9.43453 18.8691 -8.94963
48 1 15.7242 9.43453 22.0139 -8.94963
338 1 3.14484 9.43453 18.8691 -8.94963
337 1 1.26378e-09 9.43453 18.8691 -8.94963
336 1 20.4415 7.86211 20.4415 -8.94963
335 1 18.8691 6.28969 18.8691 -8.94963
194 1 14.1518 7.86207 11.007 -8.94949
195 1 17.2966 7.86211 11.007 -8.94963
196 1 20.4415 7.86211 11.007 -8.94963
197 1 4.80167e-11 3.70641e-16 12.5794 -8.94963
198 1 1.57242 1.57242 14.1518 -8.94963
199 1 3.14484 3.48769e-16 12.5794 -8.94963
200 1 4.71726 1.57242 14.1518 -8.94963
201 1 6.28969 1.90193e-16 12.5794 -8.94963
202 1 7.86211 1.57242 14.1518 -8.94963
203 1 9.43453 2.1851e-16 12.5794 -8.94963
204 1 11.007 1.57242 14.1518 -8.94963
205 1 12.5794 1.87302e-16 12.5794 -8.94963
206 1 14.1518 1.57242 14.1518 -8.94963
207 1 15.7242 1.51384e-16 12.5794 -8.94963
208 1 17.2966 1.57242 14.1518 -8.94963
209 1 18.8691 1.99978e-16 12.5794 -8.94963
210 1 20.4415 1.57242 14.1518 -8.94963
211 1 22.0139 3.14484 12.5794 -8.94963
212 1 1.57242 4.71726 14.1518 -8.94963
213 1 3.14484 3.14484 12.5794 -8.94963
214 1 4.71726 4.71726 14.1518 -8.94963
215 1 6.28969 3.14484 12.5794 -8.94963
216 1 7.8621 4.71727 14.1518 -8.94946
217 1 9.43453 3.14484 12.5794 -8.94973
218 1 11.007 4.71727 14.1518 -8.94946
219 1 12.5794 3.14484 12.5794 -8.94963
220 1 14.1518 4.71726 14.1518 -8.94963
221 1 15.7242 3.14484 12.5794 -8.94963
222 1 17.2966 4.71726 14.1518 -8.94963
223 1 18.8691 3.14484 12.5794 -8.94963
224 1 20.4415 4.71726 14.1518 -8.94963
225 1 1.20711e-08 6.28969 12.5794 -8.94963
226 1 1.57242 7.86211 14.1518 -8.94963
227 1 3.14484 6.28969 12.5794 -8.94964
228 1 4.71727 7.86211 14.1518 -8.94963
229 1 6.2897 6.2897 12.5794 -8.95
230 1 7.86211 7.86251 14.1516 -8.99198
231 1 9.43453 6.28934 12.5793 -8.95373
232 1 11.0069 7.86252 14.1516 -8.99215
233 1 12.5794 6.28969 12.5794 -8.94993
234 1 14.1518 7.86212 14.1518 -8.94976
235 1 15.7242 6.28968 12.5794 -8.94961
236 1 17.2966 7.86211 14.1518 -8.94963
237 1 18.8691 6.28969 12.5794 -8.94963
238 1 20.4415 7.86211 14.1518 -8.94963
239 1 22.0139 9.43453 12.5794 -8.94963
240 1 3.14484 9.43453 12.5794 -8.94953
241 1 6.28976 9.43456 12.5795 -9.00508
242 1 9.43448 9.42078 12.5862 -9.30055
243 1 12.579 9.4346 12.5791 -9.04695
244 1 15.7242 9.43453 12.5794 -8.94965
245 1 18.8691 9.43453 12.5794 -8.94963
246 1 2.83277e-11 2.04709e-16 15.7242 -8.94963
247 1 1.57242 1.57242 17.2966 -8.94963
248 1 3.14484 2.64988e-16 15.7242 -8.94963
249 1 4.71726 1.57242 17.2966 -8.94963
250 1 6.28969 8.9043e-17 15.7242 -8.94963
251 1 7.86211 1.57242 17.2966 -8.94963
252 1 9.43453 2.30337e-16 15.7242 -8.94963
253 1 11.007 1.57242 17.2966 -8.94963
254 1 12.5794 2.23907e-16 15.7242 -8.94963
255 1 14.1518 1.57242 17.2966 -8.94963
256 1 15.7242 3.45228e-16 15.7242 -8.94963
257 1 17.2966 1.57242 17.2966 -8.94963
258 1 18.8691 2.6281e-16 15.7242 -8.94963
259 1 20.4415 1.57242 17.2966 -8.94963
260 1 22.0139 3.14484 15.7242 -8.94963
261 1 1.57242 4.71726 17.2966 -8.94963
262 1 3.14484 3.14484 15.7242 -8.94963
263 1 4.71726 4.71726 17.2966 -8.94963
264 1 6.28969 3.14484 15.7242 -8.94963
265 1 7.86211 4.71726 17.2966 -8.94963
266 1 9.43453 3.14484 15.7242 -8.94963
267 1 11.007 4.71726 17.2966 -8.94963
268 1 12.5794 3.14484 15.7242 -8.94963
269 1 14.1518 4.71726 17.2966 -8.94963
270 1 15.7242 3.14484 15.7242 -8.94963
271 1 17.2966 4.71726 17.2966 -8.94963
272 1 18.8691 3.14484 15.7242 -8.94963
273 1 20.4415 4.71726 17.2966 -8.94963
274 1 1.94243e-09 6.28969 15.7242 -8.94963
275 1 1.57242 7.86211 17.2966 -8.94963
276 1 3.14484 6.28969 15.7242 -8.94963
277 1 4.71726 7.86211 17.2966 -8.94961
278 1 6.28969 6.28969 15.7242 -8.94973
279 1 7.86212 7.86212 17.2966 -8.94974
280 1 9.43453 6.28971 15.7242 -8.95003
281 1 11.0069 7.86212 17.2966 -8.94975
282 1 12.5794 6.28969 15.7242 -8.94973
283 1 14.1518 7.86211 17.2966 -8.94961
284 1 15.7242 6.28969 15.7242 -8.94964
285 1 17.2966 7.86211 17.2966 -8.94963
286 1 18.8691 6.28969 15.7242 -8.94963
287 1 20.4415 7.86211 17.2966 -8.94963
288 1 22.0139 9.43453 15.7242 -8.94963
289 1 3.14484 9.43453 15.7242 -8.94964
290 1 6.28965 9.4345 15.7243 -8.94918
291 1 9.43453 9.43489 15.7237 -8.99692
292 1 12.5794 9.43449 15.7243 -8.94901
293 1 15.7242 9.43453 15.7242 -8.94963
294 1 18.8691 9.43453 15.7242 -8.94963
295 1 22.0139 2.15408e-16 18.8691 -8.94963
296 1 1.57242 1.57242 20.4415 -8.94963
297 1 3.14484 1.97547e-16 18.8691 -8.94963
298 1 4.71726 1.57242 20.4415 -8.94963
299 1 6.28969 2.39799e-16 18.8691 -8.94963
300 1 7.86211 1.57242 20.4415 -8.94963
301 1 9.43453 1.73695e-16 18.8691 -8.94963
302 1 11.007 1.57242 20.4415 -8.94963
303 1 12.5794 6.59383e-17 18.8691 -8.94963
304 1 14.1518 1.57242 20.4415 -8.94963
305 1 15.7242 2.49845e-16 18.8691 -8.94963
306 1 17.2966 1.57242 20.4415 -8.94963
307 1 18.8691 1.08345e-16 18.8691 -8.94963
308 1 20.4415 1.57242 20.4415 -8.94963
309 1 9.41384e-11 3.14484 18.8691 -8.94963
310 1 1.57242 4.71726 20.4415 -8.94963
311 1 3.14484 3.14484 18.8691 -8.94963
312 1 4.71726 4.71726 20.4415 -8.94963
313 1 6.28969 3.14484 18.8691 -8.94963
314 1 7.86211 4.71726 20.4415 -8.94963
315 1 9.43453 3.14484 18.8691 -8.94963
316 1 11.007 4.71726 20.4415 -8.94963
317 1 12.5794 3.14484 18.8691 -8.94963
318 1 14.1518 4.71726 20.4415 -8.94963
319 1 15.7242 3.14484 18.8691 -8.94963
320 1 17.2966 4.71726 20.4415 -8.94963
321 1 18.8691 3.14484 18.8691 -8.94963
322 1 20.4415 4.71726 20.4415 -8.94963
323 1 22.0139 6.28969 18.8691 -8.94963
324 1 1.57242 7.86211 20.4415 -8.94963
325 1 3.14484 6.28969 18.8691 -8.94963
326 1 4.71726 7.86211 20.4415 -8.94963
327 1 6.28969 6.28969 18.8691 -8.94964
328 1 7.86211 7.86211 20.4415 -8.94963
329 1 9.43453 6.28969 18.8691 -8.94962
330 1 11.007 7.86211 20.4415 -8.94963
331 1 12.5794 6.28969 18.8691 -8.94964
332 1 14.1518 7.86211 20.4415 -8.94963
333 1 15.7242 6.28969 18.8691 -8.94963
334 1 17.2966 7.86211 20.4415 -8.94963
3 1 3.14484 3.8617e-16 22.0139 -8.94963
5 1 6.28969 1.94943e-16 22.0139 -8.94963
7 1 9.43453 1.09543e-16 22.0139 -8.94963
9 1 12.5794 1.00718e-16 22.0139 -8.94963
11 1 15.7242 3.83557e-16 22.0139 -8.94963
17 1 3.14484 3.14484 22.0139 -8.94963
21 1 9.43453 3.14484 22.0139 -8.94963
25 1 15.7242 3.14484 22.0139 -8.94963
29 1 5.47594e-11 6.28969 22.0139 -8.94963
33 1 6.28969 6.28969 22.0139 -8.94963
46 1 9.43453 9.43453 22.0139 -8.94963
37 1 12.5794 6.28969 22.0139 -8.94963
41 1 18.8691 6.28969 22.0139 -8.94963
44 1 3.14484 9.43453 22.0139 -8.94963
1 1 8.83618e-13 2.88059e-16 22.0139 -8.94963
344 1 1.57242 11.007 1.57242 -8.94963
345 1 4.71726 11.007 1.57242 -8.94963
346 1 7.86211 11.007 1.57242 -8.94964
347 1 11.007 11.007 1.57242 -8.94972
348 1 14.1518 11.007 1.57242 -8.94963
349 1 17.2966 11.007 1.57242 -8.94963
350 1 20.4415 11.007 1.57242 -8.94963
351 1 22.0139 12.5794 4.79323e-11 -8.94963
352 1 1.57242 14.1518 1.57242 -8.94963
688 2 10.22 11.007 9.43302 1.08944
354 1 4.71726 14.1518 1.57242 -8.94963
511 1 18.8691 18.8691 9.43453 -8.94963
356 1 7.86211 14.1518 1.57242 -8.94963
510 1 15.7242 18.8691 9.43453 -8.94963
358 1 11.007 14.1518 1.57242 -8.94964
359 1 12.5794 12.5794 6.01762e-08 -8.94963
360 1 14.1518 14.1518 1.57242 -8.94963
509 1 12.5794 18.8691 9.43453 -8.94964
362 1 17.2966 14.1518 1.57242 -8.94963
363 1 18.8691 12.5794 7.11035e-10 -8.94963
364 1 20.4415 14.1518 1.57242 -8.94963
508 1 9.43453 18.8691 9.43453 -8.94974
366 1 1.57242 17.2966 1.57242 -8.94963
367 1 3.14484 15.7242 4.67069e-10 -8.94963
368 1 4.71726 17.2966 1.57242 -8.94963
507 1 6.28969 18.8691 9.43453 -8.94963
370 1 7.86211 17.2966 1.57242 -8.94963
506 1 3.14484 18.8691 9.43453 -8.94963
372 1 11.007 17.2966 1.57242 -8.94963
505 1 1.55502e-09 18.8691 9.43453 -8.94963
374 1 14.1518 17.2966 1.57242 -8.94963
375 1 15.7242 15.7242 5.12644e-09 -8.94963
376 1 17.2966 17.2966 1.57242 -8.94963
504 1 18.8691 15.7242 9.43453 -8.94963
378 1 20.4415 17.2966 1.57242 -8.94963
379 1 22.0139 18.8691 4.09663e-12 -8.94963
380 1 1.57242 20.4415 1.57242 -8.94963
503 1 15.7242 15.7242 9.43453 -8.94967
382 1 4.71726 20.4415 1.57242 -8.94963
383 1 6.28969 18.8691 2.62428e-10 -8.94963
384 1 7.86211 20.4415 1.57242 -8.94963
502 1 12.5794 15.7242 9.43453 -8.95013
386 1 11.007 20.4415 1.57242 -8.94963
387 1 12.5794 18.8691 1.43975e-09 -8.94963
388 1 14.1518 20.4415 1.57242 -8.94963
501 1 9.43456 15.7246 9.43452 -8.95391
390 1 17.2966 20.4415 1.57242 -8.94963
391 1 18.8691 18.8691 2.69132e-11 -8.94963
392 1 20.4415 20.4415 1.57242 -8.94963
393 1 1.57242 11.007 4.71726 -8.94963
394 1 4.71727 11.007 4.71727 -8.94966
395 1 7.8621 11.007 4.71724 -8.94994
396 1 11.0069 11.007 4.71693 -8.9533
397 1 14.1518 11.007 4.71729 -8.95002
398 1 17.2966 11.007 4.71726 -8.94962
399 1 20.4415 11.007 4.71726 -8.94963
400 1 2.77705e-09 12.5794 3.14484 -8.94963
401 1 1.57242 14.1518 4.71726 -8.94963
402 1 3.14484 12.5794 3.14484 -8.94963
403 1 4.71726 14.1518 4.71726 -8.94961
404 1 6.28969 12.5794 3.14484 -8.94964
405 1 7.86211 14.1518 4.71727 -8.94965
406 1 9.43453 12.5794 3.14484 -8.94955
407 1 11.007 14.1518 4.71727 -8.9499
408 1 12.5794 12.5794 3.14485 -8.94946
409 1 14.1518 14.1518 4.71727 -8.94974
410 1 15.7242 12.5794 3.14484 -8.94963
411 1 17.2966 14.1518 4.71726 -8.94964
412 1 18.8691 12.5794 3.14484 -8.94963
413 1 20.4415 14.1518 4.71726 -8.94963
414 1 22.0139 15.7242 3.14484 -8.94963
415 1 1.57242 17.2966 4.71726 -8.94963
416 1 3.14484 15.7242 3.14484 -8.94963
417 1 4.71726 17.2966 4.71726 -8.94963
418 1 6.28969 15.7242 3.14484 -8.94963
419 1 7.86211 17.2966 4.71726 -8.94963
420 1 9.43453 15.7242 3.14484 -8.94963
421 1 11.007 17.2966 4.71726 -8.94963
422 1 12.5794 15.7242 3.14484 -8.94963
423 1 14.1518 17.2966 4.71726 -8.94963
424 1 15.7242 15.7242 3.14484 -8.94964
425 1 17.2966 17.2966 4.71726 -8.94963
426 1 18.8691 15.7242 3.14484 -8.94963
427 1 20.4415 17.2966 4.71726 -8.94963
428 1 1.80733e-10 18.8691 3.14484 -8.94963
429 1 1.57242 20.4415 4.71726 -8.94963
430 1 3.14484 18.8691 3.14484 -8.94963
431 1 4.71726 20.4415 4.71726 -8.94963
432 1 6.28969 18.8691 3.14484 -8.94963
433 1 7.86211 20.4415 4.71726 -8.94963
434 1 9.43453 18.8691 3.14484 -8.94963
435 1 11.007 20.4415 4.71726 -8.94963
436 1 12.5794 18.8691 3.14484 -8.94963
437 1 14.1518 20.4415 4.71726 -8.94963
438 1 15.7242 18.8691 3.14484 -8.94963
439 1 17.2966 20.4415 4.71726 -8.94963
440 1 18.8691 18.8691 3.14484 -8.94963
441 1 20.4415 20.4415 4.71726 -8.94963
442 1 1.57242 11.007 7.86211 -8.94964
443 1 4.71725 11.007 7.86213 -8.95068
444 1 7.86035 11.007 7.86127 -9.03259
445 1 11.0135 11.007 7.84893 -9.29177
446 1 14.1512 11.007 7.86249 -8.99741
447 1 17.2966 11.007 7.86211 -8.94947
448 1 20.4415 11.007 7.86211 -8.94963
449 1 22.0139 12.5794 6.28969 -8.94963
450 1 1.57242 14.1518 7.86211 -8.94963
451 1 3.14484 12.5794 6.28968 -8.94963
452 1 4.71728 14.1518 7.86212 -8.94984
453 1 6.28966 12.5794 6.28966 -8.94929
454 1 7.86228 14.1514 7.86207 -8.99141
455 1 9.43442 12.5793 6.28976 -9.00625
456 1 11.0071 14.1517 7.86213 -9.00504
457 1 12.5792 12.5794 6.2901 -8.99206
458 1 14.1518 14.1518 7.86208 -8.94929
459 1 15.7242 12.5794 6.2897 -8.94974
460 1 17.2966 14.1518 7.86211 -8.94963
461 1 18.8691 12.5794 6.28969 -8.94963
462 1 20.4415 14.1518 7.86211 -8.94963
463 1 1.39036e-08 15.7242 6.28969 -8.94963
464 1 1.57242 17.2966 7.86211 -8.94963
465 1 3.14484 15.7242 6.28969 -8.94964
466 1 4.71726 17.2966 7.86211 -8.94963
467 1 6.28969 15.7242 6.28969 -8.94971
468 1 7.8621 17.2966 7.8621 -8.94947
469 1 9.43453 15.7242 6.28969 -8.94994
470 1 11.007 17.2966 7.8621 -8.94954
471 1 12.5794 15.7242 6.28969 -8.94963
472 1 14.1518 17.2966 7.86211 -8.94964
473 1 15.7242 15.7242 6.28969 -8.94961
474 1 17.2966 17.2966 7.86211 -8.94963
475 1 18.8691 15.7242 6.28969 -8.94963
476 1 20.4415 17.2966 7.86211 -8.94963
477 1 22.0139 18.8691 6.28969 -8.94963
478 1 1.57242 20.4415 7.86211 -8.94963
479 1 3.14484 18.8691 6.28969 -8.94963
480 1 4.71726 20.4415 7.86211 -8.94963
481 1 6.28969 18.8691 6.28969 -8.94963
482 1 7.86211 20.4415 7.86211 -8.94963
483 1 9.43453 18.8691 6.28969 -8.94964
484 1 11.007 20.4415 7.86211 -8.94963
485 1 12.5794 18.8691 6.28969 -8.94963
486 1 14.1518 20.4415 7.86211 -8.94963
487 1 15.7242 18.8691 6.28969 -8.94963
488 1 17.2966 20.4415 7.86211 -8.94963
489 1 18.8691 18.8691 6.28969 -8.94963
490 1 20.4415 20.4415 7.86211 -8.94963
491 1 1.70398e-07 12.5794 9.43453 -8.94963
492 1 3.14486 12.5794 9.43453 -8.9493
493 1 6.29064 12.579 9.43473 -9.03931
494 1 9.42764 12.5946 9.4324 -9.28061
495 1 12.5811 12.5807 9.43477 -9.0275
496 1 15.7242 12.5794 9.43453 -8.9501
497 1 18.8691 12.5794 9.43453 -8.94964
498 1 22.0139 15.7242 9.43453 -8.94963
499 1 3.14484 15.7242 9.43453 -8.94962
500 1 6.2897 15.7242 9.43453 -8.95006
512 1 1.57242 11.007 11.007 -8.94974
514 1 7.84614 11.007 11.0014 -9.27973
516 1 14.1516 11.007 11.0066 -9.00098
519 1 1.57242 14.1518 11.007 -8.94963
520 1 4.71728 14.1518 11.0069 -8.95002
521 1 7.86237 14.1513 11.0068 -9.04782
522 1 11.007 14.1515 11.0068 -9.06134
527 1 4.71726 17.2966 11.007 -8.94963
528 1 7.8621 17.2966 11.007 -8.94937
531 1 17.2966 17.2966 11.007 -8.94963
534 1 4.71726 20.4415 11.007 -8.94963
538 1 17.2966 20.4415 11.007 -8.94963
532 1 20.4415 17.2966 11.007 -8.94963
355 1 6.28969 12.5794 1.17016e-08 -8.94963
371 1 9.43453 15.7242 7.80171e-09 -8.94963
687 2 9.43301 11.007 11.7939 1.08969
513 1 4.71688 11.007 11.007 -8.95406
686 1 20.4415 20.4415 20.4415 -8.94963
515 1 11.0299 11.007 11.0146 -9.46959
685 1 18.8691 18.8691 18.8691 -8.94963
517 1 17.2966 11.007 11.007 -8.94956
518 1 20.4415 11.007 11.007 -8.94963
684 1 17.2966 20.4415 20.4415 -8.94963
683 1 15.7242 18.8691 18.8691 -8.94963
682 1 14.1518 20.4415 20.4415 -8.94963
681 1 12.5794 18.8691 18.8691 -8.94963
523 1 14.1518 14.1518 11.007 -8.94949
524 1 17.2966 14.1518 11.007 -8.94963
525 1 20.4415 14.1518 11.007 -8.94963
526 1 1.57242 17.2966 11.007 -8.94963
680 1 11.007 20.4415 20.4415 -8.94963
679 1 9.43453 18.8691 18.8691 -8.94963
529 1 11.007 17.2966 11.007 -8.94942
530 1 14.1518 17.2966 11.007 -8.94964
678 1 7.86211 20.4415 20.4415 -8.94963
389 1 15.7242 18.8691 22.0139 -8.94963
533 1 1.57242 20.4415 11.007 -8.94963
677 1 6.28969 18.8691 18.8691 -8.94963
535 1 7.86211 20.4415 11.007 -8.94963
536 1 11.007 20.4415 11.007 -8.94963
537 1 14.1518 20.4415 11.007 -8.94963
676 1 4.71726 20.4415 20.4415 -8.94963
539 1 20.4415 20.4415 11.007 -8.94963
540 1 1.57242 11.007 14.1518 -8.94964
541 1 4.71723 11.007 14.1518 -8.95015
542 1 7.86069 11.007 14.154 -8.98584
543 1 11.0083 11.007 14.1542 -8.98964
544 1 14.1518 11.007 14.1518 -8.95058
545 1 17.2966 11.007 14.1518 -8.94963
546 1 20.4415 11.007 14.1518 -8.94963
547 1 22.0139 12.5794 12.5794 -8.94963
548 1 1.57242 14.1518 14.1518 -8.94963
549 1 3.14484 12.5794 12.5794 -8.94953
550 1 4.71727 14.1518 14.1518 -8.94963
551 1 6.28976 12.5793 12.5795 -9.00508
552 1 7.86211 14.1514 14.1516 -8.99198
553 1 9.43448 12.5931 12.5862 -9.30055
554 1 11.0069 14.1514 14.1516 -8.99215
555 1 12.579 12.5793 12.5791 -9.04695
556 1 14.1518 14.1518 14.1518 -8.94976
557 1 15.7242 12.5794 12.5794 -8.94965
558 1 17.2966 14.1518 14.1518 -8.94963
559 1 18.8691 12.5794 12.5794 -8.94963
560 1 20.4415 14.1518 14.1518 -8.94963
561 1 1.20711e-08 15.7242 12.5794 -8.94963
562 1 1.57242 17.2966 14.1518 -8.94963
563 1 3.14484 15.7242 12.5794 -8.94964
564 1 4.71726 17.2966 14.1518 -8.94963
565 1 6.2897 15.7242 12.5794 -8.95
566 1 7.8621 17.2966 14.1518 -8.94946
567 1 9.43453 15.7246 12.5793 -8.95373
568 1 11.007 17.2966 14.1518 -8.94946
569 1 12.5794 15.7242 12.5794 -8.94993
570 1 14.1518 17.2966 14.1518 -8.94963
571 1 15.7242 15.7242 12.5794 -8.94961
572 1 17.2966 17.2966 14.1518 -8.94963
573 1 18.8691 15.7242 12.5794 -8.94963
574 1 20.4415 17.2966 14.1518 -8.94963
575 1 22.0139 18.8691 12.5794 -8.94963
576 1 1.57242 20.4415 14.1518 -8.94963
577 1 3.14484 18.8691 12.5794 -8.94963
578 1 4.71726 20.4415 14.1518 -8.94963
579 1 6.28969 18.8691 12.5794 -8.94963
580 1 7.86211 20.4415 14.1518 -8.94963
581 1 9.43453 18.8691 12.5794 -8.94973
582 1 11.007 20.4415 14.1518 -8.94963
583 1 12.5794 18.8691 12.5794 -8.94963
584 1 14.1518 20.4415 14.1518 -8.94963
585 1 15.7242 18.8691 12.5794 -8.94963
586 1 17.2966 20.4415 14.1518 -8.94963
587 1 18.8691 18.8691 12.5794 -8.94963
588 1 20.4415 20.4415 14.1518 -8.94963
589 1 1.57242 11.007 17.2966 -8.94963
590 1 4.71727 11.007 17.2966 -8.94967
591 1 7.86211 11.007 17.2967 -8.95029
592 1 11.0069 11.007 17.2967 -8.95036
593 1 14.1518 11.007 17.2966 -8.94967
594 1 17.2966 11.007 17.2966 -8.94963
595 1 20.4415 11.007 17.2966 -8.94963
596 1 22.0139 12.5794 15.7242 -8.94963
597 1 1.57242 14.1518 17.2966 -8.94963
598 1 3.14484 12.5794 15.7242 -8.94964
599 1 4.71726 14.1518 17.2966 -8.94961
600 1 6.28965 12.5794 15.7243 -8.94918
601 1 7.86212 14.1518 17.2966 -8.94974
602 1 9.43453 12.579 15.7237 -8.99692
603 1 11.0069 14.1518 17.2966 -8.94975
604 1 12.5794 12.5794 15.7243 -8.94901
605 1 14.1518 14.1518 17.2966 -8.94961
606 1 15.7242 12.5794 15.7242 -8.94963
607 1 17.2966 14.1518 17.2966 -8.94963
608 1 18.8691 12.5794 15.7242 -8.94963
609 1 20.4415 14.1518 17.2966 -8.94963
610 1 1.94243e-09 15.7242 15.7242 -8.94963
611 1 1.57242 17.2966 17.2966 -8.94963
612 1 3.14484 15.7242 15.7242 -8.94963
613 1 4.71726 17.2966 17.2966 -8.94963
614 1 6.28969 15.7242 15.7242 -8.94973
615 1 7.86211 17.2966 17.2966 -8.94963
616 1 9.43453 15.7242 15.7242 -8.95003
617 1 11.007 17.2966 17.2966 -8.94963
618 1 12.5794 15.7242 15.7242 -8.94973
619 1 14.1518 17.2966 17.2966 -8.94963
620 1 15.7242 15.7242 15.7242 -8.94964
621 1 17.2966 17.2966 17.2966 -8.94963
622 1 18.8691 15.7242 15.7242 -8.94963
623 1 20.4415 17.2966 17.2966 -8.94963
624 1 22.0139 18.8691 15.7242 -8.94963
625 1 1.57242 20.4415 17.2966 -8.94963
626 1 3.14484 18.8691 15.7242 -8.94963
627 1 4.71726 20.4415 17.2966 -8.94963
628 1 6.28969 18.8691 15.7242 -8.94963
629 1 7.86211 20.4415 17.2966 -8.94963
630 1 9.43453 18.8691 15.7242 -8.94963
631 1 11.007 20.4415 17.2966 -8.94963
632 1 12.5794 18.8691 15.7242 -8.94963
633 1 14.1518 20.4415 17.2966 -8.94963
634 1 15.7242 18.8691 15.7242 -8.94963
635 1 17.2966 20.4415 17.2966 -8.94963
636 1 18.8691 18.8691 15.7242 -8.94963
637 1 20.4415 20.4415 17.2966 -8.94963
638 1 1.57242 11.007 20.4415 -8.94963
639 1 4.71726 11.007 20.4415 -8.94963
640 1 7.86211 11.007 20.4415 -8.94964
641 1 11.007 11.007 20.4415 -8.94965
642 1 14.1518 11.007 20.4415 -8.94963
643 1 17.2966 11.007 20.4415 -8.94963
644 1 20.4415 11.007 20.4415 -8.94963
645 1 1.26378e-09 12.5794 18.8691 -8.94963
646 1 1.57242 14.1518 20.4415 -8.94963
647 1 3.14484 12.5794 18.8691 -8.94963
648 1 4.71726 14.1518 20.4415 -8.94963
649 1 6.28969 12.5794 18.8691 -8.94963
650 1 7.86211 14.1518 20.4415 -8.94963
651 1 9.43453 12.5794 18.869 -8.94947
652 1 11.007 14.1518 20.4415 -8.94963
653 1 12.5794 12.5794 18.8691 -8.94963
654 1 14.1518 14.1518 20.4415 -8.94963
655 1 15.7242 12.5794 18.8691 -8.94963
656 1 17.2966 14.1518 20.4415 -8.94963
657 1 18.8691 12.5794 18.8691 -8.94963
658 1 20.4415 14.1518 20.4415 -8.94963
659 1 22.0139 15.7242 18.8691 -8.94963
660 1 1.57242 17.2966 20.4415 -8.94963
661 1 3.14484 15.7242 18.8691 -8.94963
662 1 4.71726 17.2966 20.4415 -8.94963
663 1 6.28969 15.7242 18.8691 -8.94964
664 1 7.86211 17.2966 20.4415 -8.94963
665 1 9.43453 15.7242 18.8691 -8.94962
666 1 11.007 17.2966 20.4415 -8.94963
667 1 12.5794 15.7242 18.8691 -8.94964
668 1 14.1518 17.2966 20.4415 -8.94963
669 1 15.7242 15.7242 18.8691 -8.94963
670 1 17.2966 17.2966 20.4415 -8.94963
671 1 18.8691 15.7242 18.8691 -8.94963
672 1 20.4415 17.2966 20.4415 -8.94963
673 1 9.41381e-11 18.8691 18.8691 -8.94963
674 1 1.57242 20.4415 20.4415 -8.94963
675 1 3.14484 18.8691 18.8691 -8.94963
353 1 3.14484 12.5794 22.0139 -8.94963
385 1 9.43453 18.8691 22.0139 -8.94963
357 1 9.43453 12.5794 22.0139 -8.94963
361 1 15.7242 12.5794 22.0139 -8.94963
365 1 5.47595e-11 15.7242 22.0139 -8.94963
369 1 6.28969 15.7242 22.0139 -8.94963
381 1 3.14484 18.8691 22.0139 -8.94963
373 1 12.5794 15.7242 22.0139 -8.94963
377 1 18.8691 15.7242 22.0139 -8.94963
