ITEM: TIMESTEP
61
ITEM: NUMBER OF ATOMS
688
ITEM: BOX BOUNDS pp pp pp
0.0000000000000000e+00 2.2013900999999997e+01
0.0000000000000000e+00 2.2013900999999997e+01
0.0000000000000000e+00 2.2013900999999997e+01
ITEM: ATOMS id type x y z c_pot
189 1 20.4415 4.71697 11.007 -8.94956
2 1 1.57229 1.57233 1.57229 -8.94938
175 1 18.8695 9.43429 9.43456 -8.94872
4 1 4.71721 1.57231 1.57228 -8.94971
174 1 15.7238 9.43544 9.43541 -8.9485
6 1 7.86209 1.57229 1.57226 -8.94958
7 1 9.43452 4.9636e-16 -5.18756e-05 -8.94963
8 1 11.007 1.57228 1.57225 -8.9496
173 1 12.5747 9.42962 9.42069 -8.92528
10 1 14.1518 1.57229 1.57229 -8.94956
172 1 9.34715 9.21976 9.44244 -8.2052
12 1 17.2968 1.57226 1.57228 -8.94957
188 1 17.2973 4.71656 11.0069 -8.94919
14 1 20.4415 1.57237 1.57239 -8.94961
171 1 6.26112 9.41639 9.42299 -8.99839
16 1 1.57229 4.71718 1.57225 -8.94978
170 1 3.1367 9.43307 9.43255 -8.95259
18 1 4.71672 4.71672 1.57152 -8.94946
169 1 22.0122 9.43429 9.43423 -8.95042
20 1 7.86201 4.71679 1.57177 -8.94926
183 1 1.5715 4.71658 11.0071 -8.94936
22 1 11.007 4.71673 1.57181 -8.94946
181 1 17.2968 1.57224 11.007 -8.94958
24 1 14.152 4.71676 1.5719 -8.94971
168 1 18.8697 6.28904 9.43441 -8.94935
26 1 17.2973 4.71661 1.57183 -8.94858
167 1 15.7261 6.28775 9.43402 -8.94551
28 1 20.4416 4.71715 1.57229 -8.9496
166 1 12.5778 6.28934 9.43405 -8.95027
30 1 1.57229 7.86208 1.57223 -8.94951
165 1 9.42953 6.29145 9.43596 -9.00097
32 1 4.71703 7.86224 1.57193 -8.94981
164 1 6.2807 6.27972 9.43435 -8.94694
34 1 7.86179 7.86185 1.57067 -8.95185
35 1 9.43437 6.28928 -0.000527498 -8.94954
36 1 11.0066 7.86139 1.57059 -8.94995
37 1 12.5794 6.28932 -0.000480839 -8.94952
38 1 14.1528 7.86101 1.56995 -8.95124
163 1 3.14128 6.28746 9.4343 -8.94882
40 1 17.2972 7.86182 1.57184 -8.94941
162 1 22.0131 6.28917 9.43446 -8.94974
42 1 20.4416 7.86205 1.57227 -8.94956
158 1 9.43471 3.14362 9.43452 -8.94734
44 1 3.14468 9.4345 -0.000148391 -8.94963
161 1 18.8692 3.14461 9.43451 -8.94963
160 1 15.7247 3.14411 9.43443 -8.94949
159 1 12.5795 3.14424 9.43449 -8.94911
48 1 15.7247 9.43435 -0.000554449 -8.94943
157 1 6.28839 3.14186 9.43455 -8.94994
50 1 22.0139 1.21849e-15 3.14481 -8.94964
51 1 1.57224 1.57226 4.71715 -8.94964
52 1 3.14464 -1.98745e-16 3.14462 -8.94955
53 1 4.71683 1.57179 4.71678 -8.94985
54 1 6.28966 5.88226e-16 3.14466 -8.9496
55 1 7.86213 1.57191 4.7169 -8.94955
56 1 9.43454 1.25832e-15 3.14463 -8.9496
57 1 11.0071 1.5719 4.71687 -8.94955
58 1 12.5795 3.38548e-16 3.14464 -8.94954
59 1 14.152 1.57192 4.71707 -8.95024
60 1 15.7244 1.89712e-15 3.14471 -8.94982
61 1 17.2967 1.5723 4.71725 -8.94968
62 1 18.8691 1.38462e-15 3.14483 -8.94967
63 1 20.4415 1.57237 4.71724 -8.94961
64 1 22.0137 3.14468 3.14468 -8.94949
65 1 1.57143 4.71659 4.71658 -8.94921
66 1 3.14421 3.14423 3.14417 -8.94855
67 1 4.71451 4.71447 4.71436 -8.94508
68 1 6.28953 3.14428 3.14431 -8.94978
69 1 7.86178 4.71522 4.71572 -8.94943
70 1 9.43454 3.14422 3.14431 -8.94947
71 1 11.0073 4.71529 4.71584 -8.94815
72 1 12.5795 3.14421 3.14439 -8.94925
73 1 14.1533 4.7144 4.7158 -8.95045
74 1 15.7247 3.14403 3.14436 -8.94961
75 1 17.2972 4.71667 4.71702 -8.94977
76 1 18.8692 3.14468 3.14476 -8.94968
77 1 20.4414 4.71706 4.71713 -8.9497
78 1 22.0139 6.2896 3.14465 -8.94974
79 1 1.57186 7.86207 4.71675 -8.94966
80 1 3.14428 6.2895 3.14417 -8.95029
81 1 4.71565 7.86207 4.71542 -8.95204
82 1 6.28792 6.28795 3.14158 -8.94995
83 1 7.85755 7.85735 4.70855 -8.95369
84 1 9.43428 6.2882 3.14282 -8.94802
85 1 11.0068 7.85888 4.71136 -8.94962
86 1 12.5797 6.28821 3.14295 -8.94922
87 1 14.1617 7.85252 4.70723 -8.93376
88 1 15.7269 6.28692 3.14212 -8.94556
89 1 17.2994 7.8608 4.71598 -8.95057
90 1 18.8698 6.28923 3.14439 -8.94967
91 1 20.4419 7.86191 4.71699 -8.94996
92 1 -4.35152e-05 9.43448 3.14458 -8.94959
93 1 3.14426 9.4345 3.14409 -8.94911
94 1 6.28937 9.43522 3.14382 -8.94966
95 1 9.43461 9.43452 3.1431 -8.9509
96 1 12.5813 9.43338 3.13802 -8.95813
97 1 15.7264 9.4337 3.14257 -8.94804
98 1 18.8698 9.43438 3.14436 -8.94939
99 1 22.0138 6.86604e-16 6.28967 -8.94963
100 1 1.57222 1.57225 7.86207 -8.94961
101 1 3.14459 5.31132e-16 6.28957 -8.94958
102 1 4.71675 1.57168 7.86191 -8.9496
103 1 6.28947 1.59146e-15 6.2894 -8.95041
104 1 7.86208 1.57113 7.86197 -8.9512
105 1 9.4347 1.28453e-15 6.28942 -8.94998
106 1 11.0071 1.57192 7.86208 -8.94938
107 1 12.5795 8.54434e-16 6.28959 -8.95008
108 1 14.152 1.57209 7.86213 -8.94964
109 1 15.7243 1.9695e-15 6.28968 -8.94963
110 1 17.2968 1.57225 7.86207 -8.94956
111 1 18.8691 1.81022e-15 6.28966 -8.94959
112 1 20.4415 1.57236 7.86209 -8.94963
113 1 -0.000178463 3.14465 6.28961 -8.94957
114 1 1.57151 4.71656 7.86188 -8.94939
115 1 3.14414 3.14401 6.28928 -8.94953
116 1 4.71477 4.71413 7.86095 -8.94874
117 1 6.28867 3.14223 6.28853 -8.95115
118 1 7.86019 4.7102 7.86085 -8.95806
119 1 9.43491 3.14296 6.28896 -8.94997
120 1 11.0065 4.71604 7.86219 -8.94986
121 1 12.5796 3.14336 6.28952 -8.95156
122 1 14.1523 4.71602 7.86246 -8.94989
123 1 15.7245 3.14433 6.28974 -8.94971
124 1 17.2972 4.71664 7.86201 -8.94899
125 1 18.8692 3.14467 6.28965 -8.94951
126 1 20.4415 4.71698 7.86203 -8.94952
127 1 22.0131 6.28925 6.28928 -8.94995
128 1 1.56935 7.86112 7.8611 -8.95128
129 1 3.14101 6.28733 6.28726 -8.94888
130 1 4.7046 7.85528 7.8559 -8.9509
131 1 6.27922 6.27915 6.27924 -8.93135
132 1 7.82441 7.82921 7.83177 -8.86233
133 1 9.43458 6.28353 6.28655 -8.95097
134 1 11.0149 7.85998 7.84719 -8.91846
135 1 12.5829 6.2825 6.28592 -8.9552
136 1 14.1573 7.85836 7.86107 -8.94651
137 1 15.7262 6.28795 6.28911 -8.94964
138 1 17.2982 7.86158 7.86257 -8.95077
139 1 18.8695 6.28933 6.28963 -8.94987
140 1 20.4413 7.8618 7.86198 -8.95007
141 1 22.0136 9.43448 6.28926 -8.94973
142 1 3.14288 9.4348 6.28826 -8.94918
143 1 6.28629 9.43707 6.28716 -8.95607
144 1 9.42142 9.4162 6.28392 -8.91079
145 1 12.6138 9.40607 6.25677 -8.8779
146 1 15.7323 9.43246 6.28691 -8.95612
147 1 18.8708 9.43429 6.28939 -8.95112
148 1 -6.19679e-05 1.90488e-15 9.43453 -8.94963
149 1 3.14457 1.3986e-15 9.43452 -8.94959
150 1 6.28934 7.25974e-16 9.43454 -8.95025
151 1 9.43474 2.25703e-15 9.4345 -8.94911
152 1 12.5795 1.34864e-15 9.43452 -8.9495
153 1 15.7244 2.47961e-15 9.4345 -8.9497
154 1 18.8691 1.92479e-15 9.43452 -8.94963
155 1 22.0137 3.14463 9.43452 -8.94959
156 1 3.14411 3.14401 9.43451 -8.94952
177 1 4.71673 1.57168 11.0071 -8.9495
184 1 4.71467 4.71427 11.0079 -8.94783
3 1 3.14482 -1.71423e-16 -3.8156e-05 -8.94968
11 1 15.7242 1.47733e-15 -3.37737e-05 -8.94962
41 1 18.8692 6.28961 -0.000104074 -8.94963
19 1 6.28965 3.14471 -0.000131244 -8.94956
25 1 15.7243 3.14471 -0.000107968 -8.94971
176 1 1.57221 1.57225 11.007 -8.9496
47 1 12.5794 9.43441 22.0127 -8.95132
178 1 7.86212 1.57115 11.0071 -8.95116
179 1 11.007 1.57186 11.0069 -8.9494
180 1 14.152 1.57201 11.0069 -8.94961
343 1 18.8693 9.43449 18.8693 -8.94959
182 1 20.4415 1.57236 11.007 -8.94963
342 1 15.7249 9.43431 18.87 -8.94927
46 1 9.43434 9.43451 22.0133 -8.94942
185 1 7.86004 4.71037 11.0084 -8.95764
186 1 11.0066 4.7157 11.0069 -8.94967
187 1 14.1526 4.71565 11.006 -8.94917
341 1 12.5793 9.43441 18.871 -8.95229
340 1 9.43429 9.43456 18.8692 -8.94873
190 1 1.56944 7.86132 11.0072 -8.95117
191 1 4.70485 7.85729 11.0094 -8.95499
192 1 7.81954 7.83038 11.0405 -8.91564
193 1 11.0243 7.85881 11.0269 -8.9734
194 1 14.1583 7.85796 11.004 -8.94894
195 1 17.2988 7.86105 11.0062 -8.94982
196 1 20.4415 7.86173 11.0069 -8.95005
197 1 22.0138 1.78754e-15 12.5794 -8.94963
198 1 1.57224 1.57226 14.1519 -8.94963
199 1 3.14459 4.29677e-16 12.5795 -8.94953
200 1 4.71681 1.5717 14.1523 -8.95005
201 1 6.28948 1.86069e-15 12.5797 -8.95057
202 1 7.86216 1.57198 14.1522 -8.94941
203 1 9.43468 1.81998e-15 12.5796 -8.94978
204 1 11.007 1.57188 14.1522 -8.94948
205 1 12.5795 9.68363e-16 12.5795 -8.95049
206 1 14.1521 1.57168 14.1521 -8.95061
207 1 15.7244 1.63089e-15 12.5794 -8.9496
208 1 17.2968 1.57228 14.1518 -8.94965
209 1 18.8691 7.6667e-16 12.5794 -8.9496
210 1 20.4415 1.57237 14.1518 -8.94961
211 1 22.0137 3.14464 12.5794 -8.94955
212 1 1.5715 4.71658 14.1524 -8.94967
213 1 3.14414 3.14403 12.5797 -8.9494
214 1 4.71422 4.71374 14.155 -8.94539
215 1 6.28867 3.14198 12.5805 -8.95176
216 1 7.86212 4.71578 14.1531 -8.94898
217 1 9.43487 3.1433 12.5801 -8.94929
218 1 11.0067 4.71528 14.1533 -8.94754
219 1 12.5796 3.14254 12.5796 -8.95306
220 1 14.1541 4.71266 14.154 -8.95101
221 1 15.7246 3.1442 12.5792 -8.94954
222 1 17.2973 4.71659 14.1519 -8.95004
223 1 18.8692 3.14465 12.5794 -8.94952
224 1 20.4415 4.71704 14.1519 -8.94968
225 1 22.0132 6.28926 12.5796 -8.94996
226 1 1.5709 7.86139 14.1529 -8.9494
227 1 3.14131 6.28758 12.5811 -8.95049
228 1 4.71271 7.85887 14.1564 -8.94469
229 1 6.27814 6.27733 12.5905 -8.93383
230 1 7.86009 7.86044 14.1579 -8.9601
231 1 9.43474 6.28606 12.5817 -8.94693
232 1 11.0033 7.85973 14.1573 -8.95
233 1 12.5848 6.27683 12.5849 -8.95992
234 1 14.1689 7.84501 14.1689 -8.91448
235 1 15.7266 6.28769 12.5792 -8.95001
236 1 17.3007 7.86039 14.1534 -8.95231
237 1 18.8697 6.28922 12.5793 -8.94952
238 1 20.4419 7.86179 14.1521 -8.95036
239 1 22.0127 9.43424 12.5799 -8.95046
240 1 3.13859 9.43314 12.5819 -8.94992
241 1 6.27065 9.42644 12.591 -8.97464
242 1 9.42668 9.43357 12.5682 -9.04929
243 1 12.6368 9.37818 12.6358 -8.82561
244 1 15.7354 9.43254 12.582 -8.96432
245 1 18.871 9.4344 12.5794 -8.95237
246 1 -4.8378e-05 1.74289e-15 15.7242 -8.94965
247 1 1.57226 1.57229 17.2968 -8.94935
248 1 3.14462 -4.15496e-16 15.7245 -8.94962
249 1 4.71724 1.57233 17.2968 -8.9497
250 1 6.28968 1.34449e-15 15.7244 -8.94954
251 1 7.86208 1.57229 17.2968 -8.94956
252 1 9.43452 1.10835e-15 15.7244 -8.94958
253 1 11.0069 1.57227 17.2968 -8.94959
254 1 12.5794 1.603e-15 15.7244 -8.9495
255 1 14.1518 1.57229 17.2968 -8.94955
256 1 15.7244 1.79188e-15 15.7244 -8.94994
257 1 17.2968 1.57219 17.2968 -8.94953
258 1 18.8691 8.77804e-16 15.7242 -8.94967
259 1 20.4415 1.57237 17.2967 -8.94966
260 1 22.0137 3.14467 15.7244 -8.94959
261 1 1.57219 4.71704 17.297 -8.94941
262 1 3.14411 3.14404 15.725 -8.94852
263 1 4.71692 4.71684 17.2974 -8.94992
264 1 6.28965 3.1444 15.7247 -8.94968
265 1 7.86199 4.71682 17.2973 -8.94908
266 1 9.43446 3.14421 15.7248 -8.94937
267 1 11.0068 4.7167 17.2973 -8.94938
268 1 12.5793 3.14416 15.7247 -8.94917
269 1 14.1518 4.71671 17.2972 -8.95013
270 1 15.7249 3.1436 15.7249 -8.94961
271 1 17.2976 4.71626 17.2976 -8.94771
272 1 18.8692 3.14466 15.7243 -8.94979
273 1 20.4417 4.71706 17.2968 -8.94954
274 1 22.0137 6.2894 15.7246 -8.94964
275 1 1.57222 7.86201 17.297 -8.94956
276 1 3.1437 6.28876 15.7255 -8.94854
277 1 4.71693 7.86201 17.2977 -8.95033
278 1 6.28873 6.2886 15.7269 -8.95139
279 1 7.86221 7.86218 17.2978 -8.95172
280 1 9.43389 6.28832 15.7262 -8.94695
281 1 11.006 7.86142 17.2984 -8.94973
282 1 12.5789 6.2881 15.7263 -8.95044
283 1 14.1533 7.86042 17.3006 -8.95225
284 1 15.7286 6.28511 15.7287 -8.94144
285 1 17.2975 7.86171 17.2975 -8.94922
286 1 18.8701 6.28903 15.7249 -8.94988
287 1 20.4417 7.86202 17.2969 -8.94949
288 1 22.0137 9.43442 15.7246 -8.94949
289 1 3.14388 9.43429 15.7255 -8.94899
290 1 6.28908 9.43511 15.7264 -8.95295
291 1 9.43491 9.43632 15.7228 -8.94765
292 1 12.5821 9.43242 15.7353 -8.96336
293 1 15.7276 9.43335 15.7276 -8.94657
294 1 18.8701 9.43432 15.7249 -8.94921
295 1 22.0139 1.23739e-15 18.8691 -8.94952
296 1 1.57239 1.57238 20.4415 -8.94959
297 1 3.14484 3.6716e-16 18.8691 -8.94969
298 1 4.71726 1.57239 20.4415 -8.94962
299 1 6.28967 6.5086e-16 18.8691 -8.94961
300 1 7.8621 1.57237 20.4415 -8.94963
301 1 9.43452 5.57604e-16 18.8691 -8.94963
302 1 11.007 1.57237 20.4415 -8.94963
303 1 12.5794 1.58508e-15 18.8691 -8.94962
304 1 14.1518 1.57238 20.4415 -8.94961
305 1 15.7242 1.61834e-15 18.8691 -8.94963
306 1 17.2966 1.57238 20.4415 -8.94971
307 1 18.8691 1.70285e-15 18.8691 -8.94955
308 1 20.4415 1.57239 20.4415 -8.94949
309 1 -4.24592e-06 3.14478 18.8691 -8.94956
310 1 1.57238 4.71723 20.4415 -8.94967
311 1 3.14474 3.14472 18.8692 -8.94965
312 1 4.71714 4.71713 20.4414 -8.94982
313 1 6.28966 3.14472 18.8692 -8.94953
314 1 7.86203 4.71705 20.4415 -8.94952
315 1 9.4345 3.14466 18.8692 -8.9496
316 1 11.0069 4.71704 20.4415 -8.94959
317 1 12.5794 3.14468 18.8692 -8.94956
318 1 14.1518 4.71708 20.4415 -8.94959
319 1 15.7242 3.1447 18.8692 -8.94982
320 1 17.2969 4.717 20.4416 -8.94955
321 1 18.8692 3.14465 18.8692 -8.9492
322 1 20.4415 4.71723 20.4415 -8.94967
323 1 22.0139 6.28965 18.8691 -8.94962
324 1 1.57235 7.86208 20.4415 -8.9496
325 1 3.1447 6.2896 18.8693 -8.94976
326 1 4.71715 7.8621 20.4416 -8.94976
327 1 6.28957 6.28953 18.8695 -8.95023
328 1 7.862 7.86201 20.4414 -8.95007
329 1 9.4343 6.28925 18.8696 -8.94949
330 1 11.0067 7.86183 20.4415 -8.94991
331 1 12.5792 6.28932 18.8696 -8.94948
332 1 14.152 7.86178 20.4417 -8.95068
333 1 15.7248 6.28902 18.87 -8.94998
334 1 17.2969 7.862 20.4416 -8.94947
335 1 18.8693 6.28958 18.8692 -8.94964
336 1 20.4415 7.86209 20.4415 -8.94964
337 1 22.0139 9.43452 18.8692 -8.94963
338 1 3.14463 9.43448 18.8694 -8.94956
339 1 6.28958 9.43461 18.8695 -8.95002
45 1 6.2895 9.43459 22.0136 -8.94959
5 1 6.28967 -2.07021e-16 22.0139 -8.94962
9 1 12.5794 4.74655e-16 22.0139 -8.94963
39 1 15.7247 6.2892 22.0134 -8.94993
15 1 22.0139 3.1448 22.0139 -8.94963
17 1 3.14471 3.1447 22.0137 -8.94954
33 1 6.28945 6.28946 22.0133 -8.95025
31 1 3.14475 6.28968 22.0138 -8.94975
27 1 18.8692 3.1447 22.0138 -8.94937
29 1 -3.26132e-06 6.28967 22.0139 -8.9496
1 1 -2.45922e-05 1.19889e-15 22.0139 -8.94954
13 1 18.8691 1.8837e-15 22.0139 -8.94958
21 1 9.43452 3.14467 22.0138 -8.9496
23 1 12.5794 3.14468 22.0138 -8.94958
43 1 22.0139 9.43452 22.0139 -8.94963
49 1 18.8692 9.4345 22.0138 -8.94961
344 1 1.57226 11.007 1.57219 -8.94962
345 1 4.71683 11.007 1.57173 -8.94976
346 1 7.86187 11.007 1.57198 -8.94831
347 1 11.0067 11.007 1.57107 -8.94753
348 1 14.1531 11.007 1.56983 -8.94952
349 1 17.2973 11.007 1.57182 -8.94956
350 1 20.4416 11.007 1.57226 -8.94959
538 1 17.2968 20.4417 11.007 -8.94958
352 1 1.57229 14.1518 1.57223 -8.94951
353 1 3.14468 12.5794 -0.000148391 -8.94963
354 1 4.71703 14.1517 1.57193 -8.94981
688 3 10.2269 11.007 9.49657 2.25222
356 1 7.86179 14.152 1.57067 -8.95185
511 1 18.8692 18.8693 9.43451 -8.94963
358 1 11.0066 14.1525 1.57059 -8.94995
510 1 15.7247 18.8698 9.43443 -8.94949
360 1 14.1528 14.1529 1.56995 -8.95124
361 1 15.7247 12.5795 -0.000554449 -8.94943
362 1 17.2972 14.1521 1.57184 -8.94941
532 1 20.4415 17.2969 11.007 -8.94956
364 1 20.4416 14.1518 1.57227 -8.94956
509 1 12.5795 18.8697 9.43449 -8.94911
366 1 1.57229 17.2967 1.57225 -8.94978
508 1 9.43471 18.8703 9.43452 -8.94734
368 1 4.71672 17.2972 1.57152 -8.94946
507 1 6.28839 18.872 9.43455 -8.94994
370 1 7.86201 17.2971 1.57177 -8.94926
371 1 9.43437 15.7246 -0.000527498 -8.94954
372 1 11.007 17.2972 1.57181 -8.94946
373 1 12.5794 15.7246 -0.000480839 -8.94952
374 1 14.152 17.2971 1.5719 -8.94971
506 1 3.14411 18.8699 9.43451 -8.94952
376 1 17.2973 17.2973 1.57183 -8.94858
505 1 22.0137 18.8693 9.43452 -8.94959
378 1 20.4416 17.2968 1.57229 -8.9496
504 1 18.8697 15.7249 9.43441 -8.94935
380 1 1.57229 20.4416 1.57229 -8.94938
503 1 15.7261 15.7262 9.43402 -8.94551
382 1 4.71721 20.4416 1.57228 -8.94971
502 1 12.5778 15.7246 9.43405 -8.95027
384 1 7.86209 20.4416 1.57226 -8.94958
531 1 17.2973 17.2973 11.0069 -8.94919
386 1 11.007 20.4416 1.57225 -8.9496
687 2 9.51851 11.007 10.885 0.384396
388 1 14.1518 20.4416 1.57229 -8.94956
501 1 9.42953 15.7224 9.43596 -9.00097
390 1 17.2968 20.4416 1.57228 -8.94957
500 1 6.2807 15.7342 9.43435 -8.94694
392 1 20.4415 20.4415 1.57239 -8.94961
393 1 1.57175 11.007 4.71654 -8.94951
394 1 4.71559 11.007 4.71502 -8.94684
395 1 7.8638 11.007 4.71898 -8.94427
396 1 11.0106 11.007 4.71808 -8.99489
397 1 14.1597 11.007 4.70934 -8.94312
398 1 17.2994 11.007 4.71585 -8.94926
399 1 20.442 11.007 4.71691 -8.9498
400 1 -4.35152e-05 12.5794 3.14458 -8.94959
401 1 1.57186 14.1518 4.71675 -8.94966
402 1 3.14426 12.5794 3.14409 -8.94911
403 1 4.71565 14.1518 4.71542 -8.95204
404 1 6.28937 12.5787 3.14382 -8.94966
405 1 7.85755 14.1565 4.70855 -8.95369
406 1 9.43461 12.5794 3.1431 -8.9509
407 1 11.0068 14.155 4.71136 -8.94962
408 1 12.5813 12.5805 3.13802 -8.95813
409 1 14.1617 14.1614 4.70723 -8.93376
410 1 15.7264 12.5802 3.14257 -8.94804
411 1 17.2994 14.1531 4.71598 -8.95057
412 1 18.8698 12.5795 3.14436 -8.94939
413 1 20.4419 14.152 4.71699 -8.94996
414 1 22.0139 15.7243 3.14465 -8.94974
415 1 1.57143 17.2973 4.71658 -8.94921
416 1 3.14428 15.7244 3.14417 -8.95029
417 1 4.71451 17.2994 4.71436 -8.94508
418 1 6.28792 15.726 3.14158 -8.94995
419 1 7.86178 17.2987 4.71572 -8.94943
420 1 9.43428 15.7257 3.14282 -8.94802
421 1 11.0073 17.2986 4.71584 -8.94815
422 1 12.5797 15.7257 3.14295 -8.94922
423 1 14.1533 17.2995 4.7158 -8.95045
424 1 15.7269 15.727 3.14212 -8.94556
425 1 17.2972 17.2972 4.71702 -8.94977
426 1 18.8698 15.7247 3.14439 -8.94967
427 1 20.4414 17.2968 4.71713 -8.9497
428 1 22.0137 18.8692 3.14468 -8.94949
429 1 1.57224 20.4416 4.71715 -8.94964
430 1 3.14421 18.8697 3.14417 -8.94855
431 1 4.71683 20.4421 4.71678 -8.94985
432 1 6.28953 18.8696 3.14431 -8.94978
433 1 7.86213 20.442 4.7169 -8.94955
434 1 9.43454 18.8697 3.14431 -8.94947
435 1 11.0071 20.442 4.71687 -8.94955
436 1 12.5795 18.8697 3.14439 -8.94925
437 1 14.152 20.442 4.71707 -8.95024
438 1 15.7247 18.8699 3.14436 -8.94961
439 1 17.2967 20.4416 4.71725 -8.94968
440 1 18.8692 18.8692 3.14476 -8.94968
441 1 20.4415 20.4415 4.71724 -8.94961
442 1 1.57053 11.007 7.8611 -8.94778
443 1 4.71445 11.007 7.85967 -8.93725
444 1 7.87794 11.007 7.8742 -8.98482
445 1 11.0744 11.007 7.66722 -8.24421
446 1 14.1615 11.007 7.85509 -8.96531
447 1 17.2995 11.007 7.86218 -8.95131
448 1 20.4417 11.007 7.86198 -8.94985
449 1 22.0136 12.5794 6.28926 -8.94973
450 1 1.56935 14.1528 7.8611 -8.95128
451 1 3.14288 12.5791 6.28826 -8.94918
452 1 4.7046 14.1586 7.8559 -8.9509
453 1 6.28629 12.5768 6.28716 -8.95607
454 1 7.82441 14.1847 7.83177 -8.86233
455 1 9.42142 12.5977 6.28392 -8.91079
456 1 11.0149 14.1539 7.84719 -8.91846
457 1 12.6138 12.6078 6.25677 -8.8779
458 1 14.1573 14.1555 7.86107 -8.94651
459 1 15.7323 12.5814 6.28691 -8.95612
460 1 17.2982 14.1523 7.86257 -8.95077
461 1 18.8708 12.5796 6.28939 -8.95112
462 1 20.4413 14.1521 7.86198 -8.95007
463 1 22.0131 15.7247 6.28928 -8.94995
464 1 1.57151 17.2973 7.86188 -8.94939
465 1 3.14101 15.7266 6.28726 -8.94888
466 1 4.71477 17.2998 7.86095 -8.94874
467 1 6.27922 15.7347 6.27924 -8.93135
468 1 7.86019 17.3037 7.86085 -8.95806
469 1 9.43458 15.7304 6.28655 -8.95097
470 1 11.0065 17.2979 7.86219 -8.94986
471 1 12.5829 15.7314 6.28592 -8.9552
472 1 14.1523 17.2979 7.86246 -8.94989
473 1 15.7262 15.726 6.28911 -8.94964
474 1 17.2972 17.2973 7.86201 -8.94899
475 1 18.8695 15.7246 6.28963 -8.94987
476 1 20.4415 17.2969 7.86203 -8.94952
477 1 -0.000178463 18.8693 6.28961 -8.94957
478 1 1.57222 20.4417 7.86207 -8.94961
479 1 3.14414 18.8699 6.28928 -8.94953
480 1 4.71675 20.4422 7.86191 -8.9496
481 1 6.28867 18.8717 6.28853 -8.95115
482 1 7.86208 20.4428 7.86197 -8.9512
483 1 9.43491 18.8709 6.28896 -8.94997
484 1 11.0071 20.442 7.86208 -8.94938
485 1 12.5796 18.8705 6.28952 -8.95156
486 1 14.152 20.4418 7.86213 -8.94964
487 1 15.7245 18.8696 6.28974 -8.94971
488 1 17.2968 20.4417 7.86207 -8.94956
489 1 18.8692 18.8692 6.28965 -8.94951
490 1 20.4415 20.4415 7.86209 -8.94963
491 1 22.0122 12.5796 9.43423 -8.95042
492 1 3.1367 12.5808 9.43255 -8.95259
493 1 6.26112 12.5975 9.42299 -8.99839
494 1 9.34715 12.7941 9.44244 -8.2052
495 1 12.5747 12.5843 9.42069 -8.92528
496 1 15.7238 12.5785 9.43541 -8.9485
497 1 18.8695 12.5796 9.43456 -8.94872
498 1 22.0131 15.7247 9.43446 -8.94974
499 1 3.14128 15.7264 9.4343 -8.94882
526 1 1.5715 17.2973 11.0071 -8.94936
527 1 4.71467 17.2996 11.0079 -8.94783
534 1 4.71673 20.4422 11.0071 -8.9495
389 1 15.7243 18.8692 -0.000107968 -8.94971
383 1 6.28965 18.8692 -0.000131244 -8.94956
377 1 18.8692 15.7243 -0.000104074 -8.94963
512 1 1.56745 11.007 11.0073 -8.95316
513 1 4.69564 11.007 11.0071 -8.97091
514 1 7.75251 11.007 10.9972 -9.10784
515 1 11.2449 11.007 11.2292 -8.30508
516 1 14.144 11.007 11.0165 -9.00934
517 1 17.2975 11.007 11.0064 -8.94487
518 1 20.4411 11.007 11.0069 -8.94982
519 1 1.56944 14.1526 11.0072 -8.95117
520 1 4.70485 14.1566 11.0094 -8.95499
521 1 7.81954 14.1835 11.0405 -8.91564
522 1 11.0243 14.1551 11.0269 -8.9734
523 1 14.1583 14.1559 11.004 -8.94894
524 1 17.2988 14.1529 11.0062 -8.94982
525 1 20.4415 14.1522 11.0069 -8.95005
686 1 20.4415 20.4415 20.4415 -8.94949
391 1 18.8692 18.8692 22.0138 -8.94937
528 1 7.86004 17.3035 11.0084 -8.95764
529 1 11.0066 17.2982 11.0069 -8.94967
530 1 14.1526 17.2983 11.006 -8.94917
685 1 18.8692 18.8693 18.8692 -8.9492
684 1 17.2966 20.4415 20.4415 -8.94971
533 1 1.57221 20.4417 11.007 -8.9496
381 1 3.14471 18.8692 22.0137 -8.94954
535 1 7.86212 20.4428 11.0071 -8.95116
536 1 11.007 20.442 11.0069 -8.9494
537 1 14.152 20.4419 11.0069 -8.94961
683 1 15.7242 18.8692 18.8692 -8.94982
539 1 20.4415 20.4415 11.007 -8.94963
540 1 1.57083 11.007 14.1529 -8.94917
541 1 4.71287 11.007 14.1551 -8.9442
542 1 7.86129 11.007 14.1456 -9.00155
543 1 11.0174 11.007 14.1473 -9.05962
544 1 14.164 11.007 14.1639 -8.94023
545 1 17.3007 11.007 14.1538 -8.94906
546 1 20.442 11.007 14.1523 -8.95
547 1 22.0127 12.5797 12.5799 -8.95046
548 1 1.5709 14.1525 14.1529 -8.9494
549 1 3.13859 12.5808 12.5819 -8.94992
550 1 4.71271 14.155 14.1564 -8.94469
551 1 6.27065 12.5875 12.591 -8.97464
552 1 7.86009 14.1535 14.1579 -8.9601
553 1 9.42668 12.5803 12.5682 -9.04929
554 1 11.0033 14.1542 14.1573 -8.95
555 1 12.6368 12.6357 12.6358 -8.82561
556 1 14.1689 14.1689 14.1689 -8.91448
557 1 15.7354 12.5814 12.582 -8.96432
558 1 17.3007 14.1535 14.1534 -8.95231
559 1 18.871 12.5795 12.5794 -8.95237
560 1 20.4419 14.1521 14.1521 -8.95036
561 1 22.0132 15.7246 12.5796 -8.94996
562 1 1.5715 17.2973 14.1524 -8.94967
563 1 3.14131 15.7263 12.5811 -8.95049
564 1 4.71422 17.3002 14.155 -8.94539
565 1 6.27814 15.7366 12.5905 -8.93383
566 1 7.86212 17.2981 14.1531 -8.94898
567 1 9.43474 15.7278 12.5817 -8.94693
568 1 11.0067 17.2986 14.1533 -8.94754
569 1 12.5848 15.7371 12.5849 -8.95992
570 1 14.1541 17.3012 14.154 -8.95101
571 1 15.7266 15.7262 12.5792 -8.95001
572 1 17.2973 17.2973 14.1519 -8.95004
573 1 18.8697 15.7247 12.5793 -8.94952
574 1 20.4415 17.2969 14.1519 -8.94968
575 1 22.0137 18.8693 12.5794 -8.94955
576 1 1.57224 20.4416 14.1519 -8.94963
577 1 3.14414 18.8699 12.5797 -8.9494
578 1 4.71681 20.4422 14.1523 -8.95005
579 1 6.28867 18.8719 12.5805 -8.95176
580 1 7.86216 20.4419 14.1522 -8.94941
581 1 9.43487 18.8706 12.5801 -8.94929
582 1 11.007 20.442 14.1522 -8.94948
583 1 12.5796 18.8714 12.5796 -8.95306
584 1 14.1521 20.4422 14.1521 -8.95061
585 1 15.7246 18.8697 12.5792 -8.94954
586 1 17.2968 20.4416 14.1518 -8.94965
587 1 18.8692 18.8693 12.5794 -8.94952
588 1 20.4415 20.4415 14.1518 -8.94961
589 1 1.57217 11.007 17.297 -8.94964
590 1 4.71662 11.007 17.2978 -8.9495
591 1 7.86206 11.007 17.2964 -8.94735
592 1 11.0064 11.007 17.2978 -8.94595
593 1 14.1537 11.007 17.3006 -8.9492
594 1 17.2976 11.007 17.2976 -8.94944
595 1 20.4417 11.007 17.2969 -8.94956
596 1 22.0137 12.5795 15.7246 -8.94949
597 1 1.57222 14.1519 17.297 -8.94956
598 1 3.14388 12.5796 15.7255 -8.94899
599 1 4.71693 14.1519 17.2977 -8.95033
600 1 6.28908 12.5788 15.7264 -8.95295
601 1 7.86221 14.1517 17.2978 -8.95172
602 1 9.43491 12.5776 15.7228 -8.94765
603 1 11.006 14.1525 17.2984 -8.94973
604 1 12.5821 12.5815 15.7353 -8.96336
605 1 14.1533 14.1535 17.3006 -8.95225
606 1 15.7276 12.5806 15.7276 -8.94657
607 1 17.2975 14.1522 17.2975 -8.94922
608 1 18.8701 12.5796 15.7249 -8.94921
609 1 20.4417 14.1519 17.2969 -8.94949
610 1 22.0137 15.7245 15.7246 -8.94964
611 1 1.57219 17.2969 17.297 -8.94941
612 1 3.1437 15.7251 15.7255 -8.94854
613 1 4.71692 17.2971 17.2974 -8.94992
614 1 6.28873 15.7253 15.7269 -8.95139
615 1 7.86199 17.2971 17.2973 -8.94908
616 1 9.43389 15.7256 15.7262 -8.94695
617 1 11.0068 17.2972 17.2973 -8.94938
618 1 12.5789 15.7258 15.7263 -8.95044
619 1 14.1518 17.2972 17.2972 -8.95013
620 1 15.7286 15.7288 15.7287 -8.94144
621 1 17.2976 17.2976 17.2976 -8.94771
622 1 18.8701 15.7249 15.7249 -8.94988
623 1 20.4417 17.2968 17.2968 -8.94954
624 1 22.0137 18.8692 15.7244 -8.94959
625 1 1.57226 20.4416 17.2968 -8.94935
626 1 3.14411 18.8699 15.725 -8.94852
627 1 4.71724 20.4416 17.2968 -8.9497
628 1 6.28965 18.8695 15.7247 -8.94968
629 1 7.86208 20.4416 17.2968 -8.94956
630 1 9.43446 18.8697 15.7248 -8.94937
631 1 11.0069 20.4416 17.2968 -8.94959
632 1 12.5793 18.8697 15.7247 -8.94917
633 1 14.1518 20.4416 17.2968 -8.94955
634 1 15.7249 18.8703 15.7249 -8.94961
635 1 17.2968 20.4417 17.2968 -8.94953
636 1 18.8692 18.8692 15.7243 -8.94979
637 1 20.4415 20.4415 17.2967 -8.94966
638 1 1.57235 11.007 20.4415 -8.94962
639 1 4.71709 11.007 20.4416 -8.9498
640 1 7.86197 11.007 20.4414 -8.94923
641 1 11.0066 11.007 20.4415 -8.94907
642 1 14.1522 11.007 20.4417 -8.95023
643 1 17.2969 11.007 20.4416 -8.94954
644 1 20.4415 11.007 20.4415 -8.94964
645 1 22.0139 12.5794 18.8692 -8.94963
646 1 1.57235 14.1518 20.4415 -8.9496
647 1 3.14463 12.5794 18.8694 -8.94956
648 1 4.71715 14.1518 20.4416 -8.94976
649 1 6.28958 12.5793 18.8695 -8.95002
650 1 7.862 14.1519 20.4414 -8.95007
651 1 9.43429 12.5793 18.8692 -8.94873
652 1 11.0067 14.1521 20.4415 -8.94991
653 1 12.5793 12.5795 18.871 -8.95229
654 1 14.152 14.1521 20.4417 -8.95068
655 1 15.7249 12.5796 18.87 -8.94927
656 1 17.2969 14.1519 20.4416 -8.94947
657 1 18.8693 12.5794 18.8693 -8.94959
658 1 20.4415 14.1518 20.4415 -8.94964
659 1 22.0139 15.7242 18.8691 -8.94962
660 1 1.57238 17.2967 20.4415 -8.94967
661 1 3.1447 15.7243 18.8693 -8.94976
662 1 4.71714 17.2968 20.4414 -8.94982
663 1 6.28957 15.7244 18.8695 -8.95023
664 1 7.86203 17.2968 20.4415 -8.94952
665 1 9.4343 15.7246 18.8696 -8.94949
666 1 11.0069 17.2969 20.4415 -8.94959
667 1 12.5792 15.7246 18.8696 -8.94948
668 1 14.1518 17.2968 20.4415 -8.94959
669 1 15.7248 15.7249 18.87 -8.94998
670 1 17.2969 17.2969 20.4416 -8.94955
671 1 18.8693 15.7243 18.8692 -8.94964
672 1 20.4415 17.2967 20.4415 -8.94967
673 1 -4.24592e-06 18.8691 18.8691 -8.94956
674 1 1.57239 20.4415 20.4415 -8.94959
675 1 3.14474 18.8692 18.8692 -8.94965
676 1 4.71726 20.4415 20.4415 -8.94962
677 1 6.28966 18.8692 18.8692 -8.94953
678 1 7.8621 20.4415 20.4415 -8.94963
679 1 9.4345 18.8692 18.8692 -8.9496
680 1 11.007 20.4415 20.4415 -8.94963
681 1 12.5794 18.8692 18.8692 -8.94956
682 1 14.1518 20.4415 20.4415 -8.94961
355 1 6.2895 12.5793 22.0136 -8.94959
357 1 9.43434 12.5794 22.0133 -8.94942
359 1 12.5794 12.5795 22.0127 -8.95132
365 1 -3.26132e-06 15.7242 22.0139 -8.9496
367 1 3.14475 15.7242 22.0138 -8.94975
369 1 6.28945 15.7244 22.0133 -8.95025
375 1 15.7247 15.7247 22.0134 -8.94993
379 1 22.0139 18.8691 22.0139 -8.94963
351 1 22.0139 12.5794 22.0139 -8.94963
363 1 18.8692 12.5794 22.0138 -8.94961
385 1 9.43452 18.8692 22.0138 -8.9496
387 1 12.5794 18.8692 22.0138 -8.94958
