ITEM: TIMESTEP
58
ITEM: NUMBER OF ATOMS
688
ITEM: BOX BOUNDS pp pp pp
0.0000000000000000e+00 2.2013900999999997e+01
0.0000000000000000e+00 2.2013900999999997e+01
0.0000000000000000e+00 2.2013900999999997e+01
ITEM: ATOMS id type x y z c_pot
189 1 20.4415 4.71722 11.007 -8.94962
2 1 1.5724 1.57241 1.5724 -8.94955
175 1 18.8695 9.43431 9.43452 -8.94921
4 1 4.71726 1.57241 1.57241 -8.9497
174 1 15.7252 9.43425 9.4348 -8.9473
6 1 7.8621 1.5724 1.5724 -8.94963
7 1 9.43453 4.12587e-16 -3.57242e-06 -8.94964
8 1 11.007 1.5724 1.5724 -8.94964
173 1 12.5763 9.43085 9.42386 -8.92924
10 1 14.1518 1.57241 1.5724 -8.94962
172 1 9.34589 9.22209 9.43891 -8.18303
12 1 17.2967 1.57239 1.5724 -8.9496
188 1 17.2968 4.71705 11.007 -8.94946
14 1 20.4415 1.57242 1.57242 -8.94963
171 1 6.26535 9.41998 9.42455 -8.9991
16 1 1.57241 4.71726 1.5724 -8.9497
170 1 3.13967 9.43369 9.43334 -8.95258
18 1 4.7171 4.71709 1.57214 -8.94952
169 1 22.0132 9.43442 9.4344 -8.95037
20 1 7.8621 4.71713 1.57225 -8.94946
183 1 1.57218 4.71709 11.007 -8.94952
22 1 11.007 4.71711 1.57224 -8.94959
181 1 17.2967 1.57239 11.007 -8.94961
24 1 14.1518 4.71716 1.57231 -8.94979
168 1 18.8693 6.28947 9.4345 -8.94947
26 1 17.2968 4.71707 1.57223 -8.94905
167 1 15.7252 6.28853 9.43433 -8.94682
28 1 20.4415 4.71724 1.5724 -8.94962
166 1 12.5784 6.28922 9.43434 -8.95072
30 1 1.5724 7.8621 1.57239 -8.9496
165 1 9.43127 6.28717 9.43505 -8.99868
32 1 4.71719 7.86215 1.57228 -8.94973
164 1 6.28424 6.28311 9.4345 -8.94779
34 1 7.86187 7.86188 1.57143 -8.95109
35 1 9.43449 6.28955 -0.000180546 -8.94956
36 1 11.0067 7.8617 1.57148 -8.94967
37 1 12.5794 6.28958 -0.000139992 -8.94955
38 1 14.1524 7.86152 1.57109 -8.95064
163 1 3.14332 6.28874 9.43448 -8.94909
40 1 17.2968 7.86206 1.57228 -8.94965
162 1 22.0137 6.28955 9.43452 -8.94969
42 1 20.4415 7.8621 1.5724 -8.94962
158 1 9.43475 3.14337 9.43452 -8.94909
44 1 3.14481 9.43452 -2.96704e-05 -8.94963
161 1 18.8691 3.14481 9.43453 -8.94966
160 1 15.7244 3.14457 9.43451 -8.94955
159 1 12.5795 3.14447 9.43451 -8.9492
48 1 15.7244 9.43449 -0.000177357 -8.9495
157 1 6.28905 3.14338 9.43454 -8.94961
50 1 22.0139 1.41748e-15 3.14484 -8.94965
51 1 1.5724 1.5724 4.71725 -8.94967
52 1 3.1448 -1.66023e-16 3.1448 -8.94958
53 1 4.71712 1.5722 4.71711 -8.94968
54 1 6.28969 1.60022e-16 3.14482 -8.94963
55 1 7.86213 1.57228 4.71717 -8.94957
56 1 9.43453 1.52834e-15 3.14481 -8.94964
57 1 11.007 1.57225 4.71713 -8.94958
58 1 12.5794 6.23212e-16 3.14481 -8.9496
59 1 14.1519 1.57223 4.71718 -8.94988
60 1 15.7242 1.38446e-15 3.14481 -8.94967
61 1 17.2967 1.5724 4.71727 -8.94965
62 1 18.8691 1.74225e-15 3.14484 -8.94964
63 1 20.4415 1.57242 4.71726 -8.94964
64 1 22.0139 3.14481 3.14481 -8.94958
65 1 1.57211 4.71706 4.71706 -8.94942
66 1 3.14466 3.14466 3.14465 -8.94905
67 1 4.71593 4.71592 4.71588 -8.9462
68 1 6.28968 3.14473 3.14474 -8.94984
69 1 7.86212 4.71646 4.71665 -8.94979
70 1 9.43452 3.14466 3.14469 -8.94959
71 1 11.0071 4.71629 4.71651 -8.94856
72 1 12.5794 3.14467 3.14471 -8.94945
73 1 14.1525 4.71578 4.71656 -8.95014
74 1 15.7244 3.14458 3.14469 -8.94959
75 1 17.2968 4.71712 4.71721 -8.94976
76 1 18.8691 3.14482 3.14483 -8.94967
77 1 20.4415 4.71723 4.71724 -8.94964
78 1 22.0139 6.28967 3.14481 -8.94968
79 1 1.57227 7.86211 4.71713 -8.94965
80 1 3.14471 6.28965 3.14468 -8.95
81 1 4.71656 7.86219 4.71645 -8.95123
82 1 6.28885 6.28886 3.14321 -8.94985
83 1 7.85912 7.85912 4.7108 -8.95371
84 1 9.43443 6.28892 3.14387 -8.94846
85 1 11.0064 7.85996 4.71314 -8.95002
86 1 12.5794 6.28906 3.14408 -8.94956
87 1 14.159 7.85487 4.70998 -8.93433
88 1 15.7256 6.28831 3.14348 -8.94637
89 1 17.298 7.86147 4.71663 -8.95035
90 1 18.8693 6.28954 3.1447 -8.94964
91 1 20.4416 7.86205 4.71719 -8.94983
92 1 -7.13566e-06 9.43452 3.1448 -8.94963
93 1 3.14465 9.4345 3.14461 -8.94938
94 1 6.28941 9.43492 3.14426 -8.94977
95 1 9.43418 9.43427 3.14301 -8.95025
96 1 12.5807 9.43348 3.13953 -8.95669
97 1 15.7251 9.43423 3.14388 -8.94875
98 1 18.8693 9.4345 3.14471 -8.94951
99 1 22.0139 1.37214e-15 6.28969 -8.94964
100 1 1.5724 1.5724 7.8621 -8.94965
101 1 3.14481 4.20581e-16 6.28967 -8.94962
102 1 4.71711 1.5722 7.86206 -8.94957
103 1 6.28959 6.48774e-16 6.28957 -8.95006
104 1 7.86204 1.57169 7.862 -8.95087
105 1 9.43458 1.52745e-15 6.28959 -8.94979
106 1 11.0071 1.57208 7.86202 -8.94963
107 1 12.5794 1.52235e-15 6.28962 -8.94992
108 1 14.1519 1.5723 7.86212 -8.94966
109 1 15.7242 2.18284e-15 6.28969 -8.94964
110 1 17.2967 1.57239 7.8621 -8.94961
111 1 18.8691 1.89419e-15 6.28968 -8.94963
112 1 20.4415 1.57242 7.86211 -8.94964
113 1 -2.20118e-05 3.14482 6.28968 -8.94963
114 1 1.57219 4.71709 7.86207 -8.94954
115 1 3.14467 3.14464 6.2896 -8.94971
116 1 4.71624 4.71595 7.86169 -8.94924
117 1 6.28913 3.14348 6.28908 -8.95059
118 1 7.86086 4.71182 7.86097 -8.95665
119 1 9.43478 3.1439 6.2893 -8.94966
120 1 11.0072 4.71577 7.86184 -8.94928
121 1 12.5796 3.14396 6.2895 -8.95092
122 1 14.1521 4.71658 7.86239 -8.9499
123 1 15.7243 3.14469 6.28971 -8.94969
124 1 17.2968 4.71706 7.86207 -8.94937
125 1 18.8691 3.14482 6.28968 -8.94961
126 1 20.4415 4.71722 7.8621 -8.9496
127 1 22.0136 6.28956 6.28956 -8.9498
128 1 1.57098 7.86167 7.86166 -8.95084
129 1 3.14299 6.2886 6.28859 -8.94918
130 1 4.70868 7.85784 7.85805 -8.95094
131 1 6.28229 6.28226 6.28214 -8.93259
132 1 7.82867 7.83205 7.8331 -8.86085
133 1 9.43526 6.28552 6.28767 -8.95097
134 1 11.0153 7.85922 7.84922 -8.91819
135 1 12.5819 6.28406 6.28728 -8.95458
136 1 14.1559 7.85931 7.86212 -8.94711
137 1 15.7251 6.28889 6.28951 -8.94968
138 1 17.2976 7.86166 7.86227 -8.95003
139 1 18.8692 6.28956 6.28966 -8.94965
140 1 20.4415 7.86199 7.86206 -8.9499
141 1 22.0138 9.43452 6.28956 -8.94974
142 1 3.14388 9.43472 6.28899 -8.94934
143 1 6.28714 9.43671 6.28754 -8.95445
144 1 9.4238 9.41973 6.28378 -8.91414
145 1 12.6108 9.40741 6.25995 -8.8727
146 1 15.7301 9.43303 6.28793 -8.95571
147 1 18.8699 9.43442 6.28955 -8.95077
148 1 -3.86464e-06 1.60737e-15 9.43453 -8.94964
149 1 3.1448 1.30051e-15 9.43453 -8.94963
150 1 6.28955 1.97001e-15 9.43453 -8.94992
151 1 9.4346 1.68217e-15 9.43452 -8.94988
152 1 12.5794 1.6133e-15 9.43452 -8.9496
153 1 15.7243 2.81885e-15 9.43453 -8.94968
154 1 18.8691 2.64207e-15 9.43453 -8.94964
155 1 22.0139 3.14482 9.43453 -8.94964
156 1 3.14466 3.14464 9.43452 -8.94964
177 1 4.71711 1.5722 11.007 -8.94954
184 1 4.71618 4.716 11.0073 -8.94861
3 1 3.14484 -1.22945e-15 -1.97551e-06 -8.94966
11 1 15.7242 1.07129e-15 -1.69917e-06 -8.94963
41 1 18.8691 6.28968 -1.33437e-05 -8.94967
19 1 6.28969 3.14483 -1.54478e-05 -8.94962
25 1 15.7242 3.14483 -1.28876e-05 -8.9497
176 1 1.5724 1.5724 11.007 -8.94965
47 1 12.5794 9.43443 22.0132 -8.9509
178 1 7.86204 1.57168 11.007 -8.95082
179 1 11.0071 1.57204 11.007 -8.94963
180 1 14.1519 1.57228 11.0069 -8.94965
343 1 18.8691 9.43453 18.8691 -8.94966
182 1 20.4415 1.57242 11.007 -8.94964
342 1 15.7244 9.43447 18.8693 -8.94944
46 1 9.4344 9.43445 22.0135 -8.94973
185 1 7.86082 4.71193 11.0081 -8.95609
186 1 11.0072 4.71563 11.0071 -8.94892
187 1 14.1523 4.71643 11.0065 -8.94947
341 1 12.5794 9.43442 18.87 -8.95144
340 1 9.43438 9.43445 18.8694 -8.94951
190 1 1.57111 7.86178 11.0071 -8.95069
191 1 4.70942 7.85921 11.0087 -8.95456
192 1 7.8265 7.83346 11.0372 -8.91828
193 1 11.0199 7.85904 11.0222 -8.97679
194 1 14.1562 7.85929 11.0043 -8.94931
195 1 17.2978 7.86148 11.0066 -8.94941
196 1 20.4415 7.86198 11.0069 -8.94986
197 1 22.0139 1.44021e-15 12.5794 -8.94964
198 1 1.5724 1.5724 14.1518 -8.94967
199 1 3.1448 5.65115e-16 12.5794 -8.9496
200 1 4.71711 1.57217 14.152 -8.94977
201 1 6.28959 1.14149e-15 12.5795 -8.95013
202 1 7.86213 1.5723 14.1519 -8.94949
203 1 9.43457 1.87978e-15 12.5795 -8.94978
204 1 11.007 1.57224 14.1519 -8.94954
205 1 12.5794 2.22762e-15 12.5794 -8.95007
206 1 14.1519 1.57217 14.1519 -8.95003
207 1 15.7242 2.29115e-15 12.5794 -8.94963
208 1 17.2967 1.5724 14.1518 -8.94965
209 1 18.8691 1.96523e-15 12.5794 -8.94963
210 1 20.4415 1.57242 14.1518 -8.94963
211 1 22.0139 3.14482 12.5794 -8.94962
212 1 1.57214 4.71707 14.152 -8.94967
213 1 3.14467 3.14464 12.5794 -8.94962
214 1 4.7158 4.71557 14.1533 -8.94652
215 1 6.28915 3.14337 12.58 -8.95098
216 1 7.86223 4.71668 14.1524 -8.94917
217 1 9.43477 3.14395 12.5798 -8.94955
218 1 11.0069 4.71632 14.1526 -8.94791
219 1 12.5796 3.14364 12.5796 -8.95173
220 1 14.1528 4.7151 14.1528 -8.95061
221 1 15.7243 3.14467 12.5793 -8.9496
222 1 17.2968 4.71712 14.1518 -8.94995
223 1 18.8691 3.14481 12.5794 -8.94962
224 1 20.4415 4.71723 14.1518 -8.94965
225 1 22.0137 6.28957 12.5794 -8.94981
226 1 1.5718 7.86179 14.1522 -8.94945
227 1 3.14324 6.28877 12.5801 -8.9503
228 1 4.7147 7.86005 14.1545 -8.94534
229 1 6.282 6.28109 12.5872 -8.93539
230 1 7.86118 7.86138 14.1561 -8.95795
231 1 9.43527 6.28631 12.5809 -8.94834
232 1 11.0038 7.86116 14.1549 -8.9509
233 1 12.5825 6.28104 12.5825 -8.95853
234 1 14.1631 7.85059 14.1631 -8.92066
235 1 15.7252 6.28887 12.5792 -8.95014
236 1 17.2986 7.86128 14.1526 -8.95121
237 1 18.8693 6.28954 12.5794 -8.94953
238 1 20.4416 7.86201 14.1519 -8.95
239 1 22.0134 9.43439 12.5796 -8.95017
240 1 3.14129 9.43358 12.581 -8.94983
241 1 6.27526 9.42736 12.5897 -8.97594
242 1 9.42735 9.43129 12.5735 -9.05959
243 1 12.6277 9.38742 12.6261 -8.84453
244 1 15.7322 9.43302 12.581 -8.96125
245 1 18.8701 9.43444 12.5795 -8.95151
246 1 -2.66697e-06 1.91664e-15 15.7242 -8.94965
247 1 1.57239 1.5724 17.2967 -8.94954
248 1 3.14479 -1.28225e-15 15.7243 -8.94961
249 1 4.71727 1.57242 17.2966 -8.94968
250 1 6.28969 8.99515e-16 15.7242 -8.9496
251 1 7.8621 1.5724 17.2967 -8.94963
252 1 9.43452 9.37615e-16 15.7243 -8.94961
253 1 11.0069 1.57241 17.2967 -8.94964
254 1 12.5794 1.36971e-15 15.7243 -8.94958
255 1 14.1518 1.57241 17.2967 -8.94961
256 1 15.7243 4.83037e-16 15.7243 -8.94971
257 1 17.2967 1.57238 17.2967 -8.94959
258 1 18.8691 1.70928e-16 15.7242 -8.94965
259 1 20.4415 1.57242 17.2966 -8.94965
260 1 22.0139 3.14482 15.7242 -8.94963
261 1 1.57237 4.71721 17.2967 -8.94952
262 1 3.14462 3.14459 15.7244 -8.94904
263 1 4.71719 4.71717 17.2968 -8.9498
264 1 6.28971 3.14477 15.7243 -8.94973
265 1 7.8621 4.71714 17.2968 -8.94947
266 1 9.4345 3.14468 15.7244 -8.94951
267 1 11.0069 4.71712 17.2968 -8.94964
268 1 12.5794 3.14468 15.7244 -8.94936
269 1 14.1517 4.7172 17.2967 -8.95007
270 1 15.7244 3.14446 15.7244 -8.9496
271 1 17.2969 4.71698 17.2969 -8.9487
272 1 18.8691 3.14482 15.7242 -8.94972
273 1 20.4415 4.71723 17.2967 -8.94959
274 1 22.0138 6.28961 15.7243 -8.94961
275 1 1.57239 7.8621 17.2967 -8.94966
276 1 3.14441 6.2893 15.7247 -8.94885
277 1 4.71713 7.86205 17.297 -8.95013
278 1 6.28936 6.28929 15.7254 -8.95087
279 1 7.86201 7.86192 17.2974 -8.95061
280 1 9.43429 6.28907 15.7251 -8.94816
281 1 11.0065 7.86166 17.2975 -8.9492
282 1 12.5789 6.28923 15.7248 -8.95054
283 1 14.1525 7.86131 17.2985 -8.95132
284 1 15.7262 6.28759 15.7263 -8.94403
285 1 17.2968 7.86203 17.2968 -8.94962
286 1 18.8694 6.28948 15.7244 -8.94969
287 1 20.4415 7.8621 17.2967 -8.9496
288 1 22.0139 9.43451 15.7243 -8.94958
289 1 3.14455 9.43445 15.7246 -8.9494
290 1 6.28941 9.43488 15.7257 -8.95272
291 1 9.43422 9.43508 15.725 -8.94787
292 1 12.5809 9.43311 15.7319 -8.96073
293 1 15.7256 9.43408 15.7256 -8.94794
294 1 18.8694 9.43448 15.7244 -8.94942
295 1 22.0139 3.03754e-16 18.8691 -8.94961
296 1 1.57242 1.57242 20.4415 -8.94963
297 1 3.14485 -4.77285e-16 18.8691 -8.94966
298 1 4.71727 1.57242 20.4415 -8.94964
299 1 6.28969 3.66306e-16 18.8691 -8.94963
300 1 7.86211 1.57242 20.4415 -8.94964
301 1 9.43453 2.61263e-16 18.8691 -8.94964
302 1 11.007 1.57242 20.4415 -8.94964
303 1 12.5794 1.30113e-15 18.8691 -8.94964
304 1 14.1518 1.57242 20.4415 -8.94963
305 1 15.7242 1.53759e-15 18.8691 -8.94964
306 1 17.2966 1.57242 20.4415 -8.94967
307 1 18.8691 8.00143e-16 18.8691 -8.94961
308 1 20.4415 1.57242 20.4415 -8.94961
309 1 1.59569e-08 3.14484 18.8691 -8.94961
310 1 1.57241 4.71726 20.4415 -8.94964
311 1 3.14483 3.14483 18.8691 -8.94965
312 1 4.71724 4.71723 20.4415 -8.94966
313 1 6.28969 3.14483 18.8691 -8.94962
314 1 7.8621 4.71723 20.4415 -8.9496
315 1 9.43453 3.14482 18.8691 -8.94964
316 1 11.0069 4.71723 20.4415 -8.94964
317 1 12.5794 3.14482 18.8691 -8.94964
318 1 14.1518 4.71724 20.4415 -8.94961
319 1 15.7242 3.14484 18.8691 -8.94976
320 1 17.2967 4.71721 20.4415 -8.94958
321 1 18.8691 3.14481 18.8691 -8.9495
322 1 20.4415 4.71726 20.4415 -8.94966
323 1 22.0139 6.28968 18.8691 -8.94965
324 1 1.57241 7.8621 20.4415 -8.94962
325 1 3.14481 6.28966 18.8691 -8.94969
326 1 4.71724 7.86211 20.4415 -8.94971
327 1 6.28963 6.28961 18.8692 -8.94981
328 1 7.86204 7.86203 20.4415 -8.9499
329 1 9.43448 6.28955 18.8692 -8.9495
330 1 11.0069 7.86199 20.4415 -8.94976
331 1 12.5793 6.28958 18.8692 -8.94948
332 1 14.1519 7.86199 20.4415 -8.95018
333 1 15.7244 6.28948 18.8694 -8.94974
334 1 17.2967 7.8621 20.4415 -8.94959
335 1 18.8691 6.28968 18.8691 -8.94969
336 1 20.4415 7.86211 20.4415 -8.94964
337 1 22.0139 9.43453 18.8691 -8.94965
338 1 3.14479 9.43452 18.8691 -8.94958
339 1 6.28965 9.43455 18.8693 -8.94992
45 1 6.28962 9.43455 22.0138 -8.94964
5 1 6.28968 -2.89539e-16 22.0139 -8.94963
9 1 12.5794 -7.00114e-16 22.0139 -8.94964
39 1 15.7244 6.28953 22.0137 -8.94971
15 1 22.0139 3.14484 22.0139 -8.94964
17 1 3.14482 3.14482 22.0139 -8.94959
33 1 6.28959 6.28959 22.0137 -8.94989
31 1 3.14483 6.28969 22.0139 -8.94968
27 1 18.8691 3.14482 22.0139 -8.94954
29 1 -1.08956e-06 6.28969 22.0139 -8.94963
1 1 -2.59265e-06 3.2516e-16 22.0139 -8.94962
13 1 18.8691 1.82216e-15 22.0139 -8.94962
21 1 9.43453 3.14482 22.0139 -8.94964
23 1 12.5794 3.14482 22.0139 -8.94963
43 1 22.0139 9.43453 22.0139 -8.94964
49 1 18.8691 9.43453 22.0139 -8.94965
344 1 1.5724 11.007 1.57239 -8.94965
345 1 4.7171 11.007 1.57216 -8.94967
346 1 7.86191 11.007 1.57212 -8.94879
347 1 11.0067 11.007 1.5709 -8.94907
348 1 14.1524 11.007 1.57112 -8.94932
349 1 17.2968 11.007 1.57227 -8.94966
350 1 20.4415 11.007 1.5724 -8.94963
538 1 17.2967 20.4415 11.007 -8.94961
352 1 1.5724 14.1518 1.57239 -8.9496
353 1 3.14481 12.5794 -2.96704e-05 -8.94963
354 1 4.71719 14.1517 1.57228 -8.94973
688 3 10.2231 11.007 9.48072 2.27832
356 1 7.86187 14.152 1.57143 -8.95109
511 1 18.8691 18.8691 9.43453 -8.94966
358 1 11.0067 14.1522 1.57148 -8.94967
510 1 15.7244 18.8693 9.43451 -8.94955
360 1 14.1524 14.1524 1.57109 -8.95064
361 1 15.7244 12.5794 -0.000177357 -8.9495
362 1 17.2968 14.1518 1.57228 -8.94965
532 1 20.4415 17.2967 11.007 -8.94962
364 1 20.4415 14.1518 1.5724 -8.94962
509 1 12.5795 18.8694 9.43451 -8.9492
366 1 1.57241 17.2966 1.5724 -8.9497
508 1 9.43475 18.8705 9.43452 -8.94909
368 1 4.7171 17.2968 1.57214 -8.94952
507 1 6.28905 18.8705 9.43454 -8.94961
370 1 7.8621 17.2968 1.57225 -8.94946
371 1 9.43449 15.7243 -0.000180546 -8.94956
372 1 11.007 17.2968 1.57224 -8.94959
373 1 12.5794 15.7243 -0.000139992 -8.94955
374 1 14.1518 17.2967 1.57231 -8.94979
506 1 3.14466 18.8693 9.43452 -8.94964
376 1 17.2968 17.2968 1.57223 -8.94905
505 1 22.0139 18.8691 9.43453 -8.94964
378 1 20.4415 17.2967 1.5724 -8.94962
504 1 18.8693 15.7244 9.4345 -8.94947
380 1 1.5724 20.4415 1.5724 -8.94955
503 1 15.7252 15.7254 9.43433 -8.94682
382 1 4.71726 20.4415 1.57241 -8.9497
502 1 12.5784 15.7247 9.43434 -8.95072
384 1 7.8621 20.4415 1.5724 -8.94963
531 1 17.2968 17.2968 11.007 -8.94946
386 1 11.007 20.4415 1.5724 -8.94964
687 2 9.48202 11.007 10.946 0.495281
388 1 14.1518 20.4415 1.5724 -8.94962
501 1 9.43127 15.7267 9.43505 -8.99868
390 1 17.2967 20.4415 1.5724 -8.9496
500 1 6.28424 15.7308 9.4345 -8.94779
392 1 20.4415 20.4415 1.57242 -8.94963
393 1 1.57219 11.007 4.71705 -8.94958
394 1 4.71629 11.007 4.71597 -8.94746
395 1 7.86307 11.007 4.71781 -8.94634
396 1 11.0098 11.007 4.71448 -8.99456
397 1 14.1569 11.007 4.71198 -8.94451
398 1 17.2979 11.007 4.71661 -8.94921
399 1 20.4416 11.007 4.71717 -8.94972
400 1 -7.13566e-06 12.5794 3.1448 -8.94963
401 1 1.57227 14.1518 4.71713 -8.94965
402 1 3.14465 12.5794 3.14461 -8.94938
403 1 4.71656 14.1517 4.71645 -8.95123
404 1 6.28941 12.579 3.14426 -8.94977
405 1 7.85912 14.1548 4.7108 -8.95371
406 1 9.43418 12.5796 3.14301 -8.95025
407 1 11.0064 14.1539 4.71314 -8.95002
408 1 12.5807 12.5804 3.13953 -8.95669
409 1 14.159 14.159 4.70998 -8.93433
410 1 15.7251 12.5797 3.14388 -8.94875
411 1 17.298 14.1524 4.71663 -8.95035
412 1 18.8693 12.5794 3.14471 -8.94951
413 1 20.4416 14.1518 4.71719 -8.94983
414 1 22.0139 15.7242 3.14481 -8.94968
415 1 1.57211 17.2968 4.71706 -8.94942
416 1 3.14471 15.7242 3.14468 -8.95
417 1 4.71593 17.298 4.71588 -8.9462
418 1 6.28885 15.725 3.14321 -8.94985
419 1 7.86212 17.2974 4.71665 -8.94979
420 1 9.43443 15.725 3.14387 -8.94846
421 1 11.0071 17.2976 4.71651 -8.94856
422 1 12.5794 15.7248 3.14408 -8.94956
423 1 14.1525 17.2981 4.71656 -8.95014
424 1 15.7256 15.7256 3.14348 -8.94637
425 1 17.2968 17.2968 4.71721 -8.94976
426 1 18.8693 15.7244 3.1447 -8.94964
427 1 20.4415 17.2967 4.71724 -8.94964
428 1 22.0139 18.8691 3.14481 -8.94958
429 1 1.5724 20.4415 4.71725 -8.94967
430 1 3.14466 18.8692 3.14465 -8.94905
431 1 4.71712 20.4417 4.71711 -8.94968
432 1 6.28968 18.8692 3.14474 -8.94984
433 1 7.86213 20.4416 4.71717 -8.94957
434 1 9.43452 18.8692 3.14469 -8.94959
435 1 11.007 20.4417 4.71713 -8.94958
436 1 12.5794 18.8692 3.14471 -8.94945
437 1 14.1519 20.4417 4.71718 -8.94988
438 1 15.7244 18.8693 3.14469 -8.94959
439 1 17.2967 20.4415 4.71727 -8.94965
440 1 18.8691 18.8691 3.14483 -8.94967
441 1 20.4415 20.4415 4.71726 -8.94964
442 1 1.57157 11.007 7.86163 -8.94857
443 1 4.71529 11.007 7.86017 -8.93977
444 1 7.87433 11.007 7.8701 -8.97677
445 1 11.0819 11.007 7.66189 -8.21725
446 1 14.1622 11.007 7.85706 -8.96772
447 1 17.2989 11.007 7.86224 -8.95142
448 1 20.4417 11.007 7.86208 -8.94997
449 1 22.0138 12.5794 6.28956 -8.94974
450 1 1.57098 14.1522 7.86166 -8.95084
451 1 3.14388 12.5792 6.28899 -8.94934
452 1 4.70868 14.1561 7.85805 -8.95094
453 1 6.28714 12.5772 6.28754 -8.95445
454 1 7.82867 14.1818 7.8331 -8.86085
455 1 9.4238 12.5942 6.28378 -8.91414
456 1 11.0153 14.1547 7.84922 -8.91819
457 1 12.6108 12.6065 6.25995 -8.8727
458 1 14.1559 14.1546 7.86212 -8.94711
459 1 15.7301 12.5809 6.28793 -8.95571
460 1 17.2976 14.1522 7.86227 -8.95003
461 1 18.8699 12.5795 6.28955 -8.95077
462 1 20.4415 14.1519 7.86206 -8.9499
463 1 22.0136 15.7243 6.28956 -8.9498
464 1 1.57219 17.2968 7.86207 -8.94954
465 1 3.14299 15.7253 6.28859 -8.94918
466 1 4.71624 17.298 7.86169 -8.94924
467 1 6.28229 15.7316 6.28214 -8.93259
468 1 7.86086 17.3021 7.86097 -8.95665
469 1 9.43526 15.7284 6.28767 -8.95097
470 1 11.0072 17.2981 7.86184 -8.94928
471 1 12.5819 15.7298 6.28728 -8.95458
472 1 14.1521 17.2973 7.86239 -8.9499
473 1 15.7251 15.725 6.28951 -8.94968
474 1 17.2968 17.2968 7.86207 -8.94937
475 1 18.8692 15.7243 6.28966 -8.94965
476 1 20.4415 17.2967 7.8621 -8.9496
477 1 -2.20118e-05 18.8691 6.28968 -8.94963
478 1 1.5724 20.4415 7.8621 -8.94965
479 1 3.14467 18.8693 6.2896 -8.94971
480 1 4.71711 20.4417 7.86206 -8.94957
481 1 6.28913 18.8704 6.28908 -8.95059
482 1 7.86204 20.4422 7.862 -8.95087
483 1 9.43478 18.87 6.2893 -8.94966
484 1 11.0071 20.4418 7.86202 -8.94963
485 1 12.5796 18.8699 6.2895 -8.95092
486 1 14.1519 20.4416 7.86212 -8.94966
487 1 15.7243 18.8692 6.28971 -8.94969
488 1 17.2967 20.4415 7.8621 -8.94961
489 1 18.8691 18.8691 6.28968 -8.94961
490 1 20.4415 20.4415 7.86211 -8.94964
491 1 22.0132 12.5795 9.4344 -8.95037
492 1 3.13967 12.5802 9.43334 -8.95258
493 1 6.26535 12.5939 9.42455 -8.9991
494 1 9.34589 12.7918 9.43891 -8.18303
495 1 12.5763 12.5831 9.42386 -8.92924
496 1 15.7252 12.5797 9.4348 -8.9473
497 1 18.8695 12.5796 9.43452 -8.94921
498 1 22.0137 15.7244 9.43452 -8.94969
499 1 3.14332 15.7252 9.43448 -8.94909
526 1 1.57218 17.2968 11.007 -8.94952
527 1 4.71618 17.2979 11.0073 -8.94861
534 1 4.71711 20.4417 11.007 -8.94954
389 1 15.7242 18.8691 -1.28876e-05 -8.9497
383 1 6.28969 18.8691 -1.54478e-05 -8.94962
377 1 18.8691 15.7242 -1.33437e-05 -8.94967
512 1 1.56958 11.007 11.0072 -8.95279
513 1 4.70033 11.007 11.0077 -8.97045
514 1 7.75568 11.007 10.9982 -9.13453
515 1 11.2216 11.007 11.2186 -8.31384
516 1 14.152 11.007 11.0132 -9.00057
517 1 17.2982 11.007 11.0065 -8.94796
518 1 20.4415 11.007 11.0069 -8.9502
519 1 1.57111 14.1521 11.0071 -8.95069
520 1 4.70942 14.1547 11.0087 -8.95456
521 1 7.8265 14.1804 11.0372 -8.91828
522 1 11.0199 14.1549 11.0222 -8.97679
523 1 14.1562 14.1546 11.0043 -8.94931
524 1 17.2978 14.1524 11.0066 -8.94941
525 1 20.4415 14.1519 11.0069 -8.94986
686 1 20.4415 20.4415 20.4415 -8.94961
391 1 18.8691 18.8691 22.0139 -8.94954
528 1 7.86082 17.302 11.0081 -8.95609
529 1 11.0072 17.2983 11.0071 -8.94892
530 1 14.1523 17.2975 11.0065 -8.94947
685 1 18.8691 18.8691 18.8691 -8.9495
684 1 17.2966 20.4415 20.4415 -8.94967
533 1 1.5724 20.4415 11.007 -8.94965
381 1 3.14482 18.8691 22.0139 -8.94959
535 1 7.86204 20.4422 11.007 -8.95082
536 1 11.0071 20.4419 11.007 -8.94963
537 1 14.1519 20.4416 11.0069 -8.94965
683 1 15.7242 18.8691 18.8691 -8.94976
539 1 20.4415 20.4415 11.007 -8.94964
540 1 1.57184 11.007 14.1522 -8.94931
541 1 4.71502 11.007 14.1538 -8.94572
542 1 7.86205 11.007 14.148 -9.00589
543 1 11.013 11.007 14.1525 -9.05811
544 1 14.1595 11.007 14.1596 -8.94213
545 1 17.2985 11.007 14.1527 -8.94904
546 1 20.4417 11.007 14.1519 -8.9498
547 1 22.0134 12.5795 12.5796 -8.95017
548 1 1.5718 14.1521 14.1522 -8.94945
549 1 3.14129 12.5803 12.581 -8.94983
550 1 4.7147 14.1538 14.1545 -8.94534
551 1 6.27526 12.5865 12.5897 -8.97594
552 1 7.86118 14.1525 14.1561 -8.95795
553 1 9.42735 12.5826 12.5735 -9.05959
554 1 11.0038 14.1527 14.1549 -8.9509
555 1 12.6277 12.6265 12.6261 -8.84453
556 1 14.1631 14.1633 14.1631 -8.92066
557 1 15.7322 12.5809 12.581 -8.96125
558 1 17.2986 14.1526 14.1526 -8.95121
559 1 18.8701 12.5795 12.5795 -8.95151
560 1 20.4416 14.1519 14.1519 -8.95
561 1 22.0137 15.7243 12.5794 -8.94981
562 1 1.57214 17.2968 14.152 -8.94967
563 1 3.14324 15.7251 12.5801 -8.9503
564 1 4.7158 17.2983 14.1533 -8.94652
565 1 6.282 15.7328 12.5872 -8.93539
566 1 7.86223 17.2972 14.1524 -8.94917
567 1 9.43527 15.7276 12.5809 -8.94834
568 1 11.0069 17.2976 14.1526 -8.94791
569 1 12.5825 15.7329 12.5825 -8.95853
570 1 14.1528 17.2988 14.1528 -8.95061
571 1 15.7252 15.725 12.5792 -8.95014
572 1 17.2968 17.2968 14.1518 -8.94995
573 1 18.8693 15.7244 12.5794 -8.94953
574 1 20.4415 17.2967 14.1518 -8.94965
575 1 22.0139 18.8691 12.5794 -8.94962
576 1 1.5724 20.4415 14.1518 -8.94967
577 1 3.14467 18.8693 12.5794 -8.94962
578 1 4.71711 20.4417 14.152 -8.94977
579 1 6.28915 18.8705 12.58 -8.95098
580 1 7.86213 20.4416 14.1519 -8.94949
581 1 9.43477 18.87 12.5798 -8.94955
582 1 11.007 20.4417 14.1519 -8.94954
583 1 12.5796 18.8703 12.5796 -8.95173
584 1 14.1519 20.4417 14.1519 -8.95003
585 1 15.7243 18.8692 12.5793 -8.9496
586 1 17.2967 20.4415 14.1518 -8.94965
587 1 18.8691 18.8691 12.5794 -8.94962
588 1 20.4415 20.4415 14.1518 -8.94963
589 1 1.57237 11.007 17.2967 -8.94968
590 1 4.71698 11.007 17.2971 -8.9495
591 1 7.86197 11.007 17.2967 -8.94771
592 1 11.0066 11.007 17.2982 -8.94796
593 1 14.1527 11.007 17.2985 -8.94925
594 1 17.2969 11.007 17.2969 -8.94965
595 1 20.4415 11.007 17.2967 -8.94962
596 1 22.0139 12.5794 15.7243 -8.94958
597 1 1.57239 14.1518 17.2967 -8.94966
598 1 3.14455 12.5795 15.7246 -8.9494
599 1 4.71713 14.1518 17.297 -8.95013
600 1 6.28941 12.579 15.7257 -8.95272
601 1 7.86201 14.152 17.2974 -8.95061
602 1 9.43422 12.5788 15.725 -8.94787
603 1 11.0065 14.1522 17.2975 -8.9492
604 1 12.5809 12.5808 15.7319 -8.96073
605 1 14.1525 14.1526 17.2985 -8.95132
606 1 15.7256 12.5798 15.7256 -8.94794
607 1 17.2968 14.1519 17.2968 -8.94962
608 1 18.8694 12.5794 15.7244 -8.94942
609 1 20.4415 14.1518 17.2967 -8.9496
610 1 22.0138 15.7243 15.7243 -8.94961
611 1 1.57237 17.2967 17.2967 -8.94952
612 1 3.14441 15.7246 15.7247 -8.94885
613 1 4.71719 17.2967 17.2968 -8.9498
614 1 6.28936 15.7246 15.7254 -8.95087
615 1 7.8621 17.2968 17.2968 -8.94947
616 1 9.43429 15.7248 15.7251 -8.94816
617 1 11.0069 17.2968 17.2968 -8.94964
618 1 12.5789 15.7247 15.7248 -8.95054
619 1 14.1517 17.2967 17.2967 -8.95007
620 1 15.7262 15.7263 15.7263 -8.94403
621 1 17.2969 17.2969 17.2969 -8.9487
622 1 18.8694 15.7244 15.7244 -8.94969
623 1 20.4415 17.2967 17.2967 -8.94959
624 1 22.0139 18.8691 15.7242 -8.94963
625 1 1.57239 20.4415 17.2967 -8.94954
626 1 3.14462 18.8693 15.7244 -8.94904
627 1 4.71727 20.4415 17.2966 -8.94968
628 1 6.28971 18.8691 15.7243 -8.94973
629 1 7.8621 20.4415 17.2967 -8.94963
630 1 9.4345 18.8692 15.7244 -8.94951
631 1 11.0069 20.4415 17.2967 -8.94964
632 1 12.5794 18.8692 15.7244 -8.94936
633 1 14.1518 20.4415 17.2967 -8.94961
634 1 15.7244 18.8694 15.7244 -8.9496
635 1 17.2967 20.4415 17.2967 -8.94959
636 1 18.8691 18.8691 15.7242 -8.94972
637 1 20.4415 20.4415 17.2966 -8.94965
638 1 1.57241 11.007 20.4415 -8.94963
639 1 4.71723 11.007 20.4415 -8.94972
640 1 7.86205 11.007 20.4415 -8.94947
641 1 11.0069 11.007 20.4415 -8.94985
642 1 14.1519 11.007 20.4415 -8.94993
643 1 17.2967 11.007 20.4415 -8.94961
644 1 20.4415 11.007 20.4415 -8.94964
645 1 22.0139 12.5794 18.8691 -8.94965
646 1 1.57241 14.1518 20.4415 -8.94962
647 1 3.14479 12.5794 18.8691 -8.94958
648 1 4.71724 14.1518 20.4415 -8.94971
649 1 6.28965 12.5794 18.8693 -8.94992
650 1 7.86204 14.1519 20.4415 -8.9499
651 1 9.43438 12.5795 18.8694 -8.94951
652 1 11.0069 14.1519 20.4415 -8.94976
653 1 12.5794 12.5795 18.87 -8.95144
654 1 14.1519 14.1519 20.4415 -8.95018
655 1 15.7244 12.5794 18.8693 -8.94944
656 1 17.2967 14.1518 20.4415 -8.94959
657 1 18.8691 12.5794 18.8691 -8.94966
658 1 20.4415 14.1518 20.4415 -8.94964
659 1 22.0139 15.7242 18.8691 -8.94965
660 1 1.57241 17.2966 20.4415 -8.94964
661 1 3.14481 15.7242 18.8691 -8.94969
662 1 4.71724 17.2967 20.4415 -8.94966
663 1 6.28963 15.7243 18.8692 -8.94981
664 1 7.8621 17.2967 20.4415 -8.9496
665 1 9.43448 15.7244 18.8692 -8.9495
666 1 11.0069 17.2967 20.4415 -8.94964
667 1 12.5793 15.7243 18.8692 -8.94948
668 1 14.1518 17.2967 20.4415 -8.94961
669 1 15.7244 15.7244 18.8694 -8.94974
670 1 17.2967 17.2967 20.4415 -8.94958
671 1 18.8691 15.7242 18.8691 -8.94969
672 1 20.4415 17.2966 20.4415 -8.94966
673 1 1.59569e-08 18.8691 18.8691 -8.94961
674 1 1.57242 20.4415 20.4415 -8.94963
675 1 3.14483 18.8691 18.8691 -8.94965
676 1 4.71727 20.4415 20.4415 -8.94964
677 1 6.28969 18.8691 18.8691 -8.94962
678 1 7.86211 20.4415 20.4415 -8.94964
679 1 9.43453 18.8691 18.8691 -8.94964
680 1 11.007 20.4415 20.4415 -8.94964
681 1 12.5794 18.8691 18.8691 -8.94964
682 1 14.1518 20.4415 20.4415 -8.94963
355 1 6.28962 12.5794 22.0138 -8.94964
357 1 9.4344 12.5795 22.0135 -8.94973
359 1 12.5794 12.5795 22.0132 -8.9509
365 1 -1.08956e-06 15.7242 22.0139 -8.94963
367 1 3.14483 15.7242 22.0139 -8.94968
369 1 6.28959 15.7243 22.0137 -8.94989
375 1 15.7244 15.7244 22.0137 -8.94971
379 1 22.0139 18.8691 22.0139 -8.94964
351 1 22.0139 12.5794 22.0139 -8.94964
363 1 18.8691 12.5794 22.0139 -8.94965
385 1 9.43453 18.8691 22.0139 -8.94964
387 1 12.5794 18.8691 22.0139 -8.94963
