ITEM: TIMESTEP
50
ITEM: NUMBER OF ATOMS
688
ITEM: BOX BOUNDS pp pp pp
0.0000000000000000e+00 2.2013900999999997e+01
0.0000000000000000e+00 2.2013900999999997e+01
0.0000000000000000e+00 2.2013900999999997e+01
ITEM: ATOMS id type x y z c_pot
189 1 20.4415 4.71726 11.007 -8.94963
2 1 1.57242 1.57242 1.57242 -8.94963
175 1 18.8691 9.43451 9.43452 -8.94971
4 1 4.71726 1.57242 1.57242 -8.94964
174 1 15.725 9.4341 9.43444 -8.94862
6 1 7.86211 1.57242 1.57242 -8.94963
7 1 9.43453 2.81239e-16 3.99542e-09 -8.94963
8 1 11.007 1.57242 1.57242 -8.94963
173 1 12.5831 9.42969 9.4313 -8.94582
10 1 14.1518 1.57242 1.57242 -8.94963
172 1 9.35835 9.26408 9.43171 -8.1402
12 1 17.2966 1.57242 1.57242 -8.94963
188 1 17.2966 4.71727 11.007 -8.94966
14 1 20.4415 1.57242 1.57242 -8.94963
171 1 6.27947 9.42991 9.431 -9.00356
16 1 1.57242 4.71726 1.57242 -8.94964
170 1 3.14405 9.4344 9.43438 -8.95136
18 1 4.71726 4.71726 1.57242 -8.94962
169 1 22.0139 9.43452 9.43452 -8.9498
20 1 7.86211 4.71726 1.57242 -8.94964
183 1 1.57242 4.71726 11.007 -8.94964
22 1 11.007 4.71726 1.57242 -8.94965
181 1 17.2966 1.57242 11.007 -8.94963
24 1 14.1518 4.71727 1.57243 -8.94968
168 1 18.8691 6.28968 9.43453 -8.94962
26 1 17.2966 4.71726 1.57242 -8.9496
167 1 15.7242 6.28963 9.43452 -8.94932
28 1 20.4415 4.71726 1.57242 -8.94963
166 1 12.5792 6.2894 9.43454 -8.95198
30 1 1.57242 7.86211 1.57242 -8.94963
165 1 9.43405 6.28214 9.43455 -8.98208
32 1 4.71726 7.86211 1.57242 -8.94965
164 1 6.28915 6.28889 9.43455 -8.95142
34 1 7.86208 7.86208 1.57235 -8.94974
35 1 9.43453 6.28969 -7.8005e-07 -8.94963
36 1 11.0069 7.86209 1.57239 -8.9496
37 1 12.5794 6.28969 1.88509e-06 -8.94963
38 1 14.1518 7.86206 1.57233 -8.94968
163 1 3.1448 6.28966 9.43453 -8.94962
40 1 17.2966 7.86211 1.57242 -8.94968
162 1 22.0139 6.28968 9.43453 -8.94963
42 1 20.4415 7.86211 1.57242 -8.94963
158 1 9.43455 3.14422 9.43453 -8.95158
44 1 3.14484 9.43453 7.74017e-08 -8.94963
161 1 18.8691 3.14484 9.43453 -8.94964
160 1 15.7242 3.14484 9.43453 -8.94961
159 1 12.5794 3.14482 9.43453 -8.94966
48 1 15.7242 9.43453 8.46979e-07 -8.94963
157 1 6.28966 3.14478 9.43453 -8.94961
50 1 22.0139 7.15088e-16 3.14484 -8.94963
51 1 1.57242 1.57242 4.71726 -8.94964
52 1 3.14484 -7.06323e-18 3.14484 -8.94963
53 1 4.71726 1.57242 4.71726 -8.94962
54 1 6.28969 5.44906e-16 3.14484 -8.94964
55 1 7.86211 1.57242 4.71727 -8.94964
56 1 9.43453 1.35794e-15 3.14484 -8.94963
57 1 11.0069 1.57242 4.71726 -8.94964
58 1 12.5794 -1.16938e-16 3.14484 -8.94963
59 1 14.1518 1.57242 4.71726 -8.94964
60 1 15.7242 1.01794e-15 3.14484 -8.94963
61 1 17.2966 1.57242 4.71726 -8.94963
62 1 18.8691 1.75711e-15 3.14484 -8.94963
63 1 20.4415 1.57242 4.71726 -8.94963
64 1 22.0139 3.14484 3.14484 -8.94963
65 1 1.57242 4.71726 4.71726 -8.94962
66 1 3.14484 3.14484 3.14484 -8.9496
67 1 4.7172 4.7172 4.7172 -8.94915
68 1 6.28969 3.14485 3.14485 -8.94968
69 1 7.86213 4.71728 4.71728 -8.95002
70 1 9.43453 3.14484 3.14484 -8.94964
71 1 11.0069 4.71724 4.71723 -8.94958
72 1 12.5794 3.14484 3.14484 -8.94963
73 1 14.1518 4.71718 4.71723 -8.94972
74 1 15.7242 3.14484 3.14484 -8.94963
75 1 17.2966 4.71726 4.71726 -8.94966
76 1 18.8691 3.14484 3.14484 -8.94964
77 1 20.4415 4.71726 4.71726 -8.94963
78 1 22.0139 6.28969 3.14484 -8.94963
79 1 1.57242 7.86211 4.71726 -8.94964
80 1 3.14484 6.28969 3.14484 -8.94967
81 1 4.71724 7.86209 4.71723 -8.94997
82 1 6.28964 6.28964 3.14475 -8.94963
83 1 7.86168 7.86169 4.71622 -8.95103
84 1 9.43454 6.28965 3.14482 -8.94955
85 1 11.0067 7.86193 4.71682 -8.95094
86 1 12.5794 6.28969 3.14486 -8.94995
87 1 14.1529 7.86093 4.7161 -8.94335
88 1 15.7243 6.28961 3.14477 -8.94911
89 1 17.2967 7.86207 4.71723 -8.94973
90 1 18.8691 6.28968 3.14484 -8.94963
91 1 20.4415 7.86211 4.71726 -8.94965
92 1 1.85453e-07 9.43453 3.14484 -8.94963
93 1 3.14484 9.43453 3.14484 -8.94964
94 1 6.28966 9.43455 3.1448 -8.94982
95 1 9.43422 9.43422 3.1443 -8.94907
96 1 12.5797 9.43415 3.14377 -8.95155
97 1 15.7242 9.43453 3.14484 -8.94984
98 1 18.8691 9.43453 3.14484 -8.94963
99 1 22.0139 1.64727e-15 6.28969 -8.94963
100 1 1.57242 1.57242 7.86211 -8.94963
101 1 3.14484 3.48429e-16 6.28969 -8.94963
102 1 4.71726 1.57242 7.86211 -8.94963
103 1 6.28968 7.04625e-17 6.28968 -8.94965
104 1 7.86209 1.57236 7.86209 -8.94982
105 1 9.43453 2.85065e-16 6.28969 -8.94963
106 1 11.007 1.57238 7.86209 -8.94965
107 1 12.5794 3.92466e-16 6.28968 -8.94965
108 1 14.1518 1.57242 7.86211 -8.94965
109 1 15.7242 9.83947e-16 6.28969 -8.94964
110 1 17.2966 1.57242 7.86211 -8.94963
111 1 18.8691 1.03489e-15 6.28969 -8.94963
112 1 20.4415 1.57242 7.86211 -8.94963
113 1 2.95204e-07 3.14484 6.28969 -8.94963
114 1 1.57242 4.71727 7.86211 -8.94964
115 1 3.14484 3.14484 6.28969 -8.94968
116 1 4.71725 4.71724 7.8621 -8.94992
117 1 6.28964 3.14475 6.28964 -8.94965
118 1 7.86173 4.71623 7.86172 -8.95131
119 1 9.43455 3.14482 6.28968 -8.94961
120 1 11.0073 4.7168 7.86179 -8.94852
121 1 12.5794 3.14477 6.28966 -8.94973
122 1 14.1518 4.71721 7.86212 -8.94983
123 1 15.7242 3.14484 6.28969 -8.94964
124 1 17.2966 4.71727 7.86211 -8.94966
125 1 18.8691 3.14484 6.28969 -8.94963
126 1 20.4415 4.71726 7.86211 -8.94963
127 1 22.0139 6.28968 6.28968 -8.94964
128 1 1.57234 7.86208 7.86208 -8.94983
129 1 3.14474 6.28962 6.28962 -8.94953
130 1 4.71594 7.86149 7.86149 -8.95011
131 1 6.28862 6.28862 6.2886 -8.94342
132 1 7.84905 7.85034 7.84999 -8.8803
133 1 9.43477 6.28929 6.28962 -8.95194
134 1 11.0107 7.86056 7.85817 -8.92936
135 1 12.5797 6.28873 6.2894 -8.95168
136 1 14.1527 7.8614 7.86191 -8.94778
137 1 15.7242 6.28965 6.28966 -8.94972
138 1 17.2967 7.86206 7.86209 -8.94963
139 1 18.8691 6.28968 6.28968 -8.94963
140 1 20.4415 7.8621 7.86211 -8.94966
141 1 22.0139 9.43453 6.28968 -8.94965
142 1 3.14478 9.43453 6.28965 -8.94968
143 1 6.28905 9.43466 6.2891 -8.95061
144 1 9.43037 9.42962 6.28652 -8.92954
145 1 12.5923 9.42207 6.27732 -8.88641
146 1 15.7252 9.43426 6.28941 -8.95194
147 1 18.8691 9.43452 6.28968 -8.94983
148 1 2.97449e-09 1.70703e-15 9.43453 -8.94963
149 1 3.14484 9.86322e-16 9.43453 -8.94963
150 1 6.28968 1.58579e-15 9.43453 -8.94964
151 1 9.43453 7.08071e-16 9.43453 -8.94994
152 1 12.5794 8.27228e-16 9.43453 -8.94964
153 1 15.7242 1.88491e-15 9.43453 -8.94963
154 1 18.8691 1.90987e-15 9.43453 -8.94963
155 1 22.0139 3.14484 9.43453 -8.94963
156 1 3.14484 3.14484 9.43453 -8.94965
177 1 4.71726 1.57242 11.0069 -8.94963
184 1 4.71725 4.71725 11.007 -8.94981
3 1 3.14484 -2.67983e-17 1.95416e-08 -8.94963
11 1 15.7242 1.50344e-15 3.12633e-08 -8.94963
41 1 18.8691 6.28969 2.21418e-07 -8.94964
19 1 6.28969 3.14484 3.04108e-07 -8.94963
25 1 15.7242 3.14484 2.26853e-07 -8.94964
176 1 1.57242 1.57242 11.007 -8.94963
47 1 12.5794 9.43451 22.0138 -8.94984
178 1 7.86209 1.57236 11.007 -8.94983
179 1 11.007 1.57238 11.007 -8.94966
180 1 14.1518 1.57242 11.0069 -8.94965
343 1 18.8691 9.43453 18.8691 -8.94963
182 1 20.4415 1.57242 11.007 -8.94963
342 1 15.7242 9.43453 18.8691 -8.94962
46 1 9.43451 9.43451 22.0139 -8.94969
185 1 7.86172 4.71619 11.0073 -8.95119
186 1 11.0073 4.71676 11.0072 -8.94847
187 1 14.1518 4.7172 11.0069 -8.94977
341 1 12.5794 9.43451 18.8691 -8.9499
340 1 9.43451 9.43451 18.8691 -8.94985
190 1 1.57236 7.86209 11.007 -8.94982
191 1 4.71617 7.86171 11.0072 -8.95176
192 1 7.84921 7.85035 11.0197 -8.94351
193 1 11.0109 7.86028 11.0118 -8.99057
194 1 14.1527 7.86144 11.0068 -8.94931
195 1 17.2967 7.86206 11.007 -8.94959
196 1 20.4415 7.8621 11.007 -8.94965
197 1 22.0139 6.3856e-16 12.5794 -8.94963
198 1 1.57242 1.57242 14.1518 -8.94964
199 1 3.14484 5.10189e-16 12.5794 -8.94963
200 1 4.71726 1.57241 14.1518 -8.94963
201 1 6.28968 9.07326e-16 12.5794 -8.94966
202 1 7.86211 1.57242 14.1518 -8.94962
203 1 9.43453 1.90199e-15 12.5794 -8.94965
204 1 11.007 1.57242 14.1518 -8.94962
205 1 12.5794 1.76337e-15 12.5794 -8.94965
206 1 14.1518 1.57241 14.1518 -8.94964
207 1 15.7242 6.52018e-16 12.5794 -8.94963
208 1 17.2966 1.57242 14.1518 -8.94963
209 1 18.8691 1.57062e-15 12.5794 -8.94963
210 1 20.4415 1.57242 14.1518 -8.94963
211 1 22.0139 3.14484 12.5794 -8.94963
212 1 1.57242 4.71726 14.1518 -8.94964
213 1 3.14484 3.14484 12.5794 -8.94967
214 1 4.71718 4.71717 14.1519 -8.94918
215 1 6.28964 3.14474 12.5794 -8.94973
216 1 7.86211 4.71732 14.1518 -8.94959
217 1 9.43454 3.14478 12.5794 -8.94979
218 1 11.007 4.71727 14.1519 -8.94917
219 1 12.5794 3.14476 12.5794 -8.94983
220 1 14.1518 4.71715 14.1518 -8.94976
221 1 15.7242 3.14484 12.5794 -8.94964
222 1 17.2966 4.71727 14.1518 -8.94968
223 1 18.8691 3.14484 12.5794 -8.94963
224 1 20.4415 4.71726 14.1518 -8.94963
225 1 22.0139 6.28968 12.5794 -8.94964
226 1 1.57239 7.86209 14.1518 -8.94962
227 1 3.14477 6.28965 12.5794 -8.94977
228 1 4.71694 7.86176 14.1521 -8.94803
229 1 6.28858 6.28837 12.5805 -8.94439
230 1 7.86218 7.86267 14.1519 -8.9523
231 1 9.43477 6.28871 12.5795 -8.95154
232 1 11.0062 7.86282 14.1514 -8.95178
233 1 12.5797 6.28839 12.5798 -8.95285
234 1 14.1533 7.8605 14.1534 -8.9403
235 1 15.7242 6.28967 12.5794 -8.94992
236 1 17.2968 7.86206 14.1518 -8.94976
237 1 18.8691 6.28968 12.5794 -8.94962
238 1 20.4415 7.86211 14.1518 -8.94965
239 1 22.0139 9.43452 12.5794 -8.94971
240 1 3.14442 9.43438 12.5796 -8.94984
241 1 6.28525 9.4311 12.5833 -8.98542
242 1 9.43129 9.42915 12.5826 -9.06607
243 1 12.5971 9.41687 12.5964 -8.9023
244 1 15.7256 9.43417 12.5797 -8.95293
245 1 18.8691 9.43452 12.5794 -8.94991
246 1 3.13066e-08 5.88938e-16 15.7242 -8.94963
247 1 1.57242 1.57242 17.2966 -8.94963
248 1 3.14484 -1.06379e-15 15.7242 -8.94963
249 1 4.71726 1.57242 17.2966 -8.94964
250 1 6.28969 1.16631e-15 15.7242 -8.94963
251 1 7.86211 1.57242 17.2966 -8.94964
252 1 9.43453 1.4678e-15 15.7242 -8.94963
253 1 11.007 1.57242 17.2966 -8.94964
254 1 12.5794 1.42838e-15 15.7242 -8.94963
255 1 14.1518 1.57242 17.2966 -8.94963
256 1 15.7242 -1.21751e-16 15.7242 -8.94963
257 1 17.2966 1.57242 17.2966 -8.94963
258 1 18.8691 -1.43961e-16 15.7242 -8.94963
259 1 20.4415 1.57242 17.2966 -8.94963
260 1 22.0139 3.14484 15.7242 -8.94963
261 1 1.57242 4.71726 17.2966 -8.94962
262 1 3.14484 3.14484 15.7242 -8.9496
263 1 4.71727 4.71727 17.2966 -8.94968
264 1 6.28969 3.14485 15.7242 -8.94965
265 1 7.86211 4.71726 17.2966 -8.94967
266 1 9.43453 3.14485 15.7242 -8.94963
267 1 11.0069 4.71726 17.2966 -8.94969
268 1 12.5794 3.14485 15.7242 -8.94961
269 1 14.1518 4.71728 17.2966 -8.94974
270 1 15.7242 3.14483 15.7242 -8.94962
271 1 17.2966 4.71726 17.2966 -8.94958
272 1 18.8691 3.14484 15.7242 -8.94964
273 1 20.4415 4.71726 17.2966 -8.94963
274 1 22.0139 6.28968 15.7242 -8.94963
275 1 1.57242 7.86211 17.2966 -8.94965
276 1 3.14483 6.28966 15.7242 -8.94949
277 1 4.71726 7.8621 17.2967 -8.94972
278 1 6.28974 6.28975 15.7242 -8.95006
279 1 7.86206 7.86205 17.2967 -8.94937
280 1 9.43453 6.28977 15.7241 -8.95001
281 1 11.0069 7.86207 17.2966 -8.94924
282 1 12.5793 6.28979 15.7241 -8.95039
283 1 14.1519 7.86205 17.2968 -8.94977
284 1 15.7243 6.28958 15.7243 -8.94888
285 1 17.2966 7.86211 17.2966 -8.94968
286 1 18.8691 6.28968 15.7242 -8.94963
287 1 20.4415 7.86211 17.2966 -8.94963
288 1 22.0139 9.43453 15.7242 -8.94963
289 1 3.14485 9.43453 15.7242 -8.94971
290 1 6.2897 9.43456 15.7244 -8.95098
291 1 9.43422 9.43425 15.7252 -8.94907
292 1 12.5797 9.43416 15.7255 -8.95295
293 1 15.7242 9.43451 15.7242 -8.94981
294 1 18.8691 9.43453 15.7242 -8.94963
295 1 22.0139 -9.60405e-16 18.8691 -8.94963
296 1 1.57242 1.57242 20.4415 -8.94963
297 1 3.14484 -3.83746e-16 18.8691 -8.94963
298 1 4.71726 1.57242 20.4415 -8.94963
299 1 6.28969 6.69248e-16 18.8691 -8.94963
300 1 7.86211 1.57242 20.4415 -8.94963
301 1 9.43453 -5.4968e-16 18.8691 -8.94963
302 1 11.007 1.57242 20.4415 -8.94963
303 1 12.5794 1.48094e-15 18.8691 -8.94963
304 1 14.1518 1.57242 20.4415 -8.94963
305 1 15.7242 4.60049e-16 18.8691 -8.94963
306 1 17.2966 1.57242 20.4415 -8.94963
307 1 18.8691 1.4839e-17 18.8691 -8.94963
308 1 20.4415 1.57242 20.4415 -8.94963
309 1 1.23704e-08 3.14484 18.8691 -8.94963
310 1 1.57242 4.71726 20.4415 -8.94963
311 1 3.14484 3.14484 18.8691 -8.94964
312 1 4.71726 4.71726 20.4415 -8.94963
313 1 6.28969 3.14484 18.8691 -8.94963
314 1 7.86211 4.71727 20.4415 -8.94964
315 1 9.43453 3.14484 18.8691 -8.94963
316 1 11.007 4.71727 20.4415 -8.94964
317 1 12.5794 3.14484 18.8691 -8.94963
318 1 14.1518 4.71727 20.4415 -8.94963
319 1 15.7242 3.14484 18.8691 -8.94964
320 1 17.2966 4.71726 20.4415 -8.94963
321 1 18.8691 3.14484 18.8691 -8.94963
322 1 20.4415 4.71726 20.4415 -8.94963
323 1 22.0139 6.28969 18.8691 -8.94963
324 1 1.57242 7.86211 20.4415 -8.94963
325 1 3.14484 6.28969 18.8691 -8.94963
326 1 4.71726 7.86211 20.4415 -8.94964
327 1 6.28968 6.28968 18.8691 -8.94961
328 1 7.8621 7.8621 20.4415 -8.94964
329 1 9.43453 6.28969 18.869 -8.94962
330 1 11.007 7.86211 20.4415 -8.94962
331 1 12.5794 6.28969 18.8691 -8.9496
332 1 14.1518 7.8621 20.4415 -8.94966
333 1 15.7242 6.28968 18.8691 -8.94962
334 1 17.2966 7.86211 20.4415 -8.94963
335 1 18.8691 6.28969 18.8691 -8.94964
336 1 20.4415 7.86211 20.4415 -8.94963
337 1 22.0139 9.43453 18.8691 -8.94963
338 1 3.14484 9.43453 18.8691 -8.94962
339 1 6.28969 9.43453 18.8691 -8.9497
45 1 6.28969 9.43453 22.0139 -8.94965
5 1 6.28969 -5.76254e-16 22.0139 -8.94963
9 1 12.5794 -2.85594e-16 22.0139 -8.94963
39 1 15.7242 6.28968 22.0139 -8.94962
15 1 22.0139 3.14484 22.0139 -8.94963
17 1 3.14484 3.14484 22.0139 -8.94963
33 1 6.28968 6.28968 22.0139 -8.94963
31 1 3.14484 6.28969 22.0139 -8.94963
27 1 18.8691 3.14484 22.0139 -8.94963
29 1 -1.10902e-08 6.28969 22.0139 -8.94963
1 1 -4.13653e-09 -6.11863e-17 22.0139 -8.94963
13 1 18.8691 1.1586e-15 22.0139 -8.94963
21 1 9.43453 3.14484 22.0139 -8.94963
23 1 12.5794 3.14484 22.0139 -8.94963
43 1 22.0139 9.43453 22.0139 -8.94963
49 1 18.8691 9.43453 22.0139 -8.94963
344 1 1.57242 11.007 1.57242 -8.94964
345 1 4.71726 11.007 1.57242 -8.94962
346 1 7.8621 11.007 1.57241 -8.9496
347 1 11.0069 11.007 1.5718 -8.95148
348 1 14.1518 11.007 1.57237 -8.94955
349 1 17.2966 11.007 1.57242 -8.94966
350 1 20.4415 11.007 1.57242 -8.94963
538 1 17.2966 20.4415 11.007 -8.94963
352 1 1.57242 14.1518 1.57242 -8.94963
353 1 3.14484 12.5794 7.74017e-08 -8.94963
354 1 4.71726 14.1518 1.57242 -8.94965
688 3 10.2218 11.007 9.44938 2.64869
356 1 7.86208 14.1518 1.57235 -8.94974
511 1 18.8691 18.8691 9.43453 -8.94964
358 1 11.0069 14.1518 1.57239 -8.9496
510 1 15.7242 18.8691 9.43453 -8.94961
360 1 14.1518 14.1518 1.57233 -8.94968
361 1 15.7242 12.5794 8.46979e-07 -8.94963
362 1 17.2966 14.1518 1.57242 -8.94968
532 1 20.4415 17.2966 11.007 -8.94963
364 1 20.4415 14.1518 1.57242 -8.94963
509 1 12.5794 18.8691 9.43453 -8.94966
366 1 1.57242 17.2966 1.57242 -8.94964
508 1 9.43455 18.8697 9.43453 -8.95158
368 1 4.71726 17.2966 1.57242 -8.94962
507 1 6.28966 18.8691 9.43453 -8.94961
370 1 7.86211 17.2966 1.57242 -8.94964
371 1 9.43453 15.7242 -7.8005e-07 -8.94963
372 1 11.007 17.2966 1.57242 -8.94965
373 1 12.5794 15.7242 1.88509e-06 -8.94963
374 1 14.1518 17.2966 1.57243 -8.94968
506 1 3.14484 18.8691 9.43453 -8.94965
376 1 17.2966 17.2966 1.57242 -8.9496
505 1 22.0139 18.8691 9.43453 -8.94963
378 1 20.4415 17.2966 1.57242 -8.94963
504 1 18.8691 15.7242 9.43453 -8.94962
380 1 1.57242 20.4415 1.57242 -8.94963
503 1 15.7242 15.7243 9.43452 -8.94932
382 1 4.71726 20.4415 1.57242 -8.94964
502 1 12.5792 15.7245 9.43454 -8.95198
384 1 7.86211 20.4415 1.57242 -8.94963
531 1 17.2966 17.2966 11.007 -8.94966
386 1 11.007 20.4415 1.57242 -8.94963
687 2 9.44062 11.007 10.9938 0.811957
388 1 14.1518 20.4415 1.57242 -8.94963
501 1 9.43405 15.7318 9.43455 -8.98208
390 1 17.2966 20.4415 1.57242 -8.94963
500 1 6.28915 15.725 9.43455 -8.95142
392 1 20.4415 20.4415 1.57242 -8.94963
393 1 1.57242 11.007 4.71726 -8.94963
394 1 4.71723 11.007 4.7172 -8.94931
395 1 7.86222 11.007 4.71712 -8.95047
396 1 11.0074 11.007 4.70989 -8.98072
397 1 14.1523 11.007 4.71666 -8.95008
398 1 17.2967 11.007 4.71724 -8.94956
399 1 20.4415 11.007 4.71726 -8.94964
400 1 1.85453e-07 12.5794 3.14484 -8.94963
401 1 1.57242 14.1518 4.71726 -8.94964
402 1 3.14484 12.5794 3.14484 -8.94964
403 1 4.71724 14.1518 4.71723 -8.94997
404 1 6.28966 12.5794 3.1448 -8.94982
405 1 7.86168 14.1522 4.71622 -8.95103
406 1 9.43422 12.5797 3.1443 -8.94907
407 1 11.0067 14.152 4.71682 -8.95094
408 1 12.5797 12.5797 3.14377 -8.95155
409 1 14.1529 14.153 4.7161 -8.94335
410 1 15.7242 12.5794 3.14484 -8.94984
411 1 17.2967 14.1518 4.71723 -8.94973
412 1 18.8691 12.5794 3.14484 -8.94963
413 1 20.4415 14.1518 4.71726 -8.94965
414 1 22.0139 15.7242 3.14484 -8.94963
415 1 1.57242 17.2966 4.71726 -8.94962
416 1 3.14484 15.7242 3.14484 -8.94967
417 1 4.7172 17.2967 4.7172 -8.94915
418 1 6.28964 15.7243 3.14475 -8.94963
419 1 7.86213 17.2966 4.71728 -8.95002
420 1 9.43454 15.7242 3.14482 -8.94955
421 1 11.0069 17.2967 4.71723 -8.94958
422 1 12.5794 15.7242 3.14486 -8.94995
423 1 14.1518 17.2967 4.71723 -8.94972
424 1 15.7243 15.7243 3.14477 -8.94911
425 1 17.2966 17.2966 4.71726 -8.94966
426 1 18.8691 15.7242 3.14484 -8.94963
427 1 20.4415 17.2966 4.71726 -8.94963
428 1 22.0139 18.8691 3.14484 -8.94963
429 1 1.57242 20.4415 4.71726 -8.94964
430 1 3.14484 18.8691 3.14484 -8.9496
431 1 4.71726 20.4415 4.71726 -8.94962
432 1 6.28969 18.8691 3.14485 -8.94968
433 1 7.86211 20.4415 4.71727 -8.94964
434 1 9.43453 18.8691 3.14484 -8.94964
435 1 11.0069 20.4415 4.71726 -8.94964
436 1 12.5794 18.8691 3.14484 -8.94963
437 1 14.1518 20.4415 4.71726 -8.94964
438 1 15.7242 18.8691 3.14484 -8.94963
439 1 17.2966 20.4415 4.71726 -8.94963
440 1 18.8691 18.8691 3.14484 -8.94964
441 1 20.4415 20.4415 4.71726 -8.94963
442 1 1.57236 11.007 7.86208 -8.94962
443 1 4.71664 11.007 7.86165 -8.94764
444 1 7.86202 11.007 7.86095 -8.97165
445 1 11.0782 11.007 7.69832 -8.13425
446 1 14.158 11.007 7.86098 -8.96554
447 1 17.2971 11.007 7.86211 -8.95105
448 1 20.4415 11.007 7.86211 -8.94974
449 1 22.0139 12.5794 6.28968 -8.94965
450 1 1.57234 14.1518 7.86208 -8.94983
451 1 3.14478 12.5794 6.28965 -8.94968
452 1 4.71594 14.1524 7.86149 -8.95011
453 1 6.28905 12.5792 6.2891 -8.95061
454 1 7.84905 14.1636 7.84999 -8.8803
455 1 9.43037 12.5843 6.28652 -8.92954
456 1 11.0107 14.1533 7.85817 -8.92936
457 1 12.5923 12.5918 6.27732 -8.88641
458 1 14.1527 14.1525 7.86191 -8.94778
459 1 15.7252 12.5796 6.28941 -8.95194
460 1 17.2967 14.1518 7.86209 -8.94963
461 1 18.8691 12.5794 6.28968 -8.94983
462 1 20.4415 14.1518 7.86211 -8.94966
463 1 22.0139 15.7242 6.28968 -8.94964
464 1 1.57242 17.2966 7.86211 -8.94964
465 1 3.14474 15.7243 6.28962 -8.94953
466 1 4.71725 17.2967 7.8621 -8.94992
467 1 6.28862 15.7253 6.2886 -8.94342
468 1 7.86173 17.2977 7.86172 -8.95131
469 1 9.43477 15.7246 6.28962 -8.95194
470 1 11.0073 17.2971 7.86179 -8.94852
471 1 12.5797 15.7252 6.2894 -8.95168
472 1 14.1518 17.2967 7.86212 -8.94983
473 1 15.7242 15.7242 6.28966 -8.94972
474 1 17.2966 17.2966 7.86211 -8.94966
475 1 18.8691 15.7242 6.28968 -8.94963
476 1 20.4415 17.2966 7.86211 -8.94963
477 1 2.95204e-07 18.8691 6.28969 -8.94963
478 1 1.57242 20.4415 7.86211 -8.94963
479 1 3.14484 18.8691 6.28969 -8.94968
480 1 4.71726 20.4415 7.86211 -8.94963
481 1 6.28964 18.8691 6.28964 -8.94965
482 1 7.86209 20.4415 7.86209 -8.94982
483 1 9.43455 18.8691 6.28968 -8.94961
484 1 11.007 20.4415 7.86209 -8.94965
485 1 12.5794 18.8691 6.28966 -8.94973
486 1 14.1518 20.4415 7.86211 -8.94965
487 1 15.7242 18.8691 6.28969 -8.94964
488 1 17.2966 20.4415 7.86211 -8.94963
489 1 18.8691 18.8691 6.28969 -8.94963
490 1 20.4415 20.4415 7.86211 -8.94963
491 1 22.0139 12.5794 9.43452 -8.9498
492 1 3.14405 12.5795 9.43438 -8.95136
493 1 6.27947 12.584 9.431 -9.00356
494 1 9.35835 12.7498 9.43171 -8.1402
495 1 12.5831 12.5842 9.4313 -8.94582
496 1 15.725 12.5798 9.43444 -8.94862
497 1 18.8691 12.5794 9.43452 -8.94971
498 1 22.0139 15.7242 9.43453 -8.94963
499 1 3.1448 15.7242 9.43453 -8.94962
526 1 1.57242 17.2966 11.007 -8.94964
527 1 4.71725 17.2967 11.007 -8.94981
534 1 4.71726 20.4415 11.0069 -8.94963
389 1 15.7242 18.8691 2.26853e-07 -8.94964
383 1 6.28969 18.8691 3.04108e-07 -8.94963
377 1 18.8691 15.7242 2.21418e-07 -8.94964
512 1 1.5721 11.007 11.007 -8.95088
513 1 4.7118 11.007 11.0073 -8.9652
514 1 7.79214 11.007 11.0075 -9.22562
515 1 11.1527 11.007 11.1719 -8.34319
516 1 14.1589 11.007 11.008 -8.97863
517 1 17.2972 11.007 11.0069 -8.95126
518 1 20.4415 11.007 11.007 -8.94983
519 1 1.57236 14.1518 11.007 -8.94982
520 1 4.71617 14.1522 11.0072 -8.95176
521 1 7.84921 14.1636 11.0197 -8.94351
522 1 11.0109 14.1536 11.0118 -8.99057
523 1 14.1527 14.1525 11.0068 -8.94931
524 1 17.2967 14.1518 11.007 -8.94959
525 1 20.4415 14.1518 11.007 -8.94965
686 1 20.4415 20.4415 20.4415 -8.94963
391 1 18.8691 18.8691 22.0139 -8.94963
528 1 7.86172 17.2977 11.0073 -8.95119
529 1 11.0073 17.2971 11.0072 -8.94847
530 1 14.1518 17.2967 11.0069 -8.94977
685 1 18.8691 18.8691 18.8691 -8.94963
684 1 17.2966 20.4415 20.4415 -8.94963
533 1 1.57242 20.4415 11.007 -8.94963
381 1 3.14484 18.8691 22.0139 -8.94963
535 1 7.86209 20.4415 11.007 -8.94983
536 1 11.007 20.4415 11.007 -8.94966
537 1 14.1518 20.4415 11.0069 -8.94965
683 1 15.7242 18.8691 18.8691 -8.94964
539 1 20.4415 20.4415 11.007 -8.94963
540 1 1.57241 11.007 14.1518 -8.94961
541 1 4.71714 11.007 14.152 -8.94918
542 1 7.86257 11.007 14.1512 -9.01153
543 1 11.0072 11.007 14.1586 -9.04205
544 1 14.1528 11.007 14.1528 -8.94972
545 1 17.2967 11.007 14.1518 -8.94957
546 1 20.4415 11.007 14.1518 -8.94964
547 1 22.0139 12.5794 12.5794 -8.94971
548 1 1.57239 14.1518 14.1518 -8.94962
549 1 3.14442 12.5795 12.5796 -8.94984
550 1 4.71694 14.1521 14.1521 -8.94803
551 1 6.28525 12.5828 12.5833 -8.98542
552 1 7.86218 14.1512 14.1519 -8.9523
553 1 9.43129 12.5847 12.5826 -9.06607
554 1 11.0062 14.1511 14.1514 -8.95178
555 1 12.5971 12.597 12.5964 -8.9023
556 1 14.1533 14.1534 14.1534 -8.9403
557 1 15.7256 12.5797 12.5797 -8.95293
558 1 17.2968 14.1518 14.1518 -8.94976
559 1 18.8691 12.5794 12.5794 -8.94991
560 1 20.4415 14.1518 14.1518 -8.94965
561 1 22.0139 15.7242 12.5794 -8.94964
562 1 1.57242 17.2966 14.1518 -8.94964
563 1 3.14477 15.7243 12.5794 -8.94977
564 1 4.71718 17.2967 14.1519 -8.94918
565 1 6.28858 15.7255 12.5805 -8.94439
566 1 7.86211 17.2966 14.1518 -8.94959
567 1 9.43477 15.7252 12.5795 -8.95154
568 1 11.007 17.2966 14.1519 -8.94917
569 1 12.5797 15.7255 12.5798 -8.95285
570 1 14.1518 17.2968 14.1518 -8.94976
571 1 15.7242 15.7242 12.5794 -8.94992
572 1 17.2966 17.2966 14.1518 -8.94968
573 1 18.8691 15.7242 12.5794 -8.94962
574 1 20.4415 17.2966 14.1518 -8.94963
575 1 22.0139 18.8691 12.5794 -8.94963
576 1 1.57242 20.4415 14.1518 -8.94964
577 1 3.14484 18.8691 12.5794 -8.94967
578 1 4.71726 20.4415 14.1518 -8.94963
579 1 6.28964 18.8692 12.5794 -8.94973
580 1 7.86211 20.4415 14.1518 -8.94962
581 1 9.43454 18.8691 12.5794 -8.94979
582 1 11.007 20.4415 14.1518 -8.94962
583 1 12.5794 18.8691 12.5794 -8.94983
584 1 14.1518 20.4415 14.1518 -8.94964
585 1 15.7242 18.8691 12.5794 -8.94964
586 1 17.2966 20.4415 14.1518 -8.94963
587 1 18.8691 18.8691 12.5794 -8.94963
588 1 20.4415 20.4415 14.1518 -8.94963
589 1 1.57242 11.007 17.2966 -8.94965
590 1 4.71725 11.007 17.2967 -8.9496
591 1 7.86208 11.007 17.2967 -8.94917
592 1 11.007 11.007 17.2973 -8.95109
593 1 14.1518 11.007 17.2967 -8.94961
594 1 17.2966 11.007 17.2966 -8.94968
595 1 20.4415 11.007 17.2966 -8.94963
596 1 22.0139 12.5794 15.7242 -8.94963
597 1 1.57242 14.1518 17.2966 -8.94965
598 1 3.14485 12.5794 15.7242 -8.94971
599 1 4.71726 14.1518 17.2967 -8.94972
600 1 6.2897 12.5793 15.7244 -8.95098
601 1 7.86206 14.1518 17.2967 -8.94937
602 1 9.43422 12.5796 15.7252 -8.94907
603 1 11.0069 14.1518 17.2966 -8.94924
604 1 12.5797 12.5797 15.7255 -8.95295
605 1 14.1519 14.1518 17.2968 -8.94977
606 1 15.7242 12.5794 15.7242 -8.94981
607 1 17.2966 14.1518 17.2966 -8.94968
608 1 18.8691 12.5794 15.7242 -8.94963
609 1 20.4415 14.1518 17.2966 -8.94963
610 1 22.0139 15.7242 15.7242 -8.94963
611 1 1.57242 17.2966 17.2966 -8.94962
612 1 3.14483 15.7242 15.7242 -8.94949
613 1 4.71727 17.2966 17.2966 -8.94968
614 1 6.28974 15.7242 15.7242 -8.95006
615 1 7.86211 17.2966 17.2966 -8.94967
616 1 9.43453 15.7241 15.7241 -8.95001
617 1 11.0069 17.2966 17.2966 -8.94969
618 1 12.5793 15.7241 15.7241 -8.95039
619 1 14.1518 17.2966 17.2966 -8.94974
620 1 15.7243 15.7243 15.7243 -8.94888
621 1 17.2966 17.2966 17.2966 -8.94958
622 1 18.8691 15.7242 15.7242 -8.94963
623 1 20.4415 17.2966 17.2966 -8.94963
624 1 22.0139 18.8691 15.7242 -8.94963
625 1 1.57242 20.4415 17.2966 -8.94963
626 1 3.14484 18.8691 15.7242 -8.9496
627 1 4.71726 20.4415 17.2966 -8.94964
628 1 6.28969 18.869 15.7242 -8.94965
629 1 7.86211 20.4415 17.2966 -8.94964
630 1 9.43453 18.869 15.7242 -8.94963
631 1 11.007 20.4415 17.2966 -8.94964
632 1 12.5794 18.8691 15.7242 -8.94961
633 1 14.1518 20.4415 17.2966 -8.94963
634 1 15.7242 18.8691 15.7242 -8.94962
635 1 17.2966 20.4415 17.2966 -8.94963
636 1 18.8691 18.8691 15.7242 -8.94964
637 1 20.4415 20.4415 17.2966 -8.94963
638 1 1.57242 11.007 20.4415 -8.94963
639 1 4.71726 11.007 20.4415 -8.94964
640 1 7.86211 11.007 20.4415 -8.94962
641 1 11.007 11.007 20.4415 -8.94992
642 1 14.1518 11.007 20.4415 -8.94965
643 1 17.2966 11.007 20.4415 -8.94963
644 1 20.4415 11.007 20.4415 -8.94963
645 1 22.0139 12.5794 18.8691 -8.94963
646 1 1.57242 14.1518 20.4415 -8.94963
647 1 3.14484 12.5794 18.8691 -8.94962
648 1 4.71726 14.1518 20.4415 -8.94964
649 1 6.28969 12.5794 18.8691 -8.9497
650 1 7.8621 14.1518 20.4415 -8.94964
651 1 9.43451 12.5794 18.8691 -8.94985
652 1 11.007 14.1518 20.4415 -8.94962
653 1 12.5794 12.5794 18.8691 -8.9499
654 1 14.1518 14.1518 20.4415 -8.94966
655 1 15.7242 12.5794 18.8691 -8.94962
656 1 17.2966 14.1518 20.4415 -8.94963
657 1 18.8691 12.5794 18.8691 -8.94963
658 1 20.4415 14.1518 20.4415 -8.94963
659 1 22.0139 15.7242 18.8691 -8.94963
660 1 1.57242 17.2966 20.4415 -8.94963
661 1 3.14484 15.7242 18.8691 -8.94963
662 1 4.71726 17.2966 20.4415 -8.94963
663 1 6.28968 15.7242 18.8691 -8.94961
664 1 7.86211 17.2966 20.4415 -8.94964
665 1 9.43453 15.7242 18.869 -8.94962
666 1 11.007 17.2966 20.4415 -8.94964
667 1 12.5794 15.7242 18.8691 -8.9496
668 1 14.1518 17.2966 20.4415 -8.94963
669 1 15.7242 15.7242 18.8691 -8.94962
670 1 17.2966 17.2966 20.4415 -8.94963
671 1 18.8691 15.7242 18.8691 -8.94964
672 1 20.4415 17.2966 20.4415 -8.94963
673 1 1.23704e-08 18.8691 18.8691 -8.94963
674 1 1.57242 20.4415 20.4415 -8.94963
675 1 3.14484 18.8691 18.8691 -8.94964
676 1 4.71726 20.4415 20.4415 -8.94963
677 1 6.28969 18.8691 18.8691 -8.94963
678 1 7.86211 20.4415 20.4415 -8.94963
679 1 9.43453 18.8691 18.8691 -8.94963
680 1 11.007 20.4415 20.4415 -8.94963
681 1 12.5794 18.8691 18.8691 -8.94963
682 1 14.1518 20.4415 20.4415 -8.94963
355 1 6.28969 12.5794 22.0139 -8.94965
357 1 9.43451 12.5794 22.0139 -8.94969
359 1 12.5794 12.5794 22.0138 -8.94984
365 1 -1.10902e-08 15.7242 22.0139 -8.94963
367 1 3.14484 15.7242 22.0139 -8.94963
369 1 6.28968 15.7242 22.0139 -8.94963
375 1 15.7242 15.7242 22.0139 -8.94962
379 1 22.0139 18.8691 22.0139 -8.94963
351 1 22.0139 12.5794 22.0139 -8.94963
363 1 18.8691 12.5794 22.0139 -8.94963
385 1 9.43453 18.8691 22.0139 -8.94963
387 1 12.5794 18.8691 22.0139 -8.94963
