ITEM: TIMESTEP
82
ITEM: NUMBER OF ATOMS
688
ITEM: BOX BOUNDS pp pp pp
0.0000000000000000e+00 2.2013900999999997e+01
0.0000000000000000e+00 2.2013900999999997e+01
0.0000000000000000e+00 2.2013900999999997e+01
ITEM: ATOMS id type x y z c_pot
189 1 20.4406 4.71573 11.007 -8.94954
2 1 1.57175 1.57193 1.57165 -8.94917
175 1 18.8671 9.43438 9.43515 -8.94792
4 1 4.71672 1.57193 1.57162 -8.94959
174 1 15.7195 9.4363 9.43849 -8.94538
6 1 7.86181 1.57199 1.57194 -8.94945
7 1 9.43434 3.60765e-15 2.53737e-05 -8.94949
8 1 11.0068 1.57199 1.57219 -8.94949
173 1 12.5636 9.43815 9.43294 -8.94617
10 1 14.1518 1.57188 1.57231 -8.94953
172 1 9.35781 9.19698 9.43601 -8.34707
12 1 17.297 1.57167 1.57215 -8.94948
188 1 17.2977 4.71524 11.007 -8.94895
14 1 20.4414 1.57192 1.57214 -8.94943
171 1 6.27036 9.42419 9.43355 -9.01796
16 1 1.57191 4.71656 1.57155 -8.94979
170 1 3.1355 9.43316 9.43371 -8.95076
18 1 4.71606 4.71608 1.57069 -8.9496
169 1 22.0098 9.43404 9.43416 -8.94973
20 1 7.86145 4.71627 1.57154 -8.94915
183 1 1.5689 4.71496 11.0076 -8.94926
22 1 11.0066 4.71618 1.57189 -8.94938
181 1 17.2968 1.57166 11.0067 -8.94949
24 1 14.1523 4.71574 1.57169 -8.94989
168 1 18.8689 6.28821 9.43431 -8.94951
26 1 17.2981 4.7153 1.5715 -8.94837
167 1 15.7261 6.28707 9.43478 -8.94508
28 1 20.4419 4.7163 1.57194 -8.9495
166 1 12.5779 6.2904 9.43666 -8.94685
30 1 1.57221 7.86177 1.57172 -8.94944
165 1 9.42881 6.29337 9.43816 -9.0062
32 1 4.71683 7.86218 1.57174 -8.94982
164 1 6.27619 6.27902 9.43601 -8.94384
34 1 7.86163 7.86195 1.57163 -8.95197
35 1 9.43396 6.28894 1.32329e-05 -8.94961
36 1 11.0063 7.8612 1.57144 -8.95036
37 1 12.5793 6.28863 0.000218137 -8.94978
38 1 14.1536 7.86027 1.56979 -8.95174
163 1 3.13738 6.2858 9.43461 -8.94917
40 1 17.2985 7.86085 1.57147 -8.94917
162 1 22.0108 6.28803 9.43421 -8.94997
42 1 20.4422 7.86147 1.57189 -8.9494
158 1 9.43329 3.14454 9.43516 -8.94679
44 1 3.14482 9.43447 -0.000196933 -8.94961
161 1 18.8688 3.14374 9.43414 -8.94948
160 1 15.7246 3.14346 9.43423 -8.94938
159 1 12.5789 3.14454 9.43493 -8.94869
48 1 15.7261 9.4338 8.69519e-05 -8.94943
157 1 6.28596 3.14078 9.43486 -8.94992
50 1 22.0132 2.90997e-15 3.14418 -8.94943
51 1 1.5711 1.57169 4.71616 -8.94943
52 1 3.14382 1.26876e-14 3.14367 -8.94951
53 1 4.71581 1.57113 4.71583 -8.95002
54 1 6.2892 1.19471e-14 3.14398 -8.94954
55 1 7.86156 1.57153 4.71649 -8.94964
56 1 9.43434 8.98582e-15 3.14433 -8.94954
57 1 11.0067 1.57176 4.7168 -8.94957
58 1 12.5793 8.22425e-15 3.14456 -8.94951
59 1 14.1518 1.57151 4.71698 -8.95065
60 1 15.7243 4.11219e-15 3.14454 -8.95005
61 1 17.2965 1.57189 4.71699 -8.94975
62 1 18.8689 1.82477e-15 3.14456 -8.94965
63 1 20.4409 1.57193 4.71667 -8.94944
64 1 22.013 3.14394 3.14391 -8.94946
65 1 1.56987 4.71551 4.71542 -8.94944
66 1 3.14307 3.14328 3.14295 -8.94841
67 1 4.71244 4.71298 4.71305 -8.94525
68 1 6.28869 3.14347 3.14351 -8.94965
69 1 7.86017 4.71437 4.71555 -8.94919
70 1 9.43405 3.14374 3.1441 -8.94941
71 1 11.0064 4.715 4.71596 -8.94806
72 1 12.5793 3.14369 3.14426 -8.94925
73 1 14.154 4.71288 4.71479 -8.94997
74 1 15.7251 3.14291 3.14385 -8.94951
75 1 17.2974 4.71567 4.7165 -8.95017
76 1 18.8692 3.14382 3.14432 -8.94972
77 1 20.4407 4.71623 4.71646 -8.94986
78 1 22.0135 6.28891 3.14385 -8.94978
79 1 1.57043 7.86147 4.71586 -8.94979
80 1 3.1432 6.28878 3.14316 -8.95026
81 1 4.71355 7.86122 4.71529 -8.95122
82 1 6.28676 6.28727 3.14117 -8.95019
83 1 7.85567 7.85697 4.71062 -8.95401
84 1 9.43331 6.28771 3.14326 -8.9478
85 1 11.0059 7.85853 4.712 -8.95236
86 1 12.5798 6.28751 3.14249 -8.94974
87 1 14.1638 7.85057 4.70553 -8.9305
88 1 15.7282 6.28537 3.14108 -8.94493
89 1 17.3003 7.85996 4.71523 -8.95065
90 1 18.8704 6.28824 3.14375 -8.94965
91 1 20.4415 7.86136 4.71628 -8.95013
92 1 -0.000205216 9.43422 3.1438 -8.94951
93 1 3.14361 9.43432 3.14361 -8.94901
94 1 6.28888 9.43519 3.14499 -8.94962
95 1 9.43438 9.43458 3.14664 -8.94961
96 1 12.5818 9.43332 3.13837 -8.95965
97 1 15.728 9.43302 3.14157 -8.94759
98 1 18.8707 9.43395 3.14362 -8.94927
99 1 22.0128 3.11411e-15 6.28897 -8.94947
100 1 1.5707 1.57155 7.86147 -8.94947
101 1 3.14327 1.27296e-14 6.28868 -8.94947
102 1 4.71513 1.57087 7.86142 -8.94958
103 1 6.28869 3.08686e-14 6.28896 -8.95055
104 1 7.86111 1.57112 7.86208 -8.95105
105 1 9.43419 3.05423e-14 6.28937 -8.95007
106 1 11.0062 1.57223 7.86237 -8.94938
107 1 12.5789 1.78777e-14 6.28974 -8.95036
108 1 14.1515 1.57204 7.86213 -8.94952
109 1 15.7239 3.82757e-15 6.28956 -8.94963
110 1 17.2965 1.57188 7.86168 -8.94941
111 1 18.8686 2.22061e-15 6.28922 -8.94943
112 1 20.4407 1.57185 7.86159 -8.94947
113 1 -0.00149129 3.14369 6.28876 -8.9494
114 1 1.56901 4.71506 7.86111 -8.94934
115 1 3.1422 3.1427 6.28818 -8.94928
116 1 4.71147 4.71255 7.8606 -8.94807
117 1 6.2871 3.14131 6.28814 -8.95151
118 1 7.8576 4.71073 7.86206 -8.95796
119 1 9.43374 3.14296 6.28921 -8.95031
120 1 11.0053 4.71657 7.8631 -8.95135
121 1 12.579 3.14307 6.28963 -8.95235
122 1 14.1518 4.7161 7.86286 -8.94928
123 1 15.7242 3.14386 6.28959 -8.94973
124 1 17.2969 4.71597 7.86172 -8.94864
125 1 18.8687 3.14398 6.28916 -8.94931
126 1 20.4403 4.71598 7.86146 -8.94947
127 1 22.0114 6.28837 6.2885 -8.95006
128 1 1.56665 7.86039 7.86082 -8.95136
129 1 3.13849 6.2863 6.2867 -8.94995
130 1 4.70249 7.85627 7.85895 -8.95596
131 1 6.27604 6.27809 6.27961 -8.9325
132 1 7.8194 7.83129 7.83569 -8.88643
133 1 9.43188 6.28335 6.28794 -8.95175
134 1 11.0219 7.85618 7.84284 -8.94615
135 1 12.5844 6.28011 6.28435 -8.9531
136 1 14.1562 7.85982 7.8643 -8.95152
137 1 15.7263 6.2875 6.28905 -8.95104
138 1 17.2967 7.86187 7.86343 -8.95122
139 1 18.8688 6.28884 6.28937 -8.95024
140 1 20.4394 7.86141 7.86177 -8.95007
141 1 22.0119 9.4342 6.28862 -8.94988
142 1 3.1404 9.43451 6.28827 -8.94995
143 1 6.28224 9.4363 6.28923 -8.95232
144 1 9.41832 9.4152 6.29211 -8.94945
145 1 12.619 9.40205 6.25456 -8.85532
146 1 15.7333 9.43219 6.28665 -8.95718
147 1 18.8702 9.43416 6.2891 -8.95167
148 1 -0.00116329 2.95546e-15 9.43427 -8.94948
149 1 3.14298 1.35296e-14 9.4344 -8.94951
150 1 6.28812 3.60599e-14 9.43456 -8.95042
151 1 9.43396 3.51294e-14 9.43456 -8.94844
152 1 12.579 1.91491e-14 9.43446 -8.9493
153 1 15.7242 6.2409e-15 9.43417 -8.94966
154 1 18.8687 2.63796e-15 9.43416 -8.94949
155 1 22.0122 3.14353 9.43423 -8.94945
156 1 3.14171 3.14251 9.43444 -8.94946
177 1 4.71498 1.57078 11.0076 -8.9495
184 1 4.71107 4.71235 11.009 -8.94745
3 1 3.14453 3.46369e-15 -0.000268491 -8.94953
11 1 15.7243 1.59573e-16 0.000266816 -8.94956
41 1 18.8703 6.28859 0.000196392 -8.94939
19 1 6.2893 3.14428 -0.000286815 -8.94945
25 1 15.7247 3.14371 0.000253428 -8.94967
176 1 1.57067 1.5715 11.0072 -8.94946
47 1 12.5796 9.43431 22.0141 -8.95179
178 1 7.86104 1.57083 11.0074 -8.95138
179 1 11.0063 1.57186 11.007 -8.94934
180 1 14.1519 1.57153 11.0067 -8.94966
343 1 18.8712 9.43389 18.8712 -8.94931
182 1 20.4408 1.57177 11.0069 -8.94948
342 1 15.7274 9.43336 18.8732 -8.94914
46 1 9.43431 9.43465 22.0148 -8.94894
185 1 7.85743 4.70934 11.0098 -8.95905
186 1 11.0061 4.71548 11.0088 -8.95046
187 1 14.1533 4.71441 11.0071 -8.94873
341 1 12.5808 9.43388 18.874 -8.95251
340 1 9.43478 9.43464 18.8704 -8.94921
190 1 1.56666 7.86054 11.0076 -8.95143
191 1 4.70256 7.85716 11.0108 -8.9578
192 1 7.81879 7.82612 11.0442 -8.90907
193 1 11.0269 7.85534 11.0368 -8.96246
194 1 14.1587 7.8574 11.0078 -8.95015
195 1 17.2986 7.86042 11.0073 -8.95043
196 1 20.44 7.86108 11.0071 -8.95019
197 1 22.0129 3.21436e-15 12.5798 -8.94948
198 1 1.57104 1.57154 14.1529 -8.94945
199 1 3.14312 1.35185e-14 12.5803 -8.94945
200 1 4.71545 1.57086 14.1535 -8.95006
201 1 6.28846 3.14619e-14 12.5803 -8.95075
202 1 7.86138 1.57125 14.1531 -8.94957
203 1 9.43413 3.0786e-14 12.58 -8.95001
204 1 11.0068 1.57097 14.1531 -8.94984
205 1 12.5792 2.09454e-14 12.5795 -8.95097
206 1 14.1526 1.57042 14.1528 -8.9512
207 1 15.7246 5.96082e-15 12.5794 -8.94968
208 1 17.2973 1.57135 14.1523 -8.94967
209 1 18.869 3.06043e-15 12.5795 -8.94947
210 1 20.4412 1.57171 14.1524 -8.94945
211 1 22.0125 3.14347 12.58 -8.9494
212 1 1.56974 4.71514 14.1538 -8.94971
213 1 3.14192 3.14248 12.5809 -8.94923
214 1 4.71148 4.71211 14.1571 -8.94447
215 1 6.2866 3.14056 12.5818 -8.95171
216 1 7.86009 4.71356 14.1553 -8.94926
217 1 9.43401 3.14213 12.5811 -8.95013
218 1 11.0073 4.71215 14.1564 -8.94798
219 1 12.5798 3.14091 12.5806 -8.9537
220 1 14.1569 4.70887 14.1574 -8.95039
221 1 15.7253 3.14257 12.5797 -8.94949
222 1 17.2993 4.71417 14.1535 -8.95008
223 1 18.8693 3.14345 12.5796 -8.94935
224 1 20.4415 4.71562 14.1528 -8.94981
225 1 22.0117 6.28808 12.5803 -8.95025
226 1 1.56986 7.86096 14.1537 -8.94944
227 1 3.13804 6.28611 12.5825 -8.95099
228 1 4.71266 7.86074 14.155 -8.95041
229 1 6.27437 6.27592 12.5928 -8.93039
230 1 7.85629 7.8558 14.1632 -8.95432
231 1 9.43409 6.28161 12.5865 -8.95076
232 1 11.0094 7.8528 14.1672 -8.94653
233 1 12.5884 6.27323 12.5904 -8.95726
234 1 14.1736 7.84194 14.1743 -8.9194
235 1 15.7292 6.2852 12.5817 -8.95034
236 1 17.3039 7.8583 14.1564 -8.95251
237 1 18.8703 6.28786 12.5801 -8.94983
238 1 20.4425 7.86086 14.1534 -8.95063
239 1 22.0116 9.43397 12.5804 -8.95004
240 1 3.13856 9.43355 12.5819 -8.9475
241 1 6.28293 9.43372 12.5829 -8.97821
242 1 9.42642 9.41317 12.5933 -8.95544
243 1 12.6348 9.38131 12.6373 -8.85149
244 1 15.737 9.43147 12.5866 -8.96341
245 1 18.8714 9.434 12.5807 -8.95259
246 1 -0.000543689 3.20777e-15 15.7251 -8.94947
247 1 1.5717 1.57177 17.2979 -8.94909
248 1 3.14363 1.23091e-14 15.7257 -8.94953
249 1 4.71658 1.57182 17.2979 -8.94962
250 1 6.289 1.26633e-14 15.7254 -8.94952
251 1 7.86156 1.57181 17.2978 -8.94935
252 1 9.43411 1.05149e-14 15.7254 -8.94955
253 1 11.0067 1.5716 17.298 -8.94946
254 1 12.5795 9.85164e-15 15.7254 -8.94966
255 1 14.1523 1.57126 17.2981 -8.94954
256 1 15.7251 7.22615e-15 15.7254 -8.95033
257 1 17.2978 1.5711 17.2983 -8.94942
258 1 18.8695 2.54296e-15 15.725 -8.94963
259 1 20.4418 1.57169 17.2977 -8.94947
260 1 22.0133 3.14358 15.7255 -8.9495
261 1 1.57189 4.71626 17.2982 -8.94979
262 1 3.14271 3.14287 15.7266 -8.94819
263 1 4.71572 4.71585 17.299 -8.94968
264 1 6.28839 3.14317 15.7262 -8.94966
265 1 7.8611 4.71584 17.2988 -8.94876
266 1 9.43385 3.14288 15.7263 -8.94925
267 1 11.0068 4.71504 17.2995 -8.94923
268 1 12.58 3.142 15.7266 -8.94921
269 1 14.1536 4.71386 17.3004 -8.94952
270 1 15.7267 3.14101 15.727 -8.94953
271 1 17.3 4.7136 17.3003 -8.94717
272 1 18.8702 3.14309 15.7255 -8.94975
273 1 20.4426 4.71568 17.2983 -8.94948
274 1 22.0138 6.28838 15.7259 -8.94984
275 1 1.57221 7.8616 17.2981 -8.94954
276 1 3.14271 6.28844 15.7265 -8.95008
277 1 4.71663 7.8622 17.2979 -8.95003
278 1 6.28616 6.28684 15.7294 -8.95031
279 1 7.86193 7.86199 17.299 -8.95268
280 1 9.43341 6.28606 15.7294 -8.94636
281 1 11.0074 7.85984 17.3023 -8.95089
282 1 12.5824 6.28384 15.7318 -8.94858
283 1 14.1566 7.85793 17.3053 -8.95196
284 1 15.7327 6.28126 15.7331 -8.94147
285 1 17.3007 7.85973 17.3008 -8.94876
286 1 18.8723 6.28702 15.727 -8.95
287 1 20.443 7.86105 17.2986 -8.94934
288 1 22.014 9.43403 15.726 -8.94954
289 1 3.14332 9.43436 15.7259 -8.94931
290 1 6.28927 9.43555 15.7251 -8.95007
291 1 9.43741 9.43475 15.727 -8.95271
292 1 12.5874 9.43048 15.7407 -8.9614
293 1 15.7325 9.4316 15.7328 -8.9464
294 1 18.8727 9.43343 15.7275 -8.94917
295 1 22.0139 2.4866e-15 18.8699 -8.94916
296 1 1.57226 1.57201 20.4418 -8.94936
297 1 3.14449 3.53314e-15 18.8698 -8.94959
298 1 4.71699 1.57211 20.4417 -8.94949
299 1 6.28932 2.27525e-15 18.8698 -8.9494
300 1 7.8618 1.57208 20.4418 -8.94947
301 1 9.43421 2.59557e-15 18.8699 -8.94946
302 1 11.0067 1.57198 20.442 -8.94947
303 1 12.5793 2.3254e-15 18.87 -8.94947
304 1 14.1519 1.57184 20.4422 -8.94946
305 1 15.7246 1.11255e-15 18.8702 -8.94954
306 1 17.2972 1.57171 20.4423 -8.94953
307 1 18.8698 1.25275e-15 18.8702 -8.94921
308 1 20.442 1.5719 20.4421 -8.94904
309 1 0.000254567 3.14403 18.8701 -8.94947
310 1 1.57251 4.71677 20.4419 -8.94971
311 1 3.14429 3.14407 18.8701 -8.94956
312 1 4.71689 4.7168 20.4418 -8.95011
313 1 6.28916 3.14419 18.87 -8.94936
314 1 7.8616 4.7166 20.442 -8.94948
315 1 9.43408 3.14394 18.8702 -8.94944
316 1 11.0067 4.71625 20.4424 -8.94953
317 1 12.5794 3.14355 18.8705 -8.94938
318 1 14.1523 4.7158 20.4428 -8.94963
319 1 15.7252 3.14309 18.8709 -8.94958
320 1 17.2981 4.71547 20.4428 -8.94941
321 1 18.8704 3.14329 18.8706 -8.94873
322 1 20.4423 4.71633 20.4422 -8.94943
323 1 22.0145 6.28893 18.8702 -8.94949
324 1 1.57268 7.86182 20.4419 -8.94956
325 1 3.14465 6.28938 18.87 -8.94986
326 1 4.71726 7.86221 20.4418 -8.94972
327 1 6.2892 6.28939 18.8703 -8.95074
328 1 7.86198 7.86218 20.442 -8.9502
329 1 9.43394 6.28857 18.8711 -8.94961
330 1 11.0067 7.86146 20.443 -8.95035
331 1 12.5799 6.28781 18.8723 -8.9497
332 1 14.153 7.86086 20.4437 -8.95107
333 1 15.7269 6.28689 18.8729 -8.94997
334 1 17.2986 7.86089 20.443 -8.94924
335 1 18.871 6.28813 18.871 -8.9493
336 1 20.4426 7.86145 20.4423 -8.94941
337 1 22.0146 9.43423 18.8703 -8.94948
338 1 3.14472 9.43446 18.8699 -8.9496
339 1 6.28965 9.43482 18.8695 -8.94949
45 1 6.28968 9.43475 22.0141 -8.94948
5 1 6.28942 2.53087e-15 22.0137 -8.94946
9 1 12.5793 2.16991e-15 22.0141 -8.94949
39 1 15.7256 6.28796 22.0139 -8.95013
15 1 22.014 3.14423 22.0138 -8.94949
17 1 3.14437 3.1442 22.0134 -8.94955
33 1 6.28928 6.28939 22.0133 -8.95057
31 1 3.14472 6.28946 22.0136 -8.94983
27 1 18.8699 3.14374 22.0141 -8.9491
29 1 0.000400368 6.28913 22.0139 -8.94949
1 1 -9.84054e-05 2.16187e-15 22.0139 -8.94913
13 1 18.8694 1.83308e-15 22.0141 -8.94931
21 1 9.43421 3.14418 22.0139 -8.94948
23 1 12.5793 3.14402 22.0141 -8.94945
43 1 22.0144 9.43431 22.0139 -8.94951
49 1 18.8705 9.43408 22.0141 -8.94941
344 1 1.57229 11.007 1.57175 -8.94957
345 1 4.71683 11.007 1.57188 -8.94974
346 1 7.86208 11.007 1.57388 -8.94832
347 1 11.0065 11.007 1.57363 -8.94665
348 1 14.1543 11.007 1.56977 -8.94974
349 1 17.2987 11.007 1.57145 -8.94943
350 1 20.4423 11.007 1.57187 -8.94946
538 1 17.2968 20.4422 11.0067 -8.94949
352 1 1.57221 14.1521 1.57172 -8.94944
353 1 3.14482 12.5794 -0.000196933 -8.94961
354 1 4.71683 14.1517 1.57174 -8.94982
688 3 10.2565 11.007 9.4708 2.19628
356 1 7.86163 14.1519 1.57163 -8.95197
511 1 18.8688 18.8702 9.43414 -8.94948
358 1 11.0063 14.1527 1.57144 -8.95036
510 1 15.7246 18.8704 9.43423 -8.94938
360 1 14.1536 14.1536 1.56979 -8.95174
361 1 15.7261 12.5801 8.69519e-05 -8.94943
362 1 17.2985 14.153 1.57147 -8.94917
532 1 20.4406 17.2982 11.007 -8.94954
364 1 20.4422 14.1524 1.57189 -8.9494
509 1 12.5789 18.8694 9.43493 -8.94869
366 1 1.57191 17.2973 1.57155 -8.94979
508 1 9.43329 18.8694 9.43516 -8.94679
368 1 4.71606 17.2978 1.57069 -8.9496
507 1 6.28596 18.8731 9.43486 -8.94992
370 1 7.86145 17.2976 1.57154 -8.94915
371 1 9.43396 15.725 1.32329e-05 -8.94961
372 1 11.0066 17.2977 1.57189 -8.94938
373 1 12.5793 15.7253 0.000218137 -8.94978
374 1 14.1523 17.2982 1.57169 -8.94989
506 1 3.14171 18.8714 9.43444 -8.94946
376 1 17.2981 17.2986 1.5715 -8.94837
505 1 22.0122 18.8704 9.43423 -8.94945
378 1 20.4419 17.2976 1.57194 -8.9495
504 1 18.8689 15.7257 9.43431 -8.94951
380 1 1.57175 20.442 1.57165 -8.94917
503 1 15.7261 15.7268 9.43478 -8.94508
382 1 4.71672 20.442 1.57162 -8.94959
502 1 12.5779 15.7235 9.43666 -8.94685
384 1 7.86181 20.4419 1.57194 -8.94945
531 1 17.2977 17.2987 11.007 -8.94895
386 1 11.0068 20.4419 1.57219 -8.94949
687 2 9.56541 11.007 10.2543 -0.0333091
388 1 14.1518 20.442 1.57231 -8.94953
501 1 9.42881 15.7205 9.43816 -9.0062
390 1 17.297 20.4422 1.57215 -8.94948
500 1 6.27619 15.7349 9.43601 -8.94384
392 1 20.4414 20.442 1.57214 -8.94943
393 1 1.57051 11.007 4.71575 -8.94947
394 1 4.71405 11.007 4.71552 -8.94596
395 1 7.86304 11.007 4.72239 -8.94801
396 1 11.0104 11.007 4.7238 -9.0041
397 1 14.1617 11.007 4.70816 -8.9419
398 1 17.3005 11.007 4.71492 -8.9491
399 1 20.4417 11.007 4.71611 -8.94992
400 1 -0.000205216 12.5797 3.1438 -8.94951
401 1 1.57043 14.1524 4.71586 -8.94979
402 1 3.14361 12.5796 3.14361 -8.94901
403 1 4.71355 14.1527 4.71529 -8.95122
404 1 6.28888 12.5787 3.14499 -8.94962
405 1 7.85567 14.1569 4.71062 -8.95401
406 1 9.43438 12.5793 3.14664 -8.94961
407 1 11.0059 14.1554 4.712 -8.95236
408 1 12.5818 12.5806 3.13837 -8.95965
409 1 14.1638 14.1633 4.70553 -8.9305
410 1 15.728 12.5809 3.14157 -8.94759
411 1 17.3003 14.1539 4.71523 -8.95065
412 1 18.8707 12.58 3.14362 -8.94927
413 1 20.4415 14.1525 4.71628 -8.95013
414 1 22.0135 15.725 3.14385 -8.94978
415 1 1.56987 17.2984 4.71542 -8.94944
416 1 3.1432 15.7251 3.14316 -8.95026
417 1 4.71244 17.3009 4.71305 -8.94525
418 1 6.28676 15.7266 3.14117 -8.95019
419 1 7.86017 17.2995 4.71555 -8.94919
420 1 9.43331 15.7262 3.14326 -8.9478
421 1 11.0064 17.2989 4.71596 -8.94806
422 1 12.5798 15.7264 3.14249 -8.94974
423 1 14.154 17.301 4.71479 -8.94997
424 1 15.7282 15.7285 3.14108 -8.94493
425 1 17.2974 17.2982 4.7165 -8.95017
426 1 18.8704 15.7257 3.14375 -8.94965
427 1 20.4407 17.2977 4.71646 -8.94986
428 1 22.013 18.87 3.14391 -8.94946
429 1 1.5711 20.4422 4.71616 -8.94943
430 1 3.14307 18.8706 3.14295 -8.94841
431 1 4.71581 20.4428 4.71583 -8.95002
432 1 6.28869 18.8704 3.14351 -8.94965
433 1 7.86156 20.4424 4.71649 -8.94964
434 1 9.43405 18.8702 3.1441 -8.94941
435 1 11.0067 20.4421 4.7168 -8.94957
436 1 12.5793 18.8702 3.14426 -8.94925
437 1 14.1518 20.4424 4.71698 -8.95065
438 1 15.7251 18.871 3.14385 -8.94951
439 1 17.2965 20.442 4.71699 -8.94975
440 1 18.8692 18.8701 3.14432 -8.94972
441 1 20.4409 20.442 4.71667 -8.94944
442 1 1.56809 11.007 7.86103 -8.94774
443 1 4.71281 11.007 7.86248 -8.94076
444 1 7.87284 11.007 7.87128 -8.95629
445 1 11.0861 11.007 7.63399 -8.18146
446 1 14.1592 11.007 7.85649 -8.96897
447 1 17.2973 11.007 7.86312 -8.95168
448 1 20.4396 11.007 7.86181 -8.94964
449 1 22.0119 12.5797 6.28862 -8.94988
450 1 1.56665 14.1535 7.86082 -8.95136
451 1 3.1404 12.5794 6.28827 -8.94995
452 1 4.70249 14.1576 7.85895 -8.95596
453 1 6.28224 12.5776 6.28923 -8.95232
454 1 7.8194 14.1826 7.83569 -8.88643
455 1 9.41832 12.5987 6.29211 -8.94945
456 1 11.0219 14.1577 7.84284 -8.94615
457 1 12.619 12.6118 6.25456 -8.85532
458 1 14.1562 14.1541 7.8643 -8.95152
459 1 15.7333 12.5817 6.28665 -8.95718
460 1 17.2967 14.152 7.86343 -8.95122
461 1 18.8702 12.5797 6.2891 -8.95167
462 1 20.4394 14.1525 7.86177 -8.95007
463 1 22.0114 15.7255 6.2885 -8.95006
464 1 1.56901 17.2988 7.86111 -8.94934
465 1 3.13849 15.7276 6.2867 -8.94995
466 1 4.71147 17.3013 7.8606 -8.94807
467 1 6.27604 15.7358 6.27961 -8.9325
468 1 7.8576 17.3032 7.86206 -8.95796
469 1 9.43188 15.7305 6.28794 -8.95175
470 1 11.0053 17.2973 7.8631 -8.95135
471 1 12.5844 15.7338 6.28435 -8.9531
472 1 14.1518 17.2978 7.86286 -8.94928
473 1 15.7263 15.7264 6.28905 -8.95104
474 1 17.2969 17.2979 7.86172 -8.94864
475 1 18.8688 15.7251 6.28937 -8.95024
476 1 20.4403 17.2979 7.86146 -8.94947
477 1 -0.00149129 18.8702 6.28876 -8.9494
478 1 1.5707 20.4424 7.86147 -8.94947
479 1 3.1422 18.8712 6.28818 -8.94928
480 1 4.71513 20.443 7.86142 -8.94958
481 1 6.2871 18.8726 6.28814 -8.95151
482 1 7.86111 20.4428 7.86208 -8.95105
483 1 9.43374 18.8709 6.28921 -8.95031
484 1 11.0062 20.4417 7.86237 -8.94938
485 1 12.579 18.8708 6.28963 -8.95235
486 1 14.1515 20.4419 7.86213 -8.94952
487 1 15.7242 18.87 6.28959 -8.94973
488 1 17.2965 20.442 7.86168 -8.94941
489 1 18.8687 18.8699 6.28916 -8.94931
490 1 20.4407 20.442 7.86159 -8.94947
491 1 22.0098 12.5799 9.43416 -8.94973
492 1 3.1355 12.5807 9.43371 -8.95076
493 1 6.27036 12.5897 9.43355 -9.01796
494 1 9.35781 12.8169 9.43601 -8.34707
495 1 12.5636 12.5758 9.43294 -8.94617
496 1 15.7195 12.5776 9.43849 -8.94538
497 1 18.8671 12.5795 9.43515 -8.94792
498 1 22.0108 15.7259 9.43421 -8.94997
499 1 3.13738 15.7281 9.43461 -8.94917
526 1 1.5689 17.2989 11.0076 -8.94926
527 1 4.71107 17.3015 11.009 -8.94745
534 1 4.71498 20.4431 11.0076 -8.9495
389 1 15.7247 18.8702 0.000253428 -8.94967
383 1 6.2893 18.8696 -0.000286815 -8.94945
377 1 18.8703 15.7253 0.000196392 -8.94939
512 1 1.56614 11.007 11.0076 -8.95096
513 1 4.70268 11.007 11.0081 -8.95677
514 1 7.82569 11.007 11.0149 -9.11683
515 1 11.1624 11.007 11.2715 -8.31517
516 1 14.1425 11.007 11.0231 -8.99028
517 1 17.2953 11.007 11.0086 -8.94483
518 1 20.4393 11.007 11.0072 -8.949
519 1 1.56666 14.1534 11.0076 -8.95143
520 1 4.70256 14.1567 11.0108 -8.9578
521 1 7.81879 14.1878 11.0442 -8.90907
522 1 11.0269 14.1586 11.0368 -8.96246
523 1 14.1587 14.1565 11.0078 -8.95015
524 1 17.2986 14.1535 11.0073 -8.95043
525 1 20.44 14.1528 11.0071 -8.95019
686 1 20.442 20.442 20.4421 -8.94904
391 1 18.8699 18.8702 22.0141 -8.9491
528 1 7.85743 17.3046 11.0098 -8.95905
529 1 11.0061 17.2984 11.0088 -8.95046
530 1 14.1533 17.2995 11.0071 -8.94873
685 1 18.8704 18.8706 18.8706 -8.94873
684 1 17.2972 20.4422 20.4423 -8.94953
533 1 1.57067 20.4424 11.0072 -8.94946
381 1 3.14437 18.8697 22.0134 -8.94955
535 1 7.86104 20.4431 11.0074 -8.95138
536 1 11.0063 20.442 11.007 -8.94934
537 1 14.1519 20.4424 11.0067 -8.94966
683 1 15.7252 18.8708 18.8709 -8.94958
539 1 20.4408 20.4421 11.0069 -8.94948
540 1 1.57012 11.007 14.1536 -8.94898
541 1 4.71436 11.007 14.1533 -8.94678
542 1 7.86701 11.007 14.1481 -8.99179
543 1 11.0224 11.007 14.1551 -9.05671
544 1 14.1689 11.007 14.1704 -8.94177
545 1 17.3039 11.007 14.1575 -8.94928
546 1 20.4427 11.007 14.1537 -8.95018
547 1 22.0116 12.5799 12.5804 -8.95004
548 1 1.56986 14.1529 14.1537 -8.94944
549 1 3.13856 12.5803 12.5819 -8.9475
550 1 4.71266 14.1532 14.155 -8.95041
551 1 6.28293 12.5802 12.5829 -8.97821
552 1 7.85629 14.1581 14.1632 -8.95432
553 1 9.42642 12.6007 12.5933 -8.95544
554 1 11.0094 14.1611 14.1672 -8.94653
555 1 12.6348 12.6326 12.6373 -8.85149
556 1 14.1736 14.172 14.1743 -8.9194
557 1 15.737 12.5824 12.5866 -8.96341
558 1 17.3039 14.1556 14.1564 -8.95251
559 1 18.8714 12.5799 12.5807 -8.95259
560 1 20.4425 14.153 14.1534 -8.95063
561 1 22.0117 15.7258 12.5803 -8.95025
562 1 1.56974 17.2988 14.1538 -8.94971
563 1 3.13804 15.7278 12.5825 -8.95099
564 1 4.71148 17.3018 14.1571 -8.94447
565 1 6.27437 15.738 12.5928 -8.93039
566 1 7.86009 17.3003 14.1553 -8.94926
567 1 9.43409 15.7323 12.5865 -8.95076
568 1 11.0073 17.3017 14.1564 -8.94798
569 1 12.5884 15.7407 12.5904 -8.95726
570 1 14.1569 17.305 14.1574 -8.95039
571 1 15.7292 15.7287 12.5817 -8.95034
572 1 17.2993 17.2997 14.1535 -8.95008
573 1 18.8703 15.726 12.5801 -8.94983
574 1 20.4415 17.2983 14.1528 -8.94981
575 1 22.0125 18.8704 12.58 -8.9494
576 1 1.57104 20.4424 14.1529 -8.94945
577 1 3.14192 18.8714 12.5809 -8.94923
578 1 4.71545 20.443 14.1535 -8.95006
579 1 6.2866 18.8733 12.5818 -8.95171
580 1 7.86138 20.4426 14.1531 -8.94957
581 1 9.43401 18.8718 12.5811 -8.95013
582 1 11.0068 20.4429 14.1531 -8.94984
583 1 12.5798 18.873 12.5806 -8.9537
584 1 14.1526 20.4435 14.1528 -8.9512
585 1 15.7253 18.8713 12.5797 -8.94949
586 1 17.2973 20.4426 14.1523 -8.94967
587 1 18.8693 18.8705 12.5796 -8.94935
588 1 20.4412 20.4422 14.1524 -8.94945
589 1 1.57221 11.007 17.2981 -8.94954
590 1 4.71659 11.007 17.2976 -8.94935
591 1 7.86265 11.007 17.2965 -8.94758
592 1 11.009 11.007 17.3004 -8.94647
593 1 14.1577 11.007 17.3055 -8.94914
594 1 17.3009 11.007 17.3011 -8.9492
595 1 20.4431 11.007 17.2987 -8.94946
596 1 22.014 12.5799 15.726 -8.94954
597 1 1.57221 14.1523 17.2981 -8.94954
598 1 3.14332 12.5795 15.7259 -8.94931
599 1 4.71663 14.1517 17.2979 -8.95003
600 1 6.28927 12.5784 15.7251 -8.95007
601 1 7.86193 14.1519 17.299 -8.95268
602 1 9.43741 12.5791 15.727 -8.95271
603 1 11.0074 14.1541 17.3023 -8.95089
604 1 12.5874 12.5834 15.7407 -8.9614
605 1 14.1566 14.156 17.3053 -8.95196
606 1 15.7325 12.5823 15.7328 -8.9464
607 1 17.3007 14.1542 17.3008 -8.94876
608 1 18.8727 12.5805 15.7275 -8.94917
609 1 20.443 14.1529 17.2986 -8.94934
610 1 22.0138 15.7255 15.7259 -8.94984
611 1 1.57189 17.2976 17.2982 -8.94979
612 1 3.14271 15.7255 15.7265 -8.95008
613 1 4.71572 17.298 17.299 -8.94968
614 1 6.28616 15.7271 15.7294 -8.95031
615 1 7.8611 17.2981 17.2988 -8.94876
616 1 9.43341 15.7278 15.7294 -8.94636
617 1 11.0068 17.2989 17.2995 -8.94923
618 1 12.5824 15.7301 15.7318 -8.94858
619 1 14.1536 17.3 17.3004 -8.94952
620 1 15.7327 15.7326 15.7331 -8.94147
621 1 17.3 17.3003 17.3003 -8.94717
622 1 18.8723 15.7269 15.727 -8.95
623 1 20.4426 17.2982 17.2983 -8.94948
624 1 22.0133 18.8703 15.7255 -8.9495
625 1 1.5717 20.4421 17.2979 -8.94909
626 1 3.14271 18.871 15.7266 -8.94819
627 1 4.71658 20.4421 17.2979 -8.94962
628 1 6.28839 18.8707 15.7262 -8.94966
629 1 7.86156 20.4421 17.2978 -8.94935
630 1 9.43385 18.871 15.7263 -8.94925
631 1 11.0067 20.4423 17.298 -8.94946
632 1 12.58 18.8719 15.7266 -8.94921
633 1 14.1523 20.4426 17.2981 -8.94954
634 1 15.7267 18.8729 15.727 -8.94953
635 1 17.2978 20.4428 17.2983 -8.94942
636 1 18.8702 18.8708 15.7255 -8.94975
637 1 20.4418 20.4422 17.2977 -8.94947
638 1 1.57272 11.007 20.4419 -8.94957
639 1 4.71726 11.007 20.4417 -8.94972
640 1 7.8621 11.007 20.442 -8.94893
641 1 11.0069 11.007 20.4432 -8.94861
642 1 14.1536 11.007 20.4438 -8.9506
643 1 17.2987 11.007 20.4431 -8.9494
644 1 20.4427 11.007 20.4423 -8.94944
645 1 22.0146 12.5797 18.8703 -8.94948
646 1 1.57268 14.1521 20.4419 -8.94956
647 1 3.14472 12.5794 18.8699 -8.9496
648 1 4.71726 14.1517 20.4418 -8.94972
649 1 6.28965 12.5791 18.8695 -8.94949
650 1 7.86198 14.1517 20.442 -8.9502
651 1 9.43478 12.5793 18.8704 -8.94921
652 1 11.0067 14.1524 20.443 -8.95035
653 1 12.5808 12.58 18.874 -8.95251
654 1 14.153 14.153 20.4437 -8.95107
655 1 15.7274 12.5805 18.8732 -8.94914
656 1 17.2986 14.153 20.443 -8.94924
657 1 18.8712 12.58 18.8712 -8.94931
658 1 20.4426 14.1524 20.4423 -8.94941
659 1 22.0145 15.725 18.8702 -8.94949
660 1 1.57251 17.2971 20.4419 -8.94971
661 1 3.14465 15.7245 18.87 -8.94986
662 1 4.71689 17.2971 20.4418 -8.95011
663 1 6.2892 15.7245 18.8703 -8.95074
664 1 7.8616 17.2973 20.442 -8.94948
665 1 9.43394 15.7253 18.8711 -8.94961
666 1 11.0067 17.2977 20.4424 -8.94953
667 1 12.5799 15.7261 18.8723 -8.9497
668 1 14.1523 17.2981 20.4428 -8.94963
669 1 15.7269 15.727 18.8729 -8.94997
670 1 17.2981 17.2984 20.4428 -8.94941
671 1 18.871 15.7258 18.871 -8.9493
672 1 20.4423 17.2976 20.4422 -8.94943
673 1 0.000254567 18.8699 18.8701 -8.94947
674 1 1.57226 20.4419 20.4418 -8.94936
675 1 3.14429 18.8698 18.8701 -8.94956
676 1 4.71699 20.4418 20.4417 -8.94949
677 1 6.28916 18.8697 18.87 -8.94936
678 1 7.8618 20.4418 20.4418 -8.94947
679 1 9.43408 18.87 18.8702 -8.94944
680 1 11.0067 20.4419 20.442 -8.94947
681 1 12.5794 18.8704 18.8705 -8.94938
682 1 14.1519 20.4421 20.4422 -8.94946
355 1 6.28968 12.5792 22.0141 -8.94948
357 1 9.43431 12.5793 22.0148 -8.94894
359 1 12.5796 12.5796 22.0141 -8.95179
365 1 0.000400368 15.7248 22.0139 -8.94949
367 1 3.14472 15.7244 22.0136 -8.94983
369 1 6.28928 15.7245 22.0133 -8.95057
375 1 15.7256 15.7259 22.0139 -8.95013
379 1 22.014 18.8697 22.0138 -8.94949
351 1 22.0144 12.5796 22.0139 -8.94951
363 1 18.8705 12.5798 22.0141 -8.94941
385 1 9.43421 18.8697 22.0139 -8.94948
387 1 12.5793 18.8699 22.0141 -8.94945
