ITEM: TIMESTEP
43
ITEM: NUMBER OF ATOMS
688
ITEM: BOX BOUNDS pp pp pp
0.0000000000000000e+00 2.2013900999999997e+01
0.0000000000000000e+00 2.2013900999999997e+01
0.0000000000000000e+00 2.2013900999999997e+01
ITEM: ATOMS id type x y z c_pot
189 1 20.4415 4.71726 11.007 -8.94963
2 1 1.57242 1.57242 1.57242 -8.94963
175 1 18.8691 9.43453 9.43453 -8.94968
4 1 4.71726 1.57242 1.57242 -8.94963
174 1 15.7245 9.43442 9.4345 -8.94991
6 1 7.86211 1.57242 1.57242 -8.94963
7 1 9.43453 2.00418e-16 4.02619e-10 -8.94963
8 1 11.007 1.57242 1.57242 -8.94963
173 1 12.5839 9.43033 9.43325 -8.9547
10 1 14.1518 1.57242 1.57242 -8.94963
172 1 9.37781 9.31245 9.43238 -8.10998
12 1 17.2966 1.57242 1.57242 -8.94963
188 1 17.2966 4.71727 11.007 -8.94965
14 1 20.4415 1.57242 1.57242 -8.94963
171 1 6.28557 9.43276 9.43311 -9.00415
16 1 1.57242 4.71726 1.57242 -8.94963
170 1 3.14469 9.43451 9.43451 -8.95046
18 1 4.71726 4.71726 1.57242 -8.94963
169 1 22.0139 9.43453 9.43453 -8.94967
20 1 7.86211 4.71726 1.57242 -8.94964
183 1 1.57242 4.71726 11.007 -8.94964
22 1 11.007 4.71726 1.57242 -8.94963
181 1 17.2966 1.57242 11.007 -8.94963
24 1 14.1518 4.71726 1.57242 -8.94964
168 1 18.8691 6.28969 9.43453 -8.94963
26 1 17.2966 4.71726 1.57242 -8.94963
167 1 15.7242 6.28969 9.43453 -8.94967
28 1 20.4415 4.71726 1.57242 -8.94963
166 1 12.5793 6.2896 9.43453 -8.95166
30 1 1.57242 7.86211 1.57242 -8.94963
165 1 9.43443 6.28489 9.43453 -8.97146
32 1 4.71726 7.86211 1.57242 -8.94964
164 1 6.2897 6.28964 9.43453 -8.95206
34 1 7.8621 7.8621 1.57241 -8.94963
35 1 9.43453 6.28969 2.75261e-07 -8.94963
36 1 11.0069 7.86211 1.57242 -8.94964
37 1 12.5794 6.28969 4.62036e-07 -8.94963
38 1 14.1518 7.8621 1.57241 -8.94962
163 1 3.14484 6.28969 9.43453 -8.94965
40 1 17.2966 7.86211 1.57242 -8.94964
162 1 22.0139 6.28969 9.43453 -8.94963
42 1 20.4415 7.86211 1.57242 -8.94963
158 1 9.43453 3.14467 9.43453 -8.9509
44 1 3.14484 9.43453 1.78153e-08 -8.94963
161 1 18.8691 3.14484 9.43453 -8.94963
160 1 15.7242 3.14484 9.43453 -8.94962
159 1 12.5794 3.14484 9.43453 -8.94969
48 1 15.7242 9.43453 4.27131e-07 -8.94963
157 1 6.28969 3.14484 9.43453 -8.94964
50 1 22.0139 5.54972e-16 3.14484 -8.94963
51 1 1.57242 1.57242 4.71726 -8.94963
52 1 3.14484 3.30185e-16 3.14484 -8.94963
53 1 4.71726 1.57242 4.71726 -8.94963
54 1 6.28969 4.50281e-16 3.14484 -8.94963
55 1 7.86211 1.57242 4.71726 -8.94964
56 1 9.43453 8.55014e-16 3.14484 -8.94963
57 1 11.007 1.57242 4.71726 -8.94963
58 1 12.5794 1.08552e-16 3.14484 -8.94963
59 1 14.1518 1.57242 4.71726 -8.94963
60 1 15.7242 4.91156e-16 3.14484 -8.94963
61 1 17.2966 1.57242 4.71726 -8.94963
62 1 18.8691 1.0129e-15 3.14484 -8.94963
63 1 20.4415 1.57242 4.71726 -8.94963
64 1 22.0139 3.14484 3.14484 -8.94963
65 1 1.57242 4.71726 4.71726 -8.94963
66 1 3.14484 3.14484 3.14484 -8.94963
67 1 4.71726 4.71726 4.71726 -8.94956
68 1 6.28969 3.14484 3.14484 -8.94964
69 1 7.86211 4.71727 4.71727 -8.9498
70 1 9.43453 3.14484 3.14484 -8.94963
71 1 11.0069 4.71727 4.71726 -8.94965
72 1 12.5794 3.14484 3.14484 -8.94963
73 1 14.1518 4.71726 4.71726 -8.94966
74 1 15.7242 3.14484 3.14484 -8.94963
75 1 17.2966 4.71726 4.71726 -8.94964
76 1 18.8691 3.14484 3.14484 -8.94963
77 1 20.4415 4.71726 4.71726 -8.94963
78 1 22.0139 6.28969 3.14484 -8.94963
79 1 1.57242 7.86211 4.71726 -8.94964
80 1 3.14484 6.28969 3.14484 -8.94964
81 1 4.71726 7.8621 4.71726 -8.94972
82 1 6.28968 6.28968 3.14483 -8.94963
83 1 7.86203 7.86203 4.71707 -8.95002
84 1 9.43453 6.28969 3.14485 -8.94965
85 1 11.0069 7.86216 4.71728 -8.95102
86 1 12.5794 6.28969 3.14485 -8.94979
87 1 14.152 7.86189 4.71705 -8.94744
88 1 15.7242 6.28968 3.14484 -8.94954
89 1 17.2966 7.8621 4.71726 -8.94965
90 1 18.8691 6.28969 3.14484 -8.94963
91 1 20.4415 7.86211 4.71726 -8.94963
92 1 2.02165e-08 9.43453 3.14484 -8.94963
93 1 3.14484 9.43453 3.14484 -8.94964
94 1 6.28968 9.43453 3.14484 -8.94971
95 1 9.43444 9.43444 3.14471 -8.94919
96 1 12.5795 9.43443 3.14461 -8.95005
97 1 15.7242 9.43453 3.14485 -8.94977
98 1 18.8691 9.43453 3.14484 -8.94963
99 1 22.0139 8.84694e-16 6.28969 -8.94963
100 1 1.57242 1.57242 7.86211 -8.94963
101 1 3.14484 7.17514e-18 6.28969 -8.94963
102 1 4.71726 1.57242 7.86211 -8.94963
103 1 6.28969 8.02921e-17 6.28969 -8.94963
104 1 7.86211 1.57241 7.86211 -8.94966
105 1 9.43453 2.84371e-16 6.28969 -8.94963
106 1 11.007 1.57242 7.8621 -8.94963
107 1 12.5794 2.19709e-16 6.28969 -8.94963
108 1 14.1518 1.57242 7.86211 -8.94964
109 1 15.7242 3.59558e-16 6.28969 -8.94963
110 1 17.2966 1.57242 7.86211 -8.94963
111 1 18.8691 5.36961e-16 6.28969 -8.94963
112 1 20.4415 1.57242 7.86211 -8.94963
113 1 2.22356e-08 3.14484 6.28969 -8.94963
114 1 1.57242 4.71726 7.86211 -8.94964
115 1 3.14484 3.14484 6.28969 -8.94964
116 1 4.71727 4.71727 7.86211 -8.94979
117 1 6.28968 3.14483 6.28968 -8.94961
118 1 7.862 4.71705 7.862 -8.94984
119 1 9.43453 3.14485 6.28969 -8.94964
120 1 11.007 4.71716 7.86201 -8.94887
121 1 12.5794 3.14484 6.28968 -8.94963
122 1 14.1518 4.71726 7.86211 -8.94971
123 1 15.7242 3.14484 6.28969 -8.94963
124 1 17.2966 4.71727 7.86211 -8.94964
125 1 18.8691 3.14484 6.28969 -8.94963
126 1 20.4415 4.71726 7.86211 -8.94963
127 1 22.0139 6.28969 6.28969 -8.94963
128 1 1.57241 7.8621 7.86211 -8.94967
129 1 3.14483 6.28968 6.28968 -8.9496
130 1 4.71701 7.86198 7.86198 -8.94969
131 1 6.28951 6.28951 6.28951 -8.94767
132 1 7.85756 7.85817 7.85796 -8.90539
133 1 9.43458 6.28971 6.28977 -8.95169
134 1 11.0083 7.86172 7.86101 -8.93752
135 1 12.5794 6.28952 6.28965 -8.9505
136 1 14.152 7.8619 7.86195 -8.94845
137 1 15.7242 6.28968 6.28968 -8.94967
138 1 17.2966 7.8621 7.8621 -8.94964
139 1 18.8691 6.28969 6.28969 -8.94963
140 1 20.4415 7.86211 7.86211 -8.94964
141 1 22.0139 9.43453 6.28969 -8.94963
142 1 3.14484 9.43453 6.28968 -8.94967
143 1 6.28951 9.43445 6.28952 -8.94972
144 1 9.43293 9.43276 6.28836 -8.9372
145 1 12.5841 9.42982 6.28514 -8.90668
146 1 15.7244 9.43447 6.28964 -8.95046
147 1 18.8691 9.43453 6.28969 -8.94967
148 1 1.18427e-09 1.00866e-15 9.43453 -8.94963
149 1 3.14484 6.47974e-16 9.43453 -8.94963
150 1 6.28969 1.1755e-15 9.43453 -8.94963
151 1 9.43453 3.78237e-16 9.43453 -8.94972
152 1 12.5794 4.97351e-16 9.43453 -8.94963
153 1 15.7242 8.72431e-16 9.43453 -8.94963
154 1 18.8691 1.16484e-15 9.43453 -8.94963
155 1 22.0139 3.14484 9.43453 -8.94963
156 1 3.14484 3.14484 9.43453 -8.94963
177 1 4.71726 1.57242 11.007 -8.94964
184 1 4.71727 4.71727 11.0069 -8.94976
3 1 3.14484 3.95655e-16 6.33906e-10 -8.94963
11 1 15.7242 1.2651e-15 1.09699e-09 -8.94963
41 1 18.8691 6.28969 1.58133e-08 -8.94963
19 1 6.28969 3.14484 2.22586e-08 -8.94963
25 1 15.7242 3.14484 1.51915e-08 -8.94963
176 1 1.57242 1.57242 11.007 -8.94963
47 1 12.5794 9.43453 22.0139 -8.94967
178 1 7.8621 1.57241 11.007 -8.94967
179 1 11.007 1.57242 11.007 -8.94964
180 1 14.1518 1.57242 11.007 -8.94964
343 1 18.8691 9.43453 18.8691 -8.94963
182 1 20.4415 1.57242 11.007 -8.94963
342 1 15.7242 9.43453 18.8691 -8.94963
46 1 9.43453 9.43453 22.0139 -8.94965
185 1 7.862 4.71703 11.007 -8.94986
186 1 11.007 4.71714 11.007 -8.94891
187 1 14.1518 4.71726 11.0069 -8.9497
341 1 12.5794 9.43453 18.8691 -8.94968
340 1 9.43453 9.43453 18.8691 -8.94974
190 1 1.57241 7.86211 11.007 -8.94967
191 1 4.71707 7.86203 11.007 -8.95055
192 1 7.85771 7.8579 11.0117 -8.96694
193 1 11.0082 7.86142 11.0087 -8.99795
194 1 14.152 7.86191 11.007 -8.94932
195 1 17.2966 7.8621 11.007 -8.94965
196 1 20.4415 7.86211 11.007 -8.94964
197 1 22.0139 3.37272e-16 12.5794 -8.94963
198 1 1.57242 1.57242 14.1518 -8.94963
199 1 3.14484 4.88165e-16 12.5794 -8.94963
200 1 4.71726 1.57242 14.1518 -8.94963
201 1 6.28969 4.5736e-16 12.5794 -8.94963
202 1 7.86211 1.57242 14.1518 -8.94963
203 1 9.43453 1.02866e-15 12.5794 -8.94964
204 1 11.007 1.57242 14.1518 -8.94963
205 1 12.5794 1.15014e-15 12.5794 -8.94963
206 1 14.1518 1.57242 14.1518 -8.94963
207 1 15.7242 2.56718e-16 12.5794 -8.94963
208 1 17.2966 1.57242 14.1518 -8.94963
209 1 18.8691 7.07802e-16 12.5794 -8.94963
210 1 20.4415 1.57242 14.1518 -8.94963
211 1 22.0139 3.14484 12.5794 -8.94963
212 1 1.57242 4.71726 14.1518 -8.94964
213 1 3.14484 3.14484 12.5794 -8.94964
214 1 4.71726 4.71725 14.1518 -8.94955
215 1 6.28968 3.14483 12.5794 -8.94964
216 1 7.86211 4.71729 14.1518 -8.94956
217 1 9.43453 3.14484 12.5794 -8.94974
218 1 11.007 4.71728 14.1518 -8.94942
219 1 12.5794 3.14483 12.5794 -8.94966
220 1 14.1518 4.71725 14.1518 -8.94965
221 1 15.7242 3.14484 12.5794 -8.94963
222 1 17.2966 4.71726 14.1518 -8.94964
223 1 18.8691 3.14484 12.5794 -8.94963
224 1 20.4415 4.71726 14.1518 -8.94963
225 1 22.0139 6.28969 12.5794 -8.94963
226 1 1.57242 7.86211 14.1518 -8.94963
227 1 3.14484 6.28968 12.5794 -8.94967
228 1 4.7172 7.86203 14.1519 -8.94895
229 1 6.28949 6.28944 12.5796 -8.94799
230 1 7.86228 7.86267 14.1514 -8.9511
231 1 9.43458 6.28938 12.5793 -8.95176
232 1 11.0067 7.86277 14.1512 -8.95202
233 1 12.5794 6.28945 12.5794 -8.95086
234 1 14.1521 7.86181 14.1521 -8.9465
235 1 15.7242 6.28969 12.5794 -8.94973
236 1 17.2966 7.8621 14.1518 -8.94965
237 1 18.8691 6.28969 12.5794 -8.94963
238 1 20.4415 7.86211 14.1518 -8.94963
239 1 22.0139 9.43453 12.5794 -8.94965
240 1 3.14476 9.4345 12.5794 -8.94983
241 1 6.28802 9.43301 12.5809 -8.99125
242 1 9.43314 9.43063 12.5826 -9.06836
243 1 12.5858 9.42811 12.5855 -8.9417
244 1 15.7245 9.43445 12.5794 -8.95069
245 1 18.8691 9.43453 12.5794 -8.94969
246 1 1.53835e-09 5.62122e-16 15.7242 -8.94963
247 1 1.57242 1.57242 17.2966 -8.94963
248 1 3.14484 -4.42794e-16 15.7242 -8.94963
249 1 4.71726 1.57242 17.2966 -8.94963
250 1 6.28969 6.60778e-16 15.7242 -8.94963
251 1 7.86211 1.57242 17.2966 -8.94963
252 1 9.43453 7.72294e-16 15.7242 -8.94963
253 1 11.007 1.57242 17.2966 -8.94963
254 1 12.5794 4.18527e-16 15.7242 -8.94963
255 1 14.1518 1.57242 17.2966 -8.94963
256 1 15.7242 2.9775e-17 15.7242 -8.94963
257 1 17.2966 1.57242 17.2966 -8.94963
258 1 18.8691 -1.2174e-16 15.7242 -8.94963
259 1 20.4415 1.57242 17.2966 -8.94963
260 1 22.0139 3.14484 15.7242 -8.94963
261 1 1.57242 4.71726 17.2966 -8.94963
262 1 3.14484 3.14484 15.7242 -8.94963
263 1 4.71727 4.71727 17.2966 -8.94965
264 1 6.28969 3.14484 15.7242 -8.94963
265 1 7.86211 4.71726 17.2966 -8.94964
266 1 9.43453 3.14485 15.7242 -8.94963
267 1 11.0069 4.71726 17.2966 -8.94964
268 1 12.5794 3.14484 15.7242 -8.94963
269 1 14.1518 4.71727 17.2966 -8.94966
270 1 15.7242 3.14484 15.7242 -8.94963
271 1 17.2966 4.71726 17.2966 -8.94963
272 1 18.8691 3.14484 15.7242 -8.94963
273 1 20.4415 4.71726 17.2966 -8.94963
274 1 22.0139 6.28969 15.7242 -8.94963
275 1 1.57242 7.86211 17.2966 -8.94964
276 1 3.14484 6.28968 15.7242 -8.9496
277 1 4.71726 7.86211 17.2966 -8.94965
278 1 6.28971 6.28972 15.7242 -8.94989
279 1 7.8621 7.8621 17.2966 -8.94941
280 1 9.43453 6.28973 15.7242 -8.95004
281 1 11.007 7.8621 17.2966 -8.94941
282 1 12.5793 6.28973 15.7242 -8.95005
283 1 14.1518 7.8621 17.2967 -8.94964
284 1 15.7242 6.28968 15.7242 -8.94949
285 1 17.2966 7.86211 17.2966 -8.94964
286 1 18.8691 6.28969 15.7242 -8.94963
287 1 20.4415 7.86211 17.2966 -8.94963
288 1 22.0139 9.43453 15.7242 -8.94963
289 1 3.14485 9.43453 15.7242 -8.94967
290 1 6.2897 9.43454 15.7243 -8.95026
291 1 9.43444 9.43443 15.7246 -8.94959
292 1 12.5795 9.43444 15.7245 -8.95065
293 1 15.7242 9.43453 15.7242 -8.94978
294 1 18.8691 9.43453 15.7242 -8.94963
295 1 22.0139 -3.12936e-16 18.8691 -8.94963
296 1 1.57242 1.57242 20.4415 -8.94963
297 1 3.14484 6.98557e-17 18.8691 -8.94963
298 1 4.71726 1.57242 20.4415 -8.94963
299 1 6.28969 4.5474e-16 18.8691 -8.94963
300 1 7.86211 1.57242 20.4415 -8.94963
301 1 9.43453 -1.53595e-16 18.8691 -8.94963
302 1 11.007 1.57242 20.4415 -8.94963
303 1 12.5794 7.34276e-16 18.8691 -8.94963
304 1 14.1518 1.57242 20.4415 -8.94963
305 1 15.7242 3.79604e-16 18.8691 -8.94963
306 1 17.2966 1.57242 20.4415 -8.94963
307 1 18.8691 1.36368e-19 18.8691 -8.94963
308 1 20.4415 1.57242 20.4415 -8.94963
309 1 9.7405e-10 3.14484 18.8691 -8.94963
310 1 1.57242 4.71726 20.4415 -8.94963
311 1 3.14484 3.14484 18.8691 -8.94963
312 1 4.71726 4.71726 20.4415 -8.94963
313 1 6.28969 3.14484 18.8691 -8.94963
314 1 7.86211 4.71726 20.4415 -8.94963
315 1 9.43453 3.14484 18.8691 -8.94963
316 1 11.007 4.71726 20.4415 -8.94963
317 1 12.5794 3.14484 18.8691 -8.94963
318 1 14.1518 4.71726 20.4415 -8.94963
319 1 15.7242 3.14484 18.8691 -8.94963
320 1 17.2966 4.71726 20.4415 -8.94963
321 1 18.8691 3.14484 18.8691 -8.94963
322 1 20.4415 4.71726 20.4415 -8.94963
323 1 22.0139 6.28969 18.8691 -8.94963
324 1 1.57242 7.86211 20.4415 -8.94963
325 1 3.14484 6.28969 18.8691 -8.94963
326 1 4.71726 7.86211 20.4415 -8.94963
327 1 6.28969 6.28969 18.8691 -8.94962
328 1 7.86211 7.86211 20.4415 -8.94963
329 1 9.43453 6.28969 18.8691 -8.94963
330 1 11.007 7.86211 20.4415 -8.94963
331 1 12.5794 6.28969 18.8691 -8.94963
332 1 14.1518 7.86211 20.4415 -8.94964
333 1 15.7242 6.28969 18.8691 -8.94963
334 1 17.2966 7.86211 20.4415 -8.94963
335 1 18.8691 6.28969 18.8691 -8.94963
336 1 20.4415 7.86211 20.4415 -8.94963
337 1 22.0139 9.43453 18.8691 -8.94963
338 1 3.14484 9.43453 18.8691 -8.94963
339 1 6.28969 9.43453 18.8691 -8.94965
45 1 6.28969 9.43453 22.0139 -8.94964
5 1 6.28969 -6.79083e-17 22.0139 -8.94963
9 1 12.5794 -1.10348e-16 22.0139 -8.94963
39 1 15.7242 6.28969 22.0139 -8.94963
15 1 22.0139 3.14484 22.0139 -8.94963
17 1 3.14484 3.14484 22.0139 -8.94963
33 1 6.28969 6.28969 22.0139 -8.94963
31 1 3.14484 6.28969 22.0139 -8.94963
27 1 18.8691 3.14484 22.0139 -8.94963
29 1 3.58319e-11 6.28969 22.0139 -8.94963
1 1 -2.38527e-11 1.806e-16 22.0139 -8.94963
13 1 18.8691 6.99701e-16 22.0139 -8.94963
21 1 9.43453 3.14484 22.0139 -8.94963
23 1 12.5794 3.14484 22.0139 -8.94963
43 1 22.0139 9.43453 22.0139 -8.94963
49 1 18.8691 9.43453 22.0139 -8.94963
344 1 1.57242 11.007 1.57242 -8.94963
345 1 4.71726 11.007 1.57242 -8.94963
346 1 7.86211 11.007 1.57242 -8.94967
347 1 11.0069 11.007 1.57226 -8.95083
348 1 14.1518 11.007 1.57242 -8.94963
349 1 17.2966 11.007 1.57242 -8.94964
350 1 20.4415 11.007 1.57242 -8.94963
538 1 17.2966 20.4415 11.007 -8.94963
352 1 1.57242 14.1518 1.57242 -8.94963
353 1 3.14484 12.5794 1.78154e-08 -8.94963
354 1 4.71726 14.1518 1.57242 -8.94964
688 3 10.2208 11.007 9.44017 3.20401
356 1 7.8621 14.1518 1.57241 -8.94963
511 1 18.8691 18.8691 9.43453 -8.94963
358 1 11.0069 14.1518 1.57242 -8.94964
510 1 15.7242 18.8691 9.43453 -8.94962
360 1 14.1518 14.1518 1.57241 -8.94962
361 1 15.7242 12.5794 4.27131e-07 -8.94963
362 1 17.2966 14.1518 1.57242 -8.94964
532 1 20.4415 17.2966 11.007 -8.94963
364 1 20.4415 14.1518 1.57242 -8.94963
509 1 12.5794 18.8691 9.43453 -8.94969
366 1 1.57242 17.2966 1.57242 -8.94963
508 1 9.43453 18.8692 9.43453 -8.9509
368 1 4.71726 17.2966 1.57242 -8.94963
507 1 6.28969 18.8691 9.43453 -8.94964
370 1 7.86211 17.2966 1.57242 -8.94964
371 1 9.43453 15.7242 2.75261e-07 -8.94963
372 1 11.007 17.2966 1.57242 -8.94963
373 1 12.5794 15.7242 4.62036e-07 -8.94963
374 1 14.1518 17.2966 1.57242 -8.94964
506 1 3.14484 18.8691 9.43453 -8.94963
376 1 17.2966 17.2966 1.57242 -8.94963
505 1 22.0139 18.8691 9.43453 -8.94963
378 1 20.4415 17.2966 1.57242 -8.94963
504 1 18.8691 15.7242 9.43453 -8.94963
380 1 1.57242 20.4415 1.57242 -8.94963
503 1 15.7242 15.7242 9.43453 -8.94967
382 1 4.71726 20.4415 1.57242 -8.94963
502 1 12.5793 15.7243 9.43453 -8.95166
384 1 7.86211 20.4415 1.57242 -8.94963
531 1 17.2966 17.2966 11.007 -8.94965
386 1 11.007 20.4415 1.57242 -8.94963
687 2 9.43606 11.007 11.0024 1.04753
388 1 14.1518 20.4415 1.57242 -8.94963
501 1 9.43443 15.729 9.43453 -8.97146
390 1 17.2966 20.4415 1.57242 -8.94963
500 1 6.2897 15.7243 9.43453 -8.95206
392 1 20.4415 20.4415 1.57242 -8.94963
393 1 1.57242 11.007 4.71726 -8.94963
394 1 4.71727 11.007 4.71727 -8.94964
395 1 7.86216 11.007 4.71721 -8.95095
396 1 11.0071 11.007 4.71266 -8.97106
397 1 14.1518 11.007 4.71726 -8.95146
398 1 17.2966 11.007 4.71726 -8.94962
399 1 20.4415 11.007 4.71726 -8.94963
400 1 2.02165e-08 12.5794 3.14484 -8.94963
401 1 1.57242 14.1518 4.71726 -8.94964
402 1 3.14484 12.5794 3.14484 -8.94964
403 1 4.71726 14.1518 4.71726 -8.94972
404 1 6.28968 12.5794 3.14484 -8.94971
405 1 7.86203 14.1519 4.71707 -8.95002
406 1 9.43444 12.5795 3.14471 -8.94919
407 1 11.0069 14.1517 4.71728 -8.95102
408 1 12.5795 12.5795 3.14461 -8.95005
409 1 14.152 14.152 4.71705 -8.94744
410 1 15.7242 12.5794 3.14485 -8.94977
411 1 17.2966 14.1518 4.71726 -8.94965
412 1 18.8691 12.5794 3.14484 -8.94963
413 1 20.4415 14.1518 4.71726 -8.94963
414 1 22.0139 15.7242 3.14484 -8.94963
415 1 1.57242 17.2966 4.71726 -8.94963
416 1 3.14484 15.7242 3.14484 -8.94964
417 1 4.71726 17.2966 4.71726 -8.94956
418 1 6.28968 15.7242 3.14483 -8.94963
419 1 7.86211 17.2966 4.71727 -8.9498
420 1 9.43453 15.7242 3.14485 -8.94965
421 1 11.0069 17.2966 4.71726 -8.94965
422 1 12.5794 15.7242 3.14485 -8.94979
423 1 14.1518 17.2966 4.71726 -8.94966
424 1 15.7242 15.7242 3.14484 -8.94954
425 1 17.2966 17.2966 4.71726 -8.94964
426 1 18.8691 15.7242 3.14484 -8.94963
427 1 20.4415 17.2966 4.71726 -8.94963
428 1 22.0139 18.8691 3.14484 -8.94963
429 1 1.57242 20.4415 4.71726 -8.94963
430 1 3.14484 18.8691 3.14484 -8.94963
431 1 4.71726 20.4415 4.71726 -8.94963
432 1 6.28969 18.8691 3.14484 -8.94964
433 1 7.86211 20.4415 4.71726 -8.94964
434 1 9.43453 18.8691 3.14484 -8.94963
435 1 11.007 20.4415 4.71726 -8.94963
436 1 12.5794 18.8691 3.14484 -8.94963
437 1 14.1518 20.4415 4.71726 -8.94963
438 1 15.7242 18.8691 3.14484 -8.94963
439 1 17.2966 20.4415 4.71726 -8.94963
440 1 18.8691 18.8691 3.14484 -8.94963
441 1 20.4415 20.4415 4.71726 -8.94963
442 1 1.57241 11.007 7.86211 -8.94967
443 1 4.71704 11.007 7.862 -8.94985
444 1 7.85924 11.007 7.85949 -8.97253
445 1 11.0627 11.007 7.74308 -8.08272
446 1 14.1544 11.007 7.86174 -8.96147
447 1 17.2967 11.007 7.86211 -8.95028
448 1 20.4415 11.007 7.86211 -8.94966
449 1 22.0139 12.5794 6.28969 -8.94963
450 1 1.57241 14.1518 7.86211 -8.94967
451 1 3.14484 12.5794 6.28968 -8.94967
452 1 4.71701 14.1519 7.86198 -8.94969
453 1 6.28951 12.5795 6.28952 -8.94972
454 1 7.85756 14.1557 7.85796 -8.90539
455 1 9.43293 12.5811 6.28836 -8.9372
456 1 11.0083 14.1522 7.86101 -8.93752
457 1 12.5841 12.5841 6.28514 -8.90668
458 1 14.152 14.152 7.86195 -8.94845
459 1 15.7244 12.5794 6.28964 -8.95046
460 1 17.2966 14.1518 7.8621 -8.94964
461 1 18.8691 12.5794 6.28969 -8.94967
462 1 20.4415 14.1518 7.86211 -8.94964
463 1 22.0139 15.7242 6.28969 -8.94963
464 1 1.57242 17.2966 7.86211 -8.94964
465 1 3.14483 15.7242 6.28968 -8.9496
466 1 4.71727 17.2966 7.86211 -8.94979
467 1 6.28951 15.7244 6.28951 -8.94767
468 1 7.862 17.2969 7.862 -8.94984
469 1 9.43458 15.7242 6.28977 -8.95169
470 1 11.007 17.2967 7.86201 -8.94887
471 1 12.5794 15.7244 6.28965 -8.9505
472 1 14.1518 17.2966 7.86211 -8.94971
473 1 15.7242 15.7242 6.28968 -8.94967
474 1 17.2966 17.2966 7.86211 -8.94964
475 1 18.8691 15.7242 6.28969 -8.94963
476 1 20.4415 17.2966 7.86211 -8.94963
477 1 2.22356e-08 18.8691 6.28969 -8.94963
478 1 1.57242 20.4415 7.86211 -8.94963
479 1 3.14484 18.8691 6.28969 -8.94964
480 1 4.71726 20.4415 7.86211 -8.94963
481 1 6.28968 18.8691 6.28968 -8.94961
482 1 7.86211 20.4415 7.86211 -8.94966
483 1 9.43453 18.8691 6.28969 -8.94964
484 1 11.007 20.4415 7.8621 -8.94963
485 1 12.5794 18.8691 6.28968 -8.94963
486 1 14.1518 20.4415 7.86211 -8.94964
487 1 15.7242 18.8691 6.28969 -8.94963
488 1 17.2966 20.4415 7.86211 -8.94963
489 1 18.8691 18.8691 6.28969 -8.94963
490 1 20.4415 20.4415 7.86211 -8.94963
491 1 22.0139 12.5794 9.43453 -8.94967
492 1 3.14469 12.5794 9.43451 -8.95046
493 1 6.28557 12.5811 9.43311 -9.00415
494 1 9.37781 12.7014 9.43238 -8.10998
495 1 12.5839 12.5836 9.43325 -8.9547
496 1 15.7245 12.5795 9.4345 -8.94991
497 1 18.8691 12.5794 9.43453 -8.94968
498 1 22.0139 15.7242 9.43453 -8.94963
499 1 3.14484 15.7242 9.43453 -8.94965
526 1 1.57242 17.2966 11.007 -8.94964
527 1 4.71727 17.2966 11.0069 -8.94976
534 1 4.71726 20.4415 11.007 -8.94964
389 1 15.7242 18.8691 1.51915e-08 -8.94963
383 1 6.28969 18.8691 2.22586e-08 -8.94963
377 1 18.8691 15.7242 1.58133e-08 -8.94963
512 1 1.57237 11.007 11.007 -8.95001
513 1 4.71568 11.007 11.007 -8.96135
514 1 7.81682 11.007 11.0096 -9.27587
515 1 11.1045 11.007 11.1246 -8.35526
516 1 14.1555 11.007 11.0073 -8.96919
517 1 17.2968 11.007 11.007 -8.95055
518 1 20.4415 11.007 11.007 -8.94967
519 1 1.57241 14.1518 11.007 -8.94967
520 1 4.71707 14.1519 11.007 -8.95055
521 1 7.85771 14.156 11.0117 -8.96694
522 1 11.0082 14.1525 11.0087 -8.99795
523 1 14.152 14.152 11.007 -8.94932
524 1 17.2966 14.1518 11.007 -8.94965
525 1 20.4415 14.1518 11.007 -8.94964
686 1 20.4415 20.4415 20.4415 -8.94963
391 1 18.8691 18.8691 22.0139 -8.94963
528 1 7.862 17.2969 11.007 -8.94986
529 1 11.007 17.2968 11.007 -8.94891
530 1 14.1518 17.2966 11.0069 -8.9497
685 1 18.8691 18.8691 18.8691 -8.94963
684 1 17.2966 20.4415 20.4415 -8.94963
533 1 1.57242 20.4415 11.007 -8.94963
381 1 3.14484 18.8691 22.0139 -8.94963
535 1 7.8621 20.4415 11.007 -8.94967
536 1 11.007 20.4415 11.007 -8.94964
537 1 14.1518 20.4415 11.007 -8.94964
683 1 15.7242 18.8691 18.8691 -8.94963
539 1 20.4415 20.4415 11.007 -8.94963
540 1 1.57242 11.007 14.1518 -8.94963
541 1 4.71727 11.007 14.1518 -8.94978
542 1 7.86251 11.007 14.1515 -9.01212
543 1 11.0067 11.007 14.1561 -9.03198
544 1 14.1519 11.007 14.1519 -8.95158
545 1 17.2966 11.007 14.1518 -8.94964
546 1 20.4415 11.007 14.1518 -8.94963
547 1 22.0139 12.5794 12.5794 -8.94965
548 1 1.57242 14.1518 14.1518 -8.94963
549 1 3.14476 12.5794 12.5794 -8.94983
550 1 4.7172 14.1519 14.1519 -8.94895
551 1 6.28802 12.5809 12.5809 -8.99125
552 1 7.86228 14.1512 14.1514 -8.9511
553 1 9.43314 12.5833 12.5826 -9.06836
554 1 11.0067 14.1511 14.1512 -8.95202
555 1 12.5858 12.5858 12.5855 -8.9417
556 1 14.1521 14.1521 14.1521 -8.9465
557 1 15.7245 12.5795 12.5794 -8.95069
558 1 17.2966 14.1518 14.1518 -8.94965
559 1 18.8691 12.5794 12.5794 -8.94969
560 1 20.4415 14.1518 14.1518 -8.94963
561 1 22.0139 15.7242 12.5794 -8.94963
562 1 1.57242 17.2966 14.1518 -8.94964
563 1 3.14484 15.7242 12.5794 -8.94967
564 1 4.71726 17.2966 14.1518 -8.94955
565 1 6.28949 15.7245 12.5796 -8.94799
566 1 7.86211 17.2966 14.1518 -8.94956
567 1 9.43458 15.7245 12.5793 -8.95176
568 1 11.007 17.2966 14.1518 -8.94942
569 1 12.5794 15.7245 12.5794 -8.95086
570 1 14.1518 17.2966 14.1518 -8.94965
571 1 15.7242 15.7242 12.5794 -8.94973
572 1 17.2966 17.2966 14.1518 -8.94964
573 1 18.8691 15.7242 12.5794 -8.94963
574 1 20.4415 17.2966 14.1518 -8.94963
575 1 22.0139 18.8691 12.5794 -8.94963
576 1 1.57242 20.4415 14.1518 -8.94963
577 1 3.14484 18.8691 12.5794 -8.94964
578 1 4.71726 20.4415 14.1518 -8.94963
579 1 6.28968 18.8691 12.5794 -8.94964
580 1 7.86211 20.4415 14.1518 -8.94963
581 1 9.43453 18.8691 12.5794 -8.94974
582 1 11.007 20.4415 14.1518 -8.94963
583 1 12.5794 18.8691 12.5794 -8.94966
584 1 14.1518 20.4415 14.1518 -8.94963
585 1 15.7242 18.8691 12.5794 -8.94963
586 1 17.2966 20.4415 14.1518 -8.94963
587 1 18.8691 18.8691 12.5794 -8.94963
588 1 20.4415 20.4415 14.1518 -8.94963
589 1 1.57242 11.007 17.2966 -8.94964
590 1 4.71726 11.007 17.2966 -8.94962
591 1 7.8621 11.007 17.2966 -8.94948
592 1 11.007 11.007 17.2968 -8.95064
593 1 14.1518 11.007 17.2966 -8.94964
594 1 17.2966 11.007 17.2966 -8.94964
595 1 20.4415 11.007 17.2966 -8.94963
596 1 22.0139 12.5794 15.7242 -8.94963
597 1 1.57242 14.1518 17.2966 -8.94964
598 1 3.14485 12.5794 15.7242 -8.94967
599 1 4.71726 14.1518 17.2966 -8.94965
600 1 6.2897 12.5794 15.7243 -8.95026
601 1 7.8621 14.1518 17.2966 -8.94941
602 1 9.43444 12.5795 15.7246 -8.94959
603 1 11.007 14.1518 17.2966 -8.94941
604 1 12.5795 12.5795 15.7245 -8.95065
605 1 14.1518 14.1518 17.2967 -8.94964
606 1 15.7242 12.5794 15.7242 -8.94978
607 1 17.2966 14.1518 17.2966 -8.94964
608 1 18.8691 12.5794 15.7242 -8.94963
609 1 20.4415 14.1518 17.2966 -8.94963
610 1 22.0139 15.7242 15.7242 -8.94963
611 1 1.57242 17.2966 17.2966 -8.94963
612 1 3.14484 15.7242 15.7242 -8.9496
613 1 4.71727 17.2966 17.2966 -8.94965
614 1 6.28971 15.7242 15.7242 -8.94989
615 1 7.86211 17.2966 17.2966 -8.94964
616 1 9.43453 15.7242 15.7242 -8.95004
617 1 11.0069 17.2966 17.2966 -8.94964
618 1 12.5793 15.7242 15.7242 -8.95005
619 1 14.1518 17.2966 17.2966 -8.94966
620 1 15.7242 15.7242 15.7242 -8.94949
621 1 17.2966 17.2966 17.2966 -8.94963
622 1 18.8691 15.7242 15.7242 -8.94963
623 1 20.4415 17.2966 17.2966 -8.94963
624 1 22.0139 18.8691 15.7242 -8.94963
625 1 1.57242 20.4415 17.2966 -8.94963
626 1 3.14484 18.8691 15.7242 -8.94963
627 1 4.71726 20.4415 17.2966 -8.94963
628 1 6.28969 18.8691 15.7242 -8.94963
629 1 7.86211 20.4415 17.2966 -8.94963
630 1 9.43453 18.8691 15.7242 -8.94963
631 1 11.007 20.4415 17.2966 -8.94963
632 1 12.5794 18.8691 15.7242 -8.94963
633 1 14.1518 20.4415 17.2966 -8.94963
634 1 15.7242 18.8691 15.7242 -8.94963
635 1 17.2966 20.4415 17.2966 -8.94963
636 1 18.8691 18.8691 15.7242 -8.94963
637 1 20.4415 20.4415 17.2966 -8.94963
638 1 1.57242 11.007 20.4415 -8.94963
639 1 4.71726 11.007 20.4415 -8.94963
640 1 7.86211 11.007 20.4415 -8.94963
641 1 11.007 11.007 20.4415 -8.94971
642 1 14.1518 11.007 20.4415 -8.94963
643 1 17.2966 11.007 20.4415 -8.94963
644 1 20.4415 11.007 20.4415 -8.94963
645 1 22.0139 12.5794 18.8691 -8.94963
646 1 1.57242 14.1518 20.4415 -8.94963
647 1 3.14484 12.5794 18.8691 -8.94963
648 1 4.71726 14.1518 20.4415 -8.94963
649 1 6.28969 12.5794 18.8691 -8.94965
650 1 7.86211 14.1518 20.4415 -8.94963
651 1 9.43453 12.5794 18.8691 -8.94974
652 1 11.007 14.1518 20.4415 -8.94963
653 1 12.5794 12.5794 18.8691 -8.94968
654 1 14.1518 14.1518 20.4415 -8.94964
655 1 15.7242 12.5794 18.8691 -8.94963
656 1 17.2966 14.1518 20.4415 -8.94963
657 1 18.8691 12.5794 18.8691 -8.94963
658 1 20.4415 14.1518 20.4415 -8.94963
659 1 22.0139 15.7242 18.8691 -8.94963
660 1 1.57242 17.2966 20.4415 -8.94963
661 1 3.14484 15.7242 18.8691 -8.94963
662 1 4.71726 17.2966 20.4415 -8.94963
663 1 6.28969 15.7242 18.8691 -8.94962
664 1 7.86211 17.2966 20.4415 -8.94963
665 1 9.43453 15.7242 18.8691 -8.94963
666 1 11.007 17.2966 20.4415 -8.94963
667 1 12.5794 15.7242 18.8691 -8.94963
668 1 14.1518 17.2966 20.4415 -8.94963
669 1 15.7242 15.7242 18.8691 -8.94963
670 1 17.2966 17.2966 20.4415 -8.94963
671 1 18.8691 15.7242 18.8691 -8.94963
672 1 20.4415 17.2966 20.4415 -8.94963
673 1 9.7405e-10 18.8691 18.8691 -8.94963
674 1 1.57242 20.4415 20.4415 -8.94963
675 1 3.14484 18.8691 18.8691 -8.94963
676 1 4.71726 20.4415 20.4415 -8.94963
677 1 6.28969 18.8691 18.8691 -8.94963
678 1 7.86211 20.4415 20.4415 -8.94963
679 1 9.43453 18.8691 18.8691 -8.94963
680 1 11.007 20.4415 20.4415 -8.94963
681 1 12.5794 18.8691 18.8691 -8.94963
682 1 14.1518 20.4415 20.4415 -8.94963
355 1 6.28969 12.5794 22.0139 -8.94964
357 1 9.43453 12.5794 22.0139 -8.94965
359 1 12.5794 12.5794 22.0139 -8.94967
365 1 3.58318e-11 15.7242 22.0139 -8.94963
367 1 3.14484 15.7242 22.0139 -8.94963
369 1 6.28969 15.7242 22.0139 -8.94963
375 1 15.7242 15.7242 22.0139 -8.94963
379 1 22.0139 18.8691 22.0139 -8.94963
351 1 22.0139 12.5794 22.0139 -8.94963
363 1 18.8691 12.5794 22.0139 -8.94963
385 1 9.43453 18.8691 22.0139 -8.94963
387 1 12.5794 18.8691 22.0139 -8.94963
