ITEM: TIMESTEP
55
ITEM: NUMBER OF ATOMS
688
ITEM: BOX BOUNDS pp pp pp
0.0000000000000000e+00 2.2013900999999997e+01
0.0000000000000000e+00 2.2013900999999997e+01
0.0000000000000000e+00 2.2013900999999997e+01
ITEM: ATOMS id type x y z c_pot
189 1 20.4415 4.71726 11.007 -8.94963
2 1 1.57242 1.57242 1.57242 -8.94962
175 1 18.8693 9.43442 9.43452 -8.94958
4 1 4.71727 1.57242 1.57242 -8.94966
174 1 15.7256 9.43379 9.43447 -8.94736
6 1 7.86211 1.57242 1.57242 -8.94963
7 1 9.43453 3.48487e-16 3.71852e-09 -8.94963
8 1 11.007 1.57242 1.57242 -8.94964
173 1 12.5798 9.4304 9.42772 -8.9361
10 1 14.1518 1.57242 1.57242 -8.94963
172 1 9.3478 9.23379 9.43377 -8.16173
12 1 17.2966 1.57242 1.57242 -8.94963
188 1 17.2967 4.71723 11.007 -8.94963
14 1 20.4415 1.57242 1.57242 -8.94963
171 1 6.27152 9.42506 9.42767 -9.00173
16 1 1.57242 4.71726 1.57242 -8.94965
170 1 3.14228 9.4341 9.43397 -8.9522
18 1 4.71723 4.71723 1.57236 -8.94959
169 1 22.0137 9.43449 9.43449 -8.95009
20 1 7.86211 4.71724 1.5724 -8.9496
183 1 1.57239 4.71724 11.007 -8.94962
22 1 11.007 4.71724 1.57239 -8.94965
181 1 17.2966 1.57242 11.007 -8.94963
24 1 14.1518 4.71726 1.57242 -8.94976
168 1 18.8691 6.28964 9.43452 -8.94957
26 1 17.2967 4.71722 1.57238 -8.94943
167 1 15.7245 6.28927 9.43448 -8.94828
28 1 20.4415 4.71726 1.57242 -8.94963
166 1 12.5789 6.28918 9.43451 -8.9515
30 1 1.57242 7.86211 1.57242 -8.94963
165 1 9.43291 6.28322 9.43468 -8.99265
32 1 4.71725 7.86212 1.5724 -8.94968
164 1 6.28725 6.28655 9.43456 -8.94938
34 1 7.86199 7.86198 1.57205 -8.95024
35 1 9.43452 6.28966 -3.25672e-05 -8.9496
36 1 11.0069 7.86197 1.57213 -8.94956
37 1 12.5794 6.28967 -1.73977e-05 -8.9496
38 1 14.152 7.86188 1.57193 -8.95002
163 1 3.14442 6.28942 9.43453 -8.94942
40 1 17.2967 7.86211 1.57241 -8.94972
162 1 22.0139 6.28966 9.43453 -8.94965
42 1 20.4415 7.86211 1.57242 -8.94963
158 1 9.43463 3.1436 9.43453 -8.9509
44 1 3.14484 9.43453 -2.70621e-06 -8.94963
161 1 18.8691 3.14484 9.43453 -8.94965
160 1 15.7243 3.14478 9.43452 -8.94959
159 1 12.5794 3.14471 9.43452 -8.94947
48 1 15.7242 9.43453 -2.73554e-05 -8.94959
157 1 6.28948 3.14438 9.43453 -8.94955
50 1 22.0139 6.88701e-16 3.14484 -8.94964
51 1 1.57242 1.57242 4.71726 -8.94965
52 1 3.14484 -6.32061e-16 3.14484 -8.94961
53 1 4.71723 1.57237 4.71723 -8.94961
54 1 6.28969 2.06299e-16 3.14484 -8.94964
55 1 7.86212 1.57241 4.71725 -8.94961
56 1 9.43453 1.56541e-15 3.14484 -8.94964
57 1 11.007 1.57239 4.71724 -8.94962
58 1 12.5794 1.6975e-16 3.14484 -8.94963
59 1 14.1518 1.57238 4.71724 -8.94969
60 1 15.7242 1.9234e-15 3.14484 -8.94964
61 1 17.2966 1.57242 4.71726 -8.94964
62 1 18.8691 1.6717e-15 3.14484 -8.94963
63 1 20.4415 1.57242 4.71726 -8.94963
64 1 22.0139 3.14484 3.14484 -8.94962
65 1 1.57236 4.71722 4.71722 -8.94955
66 1 3.14481 3.14481 3.14481 -8.94945
67 1 4.71685 4.71684 4.71684 -8.94791
68 1 6.28969 3.14484 3.14484 -8.94978
69 1 7.86216 4.71711 4.71714 -8.95009
70 1 9.43452 3.14481 3.14482 -8.94964
71 1 11.007 4.71698 4.71701 -8.94918
72 1 12.5794 3.14482 3.14482 -8.94959
73 1 14.152 4.71677 4.71704 -8.94988
74 1 15.7242 3.14479 3.14481 -8.94961
75 1 17.2967 4.71724 4.71726 -8.94971
76 1 18.8691 3.14484 3.14484 -8.94965
77 1 20.4415 4.71726 4.71726 -8.94963
78 1 22.0139 6.28968 3.14484 -8.94965
79 1 1.5724 7.86211 4.71724 -8.94965
80 1 3.14482 6.28968 3.14482 -8.94979
81 1 4.71707 7.86211 4.71703 -8.95052
82 1 6.28942 6.28942 3.14431 -8.9497
83 1 7.86066 7.86068 4.71386 -8.95266
84 1 9.43452 6.28943 3.14457 -8.9491
85 1 11.0064 7.86111 4.7153 -8.95042
86 1 12.5793 6.28955 3.14469 -8.94991
87 1 14.1556 7.85827 4.71346 -8.93766
88 1 15.7247 6.28924 3.14439 -8.94789
89 1 17.2971 7.86189 4.71705 -8.94998
90 1 18.8691 6.28966 3.14481 -8.94963
91 1 20.4415 7.8621 4.71725 -8.94971
92 1 1.02295e-08 9.43453 3.14484 -8.94963
93 1 3.14481 9.43452 3.14481 -8.94958
94 1 6.28956 9.43466 3.14463 -8.94986
95 1 9.43402 9.43407 3.14355 -8.94956
96 1 12.5802 9.43375 3.1418 -8.95429
97 1 15.7244 9.43446 3.14462 -8.94952
98 1 18.8691 9.43453 3.14482 -8.9496
99 1 22.0139 1.84864e-15 6.28969 -8.94963
100 1 1.57242 1.57242 7.86211 -8.94964
101 1 3.14484 3.39838e-16 6.28969 -8.94964
102 1 4.71724 1.57239 7.8621 -8.94961
103 1 6.28966 5.54632e-16 6.28966 -8.94977
104 1 7.86205 1.57214 7.86205 -8.95029
105 1 9.43454 9.58688e-16 6.28967 -8.94967
106 1 11.007 1.57227 7.86205 -8.94969
107 1 12.5794 8.7843e-16 6.28966 -8.94973
108 1 14.1518 1.5724 7.86211 -8.94966
109 1 15.7242 1.71953e-15 6.28969 -8.94964
110 1 17.2966 1.57242 7.86211 -8.94963
111 1 18.8691 1.32137e-15 6.28969 -8.94963
112 1 20.4415 1.57242 7.86211 -8.94963
113 1 -3.00543e-07 3.14484 6.28969 -8.94964
114 1 1.57239 4.71724 7.86211 -8.94963
115 1 3.14482 3.14482 6.28968 -8.94973
116 1 4.71701 4.71693 7.86201 -8.94978
117 1 6.28947 3.14437 6.28945 -8.94997
118 1 7.86129 4.71421 7.86129 -8.95418
119 1 9.43462 3.14456 6.28956 -8.94956
120 1 11.0074 4.71617 7.86163 -8.94872
121 1 12.5795 3.1445 6.28958 -8.95018
122 1 14.1519 4.71701 7.86221 -8.94991
123 1 15.7242 3.14482 6.28969 -8.94967
124 1 17.2967 4.71723 7.8621 -8.9496
125 1 18.8691 3.14484 6.28969 -8.94964
126 1 20.4415 4.71726 7.86211 -8.94963
127 1 22.0138 6.28966 6.28966 -8.94969
128 1 1.57195 7.86196 7.86197 -8.95026
129 1 3.14424 6.28933 6.28933 -8.94939
130 1 4.71292 7.86006 7.86012 -8.95076
131 1 6.28596 6.28595 6.28587 -8.93679
132 1 7.83689 7.83923 7.83918 -8.86473
133 1 9.43517 6.28776 6.28885 -8.95141
134 1 11.0138 7.85936 7.85338 -8.92199
135 1 12.5805 6.28661 6.28857 -8.9533
136 1 14.1542 7.86041 7.86214 -8.94733
137 1 15.7245 6.28944 6.28961 -8.94973
138 1 17.297 7.8619 7.86211 -8.94968
139 1 18.8691 6.28966 6.28968 -8.94961
140 1 20.4415 7.86208 7.86209 -8.94974
141 1 22.0139 9.43453 6.28966 -8.94969
142 1 3.14451 9.43458 6.28946 -8.94956
143 1 6.28812 9.43562 6.28831 -8.9524
144 1 9.42681 9.42456 6.28448 -8.92096
145 1 12.6034 9.4126 6.26691 -8.87419
146 1 15.7273 9.43372 6.28881 -8.95415
147 1 18.8694 9.43449 6.28964 -8.95026
148 1 -1.1003e-08 1.75992e-15 9.43453 -8.94963
149 1 3.14484 1.41342e-15 9.43453 -8.94964
150 1 6.28966 1.79596e-15 9.43453 -8.94971
151 1 9.43455 1.08877e-15 9.43453 -8.95014
152 1 12.5794 1.10817e-15 9.43453 -8.94963
153 1 15.7242 2.22869e-15 9.43453 -8.94965
154 1 18.8691 2.22061e-15 9.43453 -8.94963
155 1 22.0139 3.14484 9.43453 -8.94964
156 1 3.14482 3.14482 9.43453 -8.94968
177 1 4.71724 1.57239 11.007 -8.94961
184 1 4.71698 4.71695 11.007 -8.94944
3 1 3.14484 -8.58317e-16 1.12092e-07 -8.94964
11 1 15.7242 1.58491e-15 2.20661e-07 -8.94963
41 1 18.8691 6.28969 -1.03921e-08 -8.94965
19 1 6.28969 3.14484 2.78481e-07 -8.94964
25 1 15.7242 3.14484 1.58187e-07 -8.94966
176 1 1.57242 1.57242 11.007 -8.94964
47 1 12.5794 9.43447 22.0136 -8.9503
178 1 7.86205 1.57213 11.007 -8.95027
179 1 11.007 1.57225 11.007 -8.94969
180 1 14.1518 1.57239 11.0069 -8.94967
343 1 18.8691 9.43453 18.8691 -8.94965
182 1 20.4415 1.57242 11.007 -8.94963
342 1 15.7242 9.43452 18.8691 -8.94957
46 1 9.43447 9.43447 22.0137 -8.94976
185 1 7.86127 4.71421 11.0077 -8.95376
186 1 11.0075 4.71608 11.0074 -8.94846
187 1 14.152 4.71697 11.0068 -8.94971
341 1 12.5794 9.43447 18.8694 -8.95054
340 1 9.43446 9.43447 18.8693 -8.94986
190 1 1.57202 7.86201 11.007 -8.95019
191 1 4.71348 7.86075 11.0078 -8.95341
192 1 7.83662 7.84018 11.0304 -8.92668
193 1 11.0152 7.85937 11.0169 -8.98289
194 1 14.1542 7.86046 11.0057 -8.94925
195 1 17.2971 7.86186 11.0069 -8.94943
196 1 20.4415 7.86208 11.007 -8.94972
197 1 22.0139 1.08922e-15 12.5794 -8.94963
198 1 1.57242 1.57242 14.1518 -8.94965
199 1 3.14484 5.52139e-16 12.5794 -8.94963
200 1 4.71723 1.57236 14.1518 -8.94965
201 1 6.28966 1.15148e-15 12.5794 -8.9498
202 1 7.86211 1.57241 14.1518 -8.94957
203 1 9.43454 1.57657e-15 12.5794 -8.94971
204 1 11.007 1.57239 14.1518 -8.94959
205 1 12.5794 1.56525e-15 12.5794 -8.94978
206 1 14.1518 1.57236 14.1518 -8.94973
207 1 15.7242 1.69964e-15 12.5794 -8.94964
208 1 17.2966 1.57242 14.1518 -8.94964
209 1 18.8691 1.73729e-15 12.5794 -8.94963
210 1 20.4415 1.57242 14.1518 -8.94963
211 1 22.0139 3.14484 12.5794 -8.94964
212 1 1.57237 4.71723 14.1518 -8.94966
213 1 3.14482 3.14482 12.5794 -8.9497
214 1 4.71679 4.71671 14.1523 -8.94806
215 1 6.28947 3.14432 12.5796 -8.95018
216 1 7.86216 4.71719 14.152 -8.94948
217 1 9.43462 3.14451 12.5795 -8.94973
218 1 11.0069 4.71702 14.1521 -8.9486
219 1 12.5795 3.14441 12.5795 -8.95052
220 1 14.1521 4.71658 14.1521 -8.95009
221 1 15.7242 3.14481 12.5794 -8.94964
222 1 17.2967 4.71725 14.1518 -8.9498
223 1 18.8691 3.14484 12.5794 -8.94964
224 1 20.4415 4.71726 14.1518 -8.94964
225 1 22.0139 6.28967 12.5794 -8.9497
226 1 1.57224 7.86201 14.1519 -8.94955
227 1 3.14435 6.28941 12.5796 -8.95
228 1 4.71613 7.86106 14.153 -8.94663
229 1 6.28587 6.2853 12.5833 -8.93897
230 1 7.86181 7.86218 14.1538 -8.95511
231 1 9.43515 6.28743 12.5801 -8.95003
232 1 11.0051 7.86219 14.1528 -8.95126
233 1 12.5807 6.28535 12.5808 -8.95604
234 1 14.1573 7.85648 14.1573 -8.92955
235 1 15.7245 6.28947 12.5793 -8.95014
236 1 17.2973 7.86182 14.1521 -8.95025
237 1 18.8691 6.28966 12.5794 -8.94959
238 1 20.4415 7.86208 14.1518 -8.94975
239 1 22.0138 9.43449 12.5794 -8.94989
240 1 3.14328 9.43402 12.5801 -8.94978
241 1 6.28046 9.42892 12.5868 -8.97981
242 1 9.4291 9.42946 12.5791 -9.0632
243 1 12.6143 9.40013 12.613 -8.86659
244 1 15.7284 9.4336 12.5803 -8.95716
245 1 18.8694 9.43448 12.5794 -8.95057
246 1 1.4528e-07 1.07958e-15 15.7242 -8.94964
247 1 1.57242 1.57242 17.2966 -8.94961
248 1 3.14484 -1.43514e-15 15.7242 -8.94962
249 1 4.71727 1.57243 17.2966 -8.94965
250 1 6.28969 1.00677e-15 15.7242 -8.94963
251 1 7.86211 1.57242 17.2966 -8.94964
252 1 9.43453 1.62336e-15 15.7242 -8.94962
253 1 11.0069 1.57242 17.2966 -8.94965
254 1 12.5794 1.98296e-15 15.7242 -8.94962
255 1 14.1518 1.57242 17.2966 -8.94963
256 1 15.7242 -7.89329e-17 15.7242 -8.94964
257 1 17.2966 1.57241 17.2966 -8.94962
258 1 18.8691 2.96194e-16 15.7242 -8.94963
259 1 20.4415 1.57242 17.2966 -8.94964
260 1 22.0139 3.14484 15.7242 -8.94963
261 1 1.57241 4.71725 17.2966 -8.94959
262 1 3.1448 3.14479 15.7243 -8.94944
263 1 4.71727 4.71727 17.2967 -8.94973
264 1 6.2897 3.14485 15.7242 -8.94971
265 1 7.86212 4.71725 17.2966 -8.94967
266 1 9.43452 3.14484 15.7242 -8.9496
267 1 11.0069 4.71725 17.2967 -8.94973
268 1 12.5794 3.14483 15.7242 -8.94953
269 1 14.1517 4.71729 17.2966 -8.94991
270 1 15.7243 3.14476 15.7243 -8.94961
271 1 17.2967 4.71721 17.2967 -8.94934
272 1 18.8691 3.14484 15.7242 -8.94966
273 1 20.4415 4.71726 17.2966 -8.94962
274 1 22.0139 6.28967 15.7242 -8.94962
275 1 1.57242 7.86211 17.2966 -8.94967
276 1 3.14472 6.28956 15.7243 -8.94922
277 1 4.71722 7.86208 17.2968 -8.9499
278 1 6.28967 6.28966 15.7245 -8.95036
279 1 7.862 7.86195 17.2969 -8.94975
280 1 9.43448 6.28961 15.7243 -8.94933
281 1 11.0068 7.86192 17.2969 -8.9491
282 1 12.5791 6.28973 15.7242 -8.95062
283 1 14.1521 7.86183 17.2973 -8.95034
284 1 15.7248 6.28904 15.7248 -8.94695
285 1 17.2967 7.8621 17.2967 -8.94973
286 1 18.8691 6.28964 15.7243 -8.94962
287 1 20.4415 7.86211 17.2966 -8.94963
288 1 22.0139 9.43453 15.7242 -8.94962
289 1 3.14481 9.43452 15.7243 -8.94965
290 1 6.28961 9.43466 15.7249 -8.95195
291 1 9.43402 9.43431 15.7256 -8.94839
292 1 12.5802 9.43368 15.7282 -8.95706
293 1 15.7246 9.43441 15.7246 -8.94925
294 1 18.8691 9.43452 15.7242 -8.94957
295 1 22.0139 -7.38332e-16 18.8691 -8.94963
296 1 1.57242 1.57242 20.4415 -8.94963
297 1 3.14484 -6.66098e-16 18.8691 -8.94964
298 1 4.71726 1.57242 20.4415 -8.94963
299 1 6.28969 9.54451e-16 18.8691 -8.94963
300 1 7.86211 1.57242 20.4415 -8.94963
301 1 9.43453 2.3113e-16 18.8691 -8.94964
302 1 11.007 1.57242 20.4415 -8.94963
303 1 12.5794 1.44538e-15 18.8691 -8.94964
304 1 14.1518 1.57242 20.4415 -8.94963
305 1 15.7242 1.02796e-15 18.8691 -8.94963
306 1 17.2966 1.57242 20.4415 -8.94964
307 1 18.8691 1.05625e-15 18.8691 -8.94963
308 1 20.4415 1.57242 20.4415 -8.94963
309 1 7.92997e-08 3.14484 18.8691 -8.94963
310 1 1.57242 4.71726 20.4415 -8.94963
311 1 3.14484 3.14484 18.8691 -8.94965
312 1 4.71726 4.71726 20.4415 -8.94963
313 1 6.28969 3.14484 18.8691 -8.94964
314 1 7.86211 4.71726 20.4415 -8.94963
315 1 9.43453 3.14484 18.8691 -8.94963
316 1 11.007 4.71726 20.4415 -8.94965
317 1 12.5794 3.14484 18.8691 -8.94964
318 1 14.1518 4.71727 20.4415 -8.94963
319 1 15.7242 3.14485 18.8691 -8.94968
320 1 17.2966 4.71726 20.4415 -8.94961
321 1 18.8691 3.14484 18.8691 -8.94961
322 1 20.4415 4.71726 20.4415 -8.94964
323 1 22.0139 6.28969 18.8691 -8.94964
324 1 1.57242 7.86211 20.4415 -8.94963
325 1 3.14484 6.28968 18.8691 -8.94965
326 1 4.71726 7.86211 20.4415 -8.94966
327 1 6.28967 6.28966 18.8691 -8.94963
328 1 7.86208 7.86208 20.4415 -8.94972
329 1 9.43452 6.28967 18.8691 -8.94957
330 1 11.0069 7.86208 20.4415 -8.94965
331 1 12.5794 6.28967 18.8691 -8.94955
332 1 14.1518 7.86208 20.4415 -8.94981
333 1 15.7243 6.28964 18.8691 -8.94964
334 1 17.2966 7.86211 20.4415 -8.94963
335 1 18.8691 6.28969 18.8691 -8.94966
336 1 20.4415 7.86211 20.4415 -8.94963
337 1 22.0139 9.43453 18.8691 -8.94964
338 1 3.14484 9.43453 18.8691 -8.94961
339 1 6.28968 9.43453 18.8691 -8.9498
45 1 6.28967 9.43454 22.0139 -8.94966
5 1 6.28969 -7.7658e-16 22.0139 -8.94963
9 1 12.5794 -6.45811e-16 22.0139 -8.94963
39 1 15.7243 6.28965 22.0138 -8.94963
15 1 22.0139 3.14484 22.0139 -8.94963
17 1 3.14484 3.14484 22.0139 -8.94962
33 1 6.28966 6.28966 22.0139 -8.94969
31 1 3.14484 6.28969 22.0139 -8.94965
27 1 18.8691 3.14484 22.0139 -8.94961
29 1 -1.73504e-07 6.28969 22.0139 -8.94963
1 1 -1.87356e-07 -5.8972e-17 22.0139 -8.94963
13 1 18.8691 1.75099e-15 22.0139 -8.94963
21 1 9.43453 3.14484 22.0139 -8.94964
23 1 12.5794 3.14484 22.0139 -8.94964
43 1 22.0139 9.43453 22.0139 -8.94963
49 1 18.8691 9.43453 22.0139 -8.94964
344 1 1.57242 11.007 1.57242 -8.94965
345 1 4.71723 11.007 1.57236 -8.94963
346 1 7.86204 11.007 1.57231 -8.94929
347 1 11.0069 11.007 1.57118 -8.95081
348 1 14.152 11.007 1.57201 -8.94939
349 1 17.2967 11.007 1.5724 -8.94969
350 1 20.4415 11.007 1.57242 -8.94964
538 1 17.2966 20.4415 11.007 -8.94963
352 1 1.57242 14.1518 1.57242 -8.94963
353 1 3.14484 12.5794 -2.70621e-06 -8.94963
354 1 4.71725 14.1518 1.5724 -8.94968
688 3 10.2209 11.007 9.46548 2.36994
356 1 7.86199 14.1519 1.57205 -8.95024
511 1 18.8691 18.8691 9.43453 -8.94965
358 1 11.0069 14.1519 1.57213 -8.94956
510 1 15.7243 18.8691 9.43452 -8.94959
360 1 14.152 14.152 1.57193 -8.95002
361 1 15.7242 12.5794 -2.73554e-05 -8.94959
362 1 17.2967 14.1518 1.57241 -8.94972
532 1 20.4415 17.2966 11.007 -8.94963
364 1 20.4415 14.1518 1.57242 -8.94963
509 1 12.5794 18.8692 9.43452 -8.94947
366 1 1.57242 17.2966 1.57242 -8.94965
508 1 9.43463 18.8703 9.43453 -8.9509
368 1 4.71723 17.2967 1.57236 -8.94959
507 1 6.28948 18.8695 9.43453 -8.94955
370 1 7.86211 17.2967 1.5724 -8.9496
371 1 9.43452 15.7242 -3.25672e-05 -8.9496
372 1 11.007 17.2967 1.57239 -8.94965
373 1 12.5794 15.7242 -1.73977e-05 -8.9496
374 1 14.1518 17.2966 1.57242 -8.94976
506 1 3.14482 18.8691 9.43453 -8.94968
376 1 17.2967 17.2967 1.57238 -8.94943
505 1 22.0139 18.8691 9.43453 -8.94964
378 1 20.4415 17.2966 1.57242 -8.94963
504 1 18.8691 15.7243 9.43452 -8.94957
380 1 1.57242 20.4415 1.57242 -8.94962
503 1 15.7245 15.7246 9.43448 -8.94828
382 1 4.71727 20.4415 1.57242 -8.94966
502 1 12.5789 15.7247 9.43451 -8.9515
384 1 7.86211 20.4415 1.57242 -8.94963
531 1 17.2967 17.2967 11.007 -8.94963
386 1 11.007 20.4415 1.57242 -8.94964
687 2 9.45571 11.007 10.9759 0.620906
388 1 14.1518 20.4415 1.57242 -8.94963
501 1 9.43291 15.7307 9.43468 -8.99265
390 1 17.2966 20.4415 1.57242 -8.94963
500 1 6.28725 15.7274 9.43456 -8.94938
392 1 20.4415 20.4415 1.57242 -8.94963
393 1 1.57238 11.007 4.71723 -8.94963
394 1 4.71692 11.007 4.7168 -8.94845
395 1 7.86245 11.007 4.71722 -8.9486
396 1 11.0085 11.007 4.71084 -8.99001
397 1 14.1541 11.007 4.71477 -8.94707
398 1 17.297 11.007 4.71706 -8.94938
399 1 20.4415 11.007 4.71725 -8.94966
400 1 1.02295e-08 12.5794 3.14484 -8.94963
401 1 1.5724 14.1518 4.71724 -8.94965
402 1 3.14481 12.5794 3.14481 -8.94958
403 1 4.71707 14.1518 4.71703 -8.95052
404 1 6.28956 12.5792 3.14463 -8.94986
405 1 7.86066 14.1532 4.71386 -8.95266
406 1 9.43402 12.5798 3.14355 -8.94956
407 1 11.0064 14.1528 4.7153 -8.95042
408 1 12.5802 12.5801 3.1418 -8.95429
409 1 14.1556 14.1556 4.71346 -8.93766
410 1 15.7244 12.5794 3.14462 -8.94952
411 1 17.2971 14.152 4.71705 -8.94998
412 1 18.8691 12.5794 3.14482 -8.9496
413 1 20.4415 14.1518 4.71725 -8.94971
414 1 22.0139 15.7242 3.14484 -8.94965
415 1 1.57236 17.2967 4.71722 -8.94955
416 1 3.14482 15.7242 3.14482 -8.94979
417 1 4.71685 17.2971 4.71684 -8.94791
418 1 6.28942 15.7245 3.14431 -8.9497
419 1 7.86216 17.2968 4.71714 -8.95009
420 1 9.43452 15.7245 3.14457 -8.9491
421 1 11.007 17.2969 4.71701 -8.94918
422 1 12.5793 15.7244 3.14469 -8.94991
423 1 14.152 17.2971 4.71704 -8.94988
424 1 15.7247 15.7247 3.14439 -8.94789
425 1 17.2967 17.2967 4.71726 -8.94971
426 1 18.8691 15.7242 3.14481 -8.94963
427 1 20.4415 17.2966 4.71726 -8.94963
428 1 22.0139 18.8691 3.14484 -8.94962
429 1 1.57242 20.4415 4.71726 -8.94965
430 1 3.14481 18.8691 3.14481 -8.94945
431 1 4.71723 20.4415 4.71723 -8.94961
432 1 6.28969 18.8691 3.14484 -8.94978
433 1 7.86212 20.4415 4.71725 -8.94961
434 1 9.43452 18.8691 3.14482 -8.94964
435 1 11.007 20.4415 4.71724 -8.94962
436 1 12.5794 18.8691 3.14482 -8.94959
437 1 14.1518 20.4415 4.71724 -8.94969
438 1 15.7242 18.8691 3.14481 -8.94961
439 1 17.2966 20.4415 4.71726 -8.94964
440 1 18.8691 18.8691 3.14484 -8.94965
441 1 20.4415 20.4415 4.71726 -8.94963
442 1 1.57213 11.007 7.86195 -8.94927
443 1 4.71599 11.007 7.86089 -8.94354
444 1 7.86836 11.007 7.86533 -8.97227
445 1 11.0843 11.007 7.66987 -8.18282
446 1 14.1613 11.007 7.85927 -8.96808
447 1 17.2979 11.007 7.86217 -8.95151
448 1 20.4416 11.007 7.8621 -8.94989
449 1 22.0139 12.5794 6.28966 -8.94969
450 1 1.57195 14.1519 7.86197 -8.95026
451 1 3.14451 12.5793 6.28946 -8.94956
452 1 4.71292 14.1538 7.86012 -8.95076
453 1 6.28812 12.5783 6.28831 -8.9524
454 1 7.83689 14.1747 7.83918 -8.86473
455 1 9.42681 12.5893 6.28448 -8.92096
456 1 11.0138 14.1545 7.85338 -8.92199
457 1 12.6034 12.6013 6.26691 -8.87419
458 1 14.1542 14.1535 7.86214 -8.94733
459 1 15.7273 12.5802 6.28881 -8.95415
460 1 17.297 14.152 7.86211 -8.94968
461 1 18.8694 12.5794 6.28964 -8.95026
462 1 20.4415 14.1518 7.86209 -8.94974
463 1 22.0138 15.7242 6.28966 -8.94969
464 1 1.57239 17.2967 7.86211 -8.94963
465 1 3.14424 15.7246 6.28933 -8.94939
466 1 4.71701 17.297 7.86201 -8.94978
467 1 6.28596 15.7279 6.28587 -8.93679
468 1 7.86129 17.2997 7.86129 -8.95418
469 1 9.43517 15.7261 6.28885 -8.95141
470 1 11.0074 17.2977 7.86163 -8.94872
471 1 12.5805 15.7273 6.28857 -8.9533
472 1 14.1519 17.2969 7.86221 -8.94991
473 1 15.7245 15.7245 6.28961 -8.94973
474 1 17.2967 17.2967 7.8621 -8.9496
475 1 18.8691 15.7242 6.28968 -8.94961
476 1 20.4415 17.2966 7.86211 -8.94963
477 1 -3.00543e-07 18.8691 6.28969 -8.94964
478 1 1.57242 20.4415 7.86211 -8.94964
479 1 3.14482 18.8691 6.28968 -8.94973
480 1 4.71724 20.4415 7.8621 -8.94961
481 1 6.28947 18.8695 6.28945 -8.94997
482 1 7.86205 20.4418 7.86205 -8.95029
483 1 9.43462 18.8693 6.28956 -8.94956
484 1 11.007 20.4416 7.86205 -8.94969
485 1 12.5795 18.8694 6.28958 -8.95018
486 1 14.1518 20.4415 7.86211 -8.94966
487 1 15.7242 18.8691 6.28969 -8.94967
488 1 17.2966 20.4415 7.86211 -8.94963
489 1 18.8691 18.8691 6.28969 -8.94964
490 1 20.4415 20.4415 7.86211 -8.94963
491 1 22.0137 12.5794 9.43449 -8.95009
492 1 3.14228 12.5798 9.43397 -8.9522
493 1 6.27152 12.5888 9.42767 -9.00173
494 1 9.3478 12.7801 9.43377 -8.16173
495 1 12.5798 12.5835 9.42772 -8.9361
496 1 15.7256 12.5801 9.43447 -8.94736
497 1 18.8693 12.5795 9.43452 -8.94958
498 1 22.0139 15.7242 9.43453 -8.94965
499 1 3.14442 15.7245 9.43453 -8.94942
526 1 1.57239 17.2967 11.007 -8.94962
527 1 4.71698 17.297 11.007 -8.94944
534 1 4.71724 20.4415 11.007 -8.94961
389 1 15.7242 18.8691 1.58187e-07 -8.94966
383 1 6.28969 18.8691 2.78481e-07 -8.94964
377 1 18.8691 15.7242 -1.03921e-08 -8.94965
512 1 1.57116 11.007 11.0071 -8.95206
513 1 4.70575 11.007 11.0077 -8.9683
514 1 7.7701 11.007 11.0023 -9.17273
515 1 11.1947 11.007 11.2046 -8.32424
516 1 14.158 11.007 11.0101 -8.99065
517 1 17.2979 11.007 11.0068 -8.95048
518 1 20.4415 11.007 11.0069 -8.95012
519 1 1.57202 14.1519 11.007 -8.95019
520 1 4.71348 14.1531 11.0078 -8.95341
521 1 7.83662 14.1737 11.0304 -8.92668
522 1 11.0152 14.1545 11.0169 -8.98289
523 1 14.1542 14.1534 11.0057 -8.94925
524 1 17.2971 14.152 11.0069 -8.94943
525 1 20.4415 14.1518 11.007 -8.94972
686 1 20.4415 20.4415 20.4415 -8.94963
391 1 18.8691 18.8691 22.0139 -8.94961
528 1 7.86127 17.2997 11.0077 -8.95376
529 1 11.0075 17.2978 11.0074 -8.94846
530 1 14.152 17.2969 11.0068 -8.94971
685 1 18.8691 18.8691 18.8691 -8.94961
684 1 17.2966 20.4415 20.4415 -8.94964
533 1 1.57242 20.4415 11.007 -8.94964
381 1 3.14484 18.8691 22.0139 -8.94962
535 1 7.86205 20.4418 11.007 -8.95027
536 1 11.007 20.4416 11.007 -8.94969
537 1 14.1518 20.4415 11.0069 -8.94967
683 1 15.7242 18.8691 18.8691 -8.94968
539 1 20.4415 20.4415 11.007 -8.94963
540 1 1.57229 11.007 14.1519 -8.9495
541 1 4.71647 11.007 14.1526 -8.94762
542 1 7.86238 11.007 14.15 -9.00926
543 1 11.0093 11.007 14.1571 -9.05247
544 1 14.1554 11.007 14.1556 -8.94557
545 1 17.2972 11.007 14.1521 -8.94932
546 1 20.4415 11.007 14.1518 -8.94969
547 1 22.0138 12.5794 12.5794 -8.94989
548 1 1.57224 14.1519 14.1519 -8.94955
549 1 3.14328 12.5799 12.5801 -8.94978
550 1 4.71613 14.1528 14.153 -8.94663
551 1 6.28046 12.585 12.5868 -8.97981
552 1 7.86181 14.1517 14.1538 -8.95511
553 1 9.4291 12.5844 12.5791 -9.0632
554 1 11.0051 14.1517 14.1528 -8.95126
555 1 12.6143 12.6138 12.613 -8.86659
556 1 14.1573 14.1574 14.1573 -8.92955
557 1 15.7284 12.5803 12.5803 -8.95716
558 1 17.2973 14.1521 14.1521 -8.95025
559 1 18.8694 12.5794 12.5794 -8.95057
560 1 20.4415 14.1518 14.1518 -8.94975
561 1 22.0139 15.7242 12.5794 -8.9497
562 1 1.57237 17.2967 14.1518 -8.94966
563 1 3.14435 15.7245 12.5796 -8.95
564 1 4.71679 17.2972 14.1523 -8.94806
565 1 6.28587 15.7286 12.5833 -8.93897
566 1 7.86216 17.2967 14.152 -8.94948
567 1 9.43515 15.7265 12.5801 -8.95003
568 1 11.0069 17.2969 14.1521 -8.9486
569 1 12.5807 15.7286 12.5808 -8.95604
570 1 14.1521 17.2973 14.1521 -8.95009
571 1 15.7245 15.7244 12.5793 -8.95014
572 1 17.2967 17.2967 14.1518 -8.9498
573 1 18.8691 15.7242 12.5794 -8.94959
574 1 20.4415 17.2966 14.1518 -8.94964
575 1 22.0139 18.8691 12.5794 -8.94964
576 1 1.57242 20.4415 14.1518 -8.94965
577 1 3.14482 18.8691 12.5794 -8.9497
578 1 4.71723 20.4415 14.1518 -8.94965
579 1 6.28947 18.8696 12.5796 -8.95018
580 1 7.86211 20.4415 14.1518 -8.94957
581 1 9.43462 18.8694 12.5795 -8.94973
582 1 11.007 20.4415 14.1518 -8.94959
583 1 12.5795 18.8695 12.5795 -8.95052
584 1 14.1518 20.4415 14.1518 -8.94973
585 1 15.7242 18.8691 12.5794 -8.94964
586 1 17.2966 20.4415 14.1518 -8.94964
587 1 18.8691 18.8691 12.5794 -8.94964
588 1 20.4415 20.4415 14.1518 -8.94963
589 1 1.57242 11.007 17.2966 -8.94967
590 1 4.71718 11.007 17.2968 -8.94955
591 1 7.86202 11.007 17.2967 -8.94848
592 1 11.0069 11.007 17.2979 -8.95008
593 1 14.1521 11.007 17.2972 -8.94944
594 1 17.2967 11.007 17.2967 -8.94972
595 1 20.4415 11.007 17.2966 -8.94964
596 1 22.0139 12.5794 15.7242 -8.94962
597 1 1.57242 14.1518 17.2966 -8.94967
598 1 3.14481 12.5794 15.7243 -8.94965
599 1 4.71722 14.1518 17.2968 -8.9499
600 1 6.28961 12.5792 15.7249 -8.95195
601 1 7.862 14.152 17.2969 -8.94975
602 1 9.43402 12.5796 15.7256 -8.94839
603 1 11.0068 14.152 17.2969 -8.9491
604 1 12.5802 12.5802 15.7282 -8.95706
605 1 14.1521 14.1521 17.2973 -8.95034
606 1 15.7246 12.5795 15.7246 -8.94925
607 1 17.2967 14.1518 17.2967 -8.94973
608 1 18.8691 12.5794 15.7242 -8.94957
609 1 20.4415 14.1518 17.2966 -8.94963
610 1 22.0139 15.7242 15.7242 -8.94962
611 1 1.57241 17.2966 17.2966 -8.94959
612 1 3.14472 15.7243 15.7243 -8.94922
613 1 4.71727 17.2966 17.2967 -8.94973
614 1 6.28967 15.7242 15.7245 -8.95036
615 1 7.86212 17.2966 17.2966 -8.94967
616 1 9.43448 15.7243 15.7243 -8.94933
617 1 11.0069 17.2966 17.2967 -8.94973
618 1 12.5791 15.7242 15.7242 -8.95062
619 1 14.1517 17.2966 17.2966 -8.94991
620 1 15.7248 15.7249 15.7248 -8.94695
621 1 17.2967 17.2967 17.2967 -8.94934
622 1 18.8691 15.7243 15.7243 -8.94962
623 1 20.4415 17.2966 17.2966 -8.94962
624 1 22.0139 18.8691 15.7242 -8.94963
625 1 1.57242 20.4415 17.2966 -8.94961
626 1 3.1448 18.8691 15.7243 -8.94944
627 1 4.71727 20.4415 17.2966 -8.94965
628 1 6.2897 18.869 15.7242 -8.94971
629 1 7.86211 20.4415 17.2966 -8.94964
630 1 9.43452 18.8691 15.7242 -8.9496
631 1 11.0069 20.4415 17.2966 -8.94965
632 1 12.5794 18.8691 15.7242 -8.94953
633 1 14.1518 20.4415 17.2966 -8.94963
634 1 15.7243 18.8691 15.7243 -8.94961
635 1 17.2966 20.4415 17.2966 -8.94962
636 1 18.8691 18.8691 15.7242 -8.94966
637 1 20.4415 20.4415 17.2966 -8.94964
638 1 1.57242 11.007 20.4415 -8.94963
639 1 4.71726 11.007 20.4415 -8.94967
640 1 7.86209 11.007 20.4415 -8.94958
641 1 11.0069 11.007 20.4415 -8.9501
642 1 14.1518 11.007 20.4415 -8.94973
643 1 17.2966 11.007 20.4415 -8.94963
644 1 20.4415 11.007 20.4415 -8.94963
645 1 22.0139 12.5794 18.8691 -8.94964
646 1 1.57242 14.1518 20.4415 -8.94963
647 1 3.14484 12.5794 18.8691 -8.94961
648 1 4.71726 14.1518 20.4415 -8.94966
649 1 6.28968 12.5794 18.8691 -8.9498
650 1 7.86208 14.1518 20.4415 -8.94972
651 1 9.43446 12.5794 18.8693 -8.94986
652 1 11.0069 14.1518 20.4415 -8.94965
653 1 12.5794 12.5794 18.8694 -8.95054
654 1 14.1518 14.1518 20.4415 -8.94981
655 1 15.7242 12.5794 18.8691 -8.94957
656 1 17.2966 14.1518 20.4415 -8.94963
657 1 18.8691 12.5794 18.8691 -8.94965
658 1 20.4415 14.1518 20.4415 -8.94963
659 1 22.0139 15.7242 18.8691 -8.94964
660 1 1.57242 17.2966 20.4415 -8.94963
661 1 3.14484 15.7242 18.8691 -8.94965
662 1 4.71726 17.2966 20.4415 -8.94963
663 1 6.28967 15.7242 18.8691 -8.94963
664 1 7.86211 17.2966 20.4415 -8.94963
665 1 9.43452 15.7242 18.8691 -8.94957
666 1 11.007 17.2966 20.4415 -8.94965
667 1 12.5794 15.7242 18.8691 -8.94955
668 1 14.1518 17.2966 20.4415 -8.94963
669 1 15.7243 15.7243 18.8691 -8.94964
670 1 17.2966 17.2966 20.4415 -8.94961
671 1 18.8691 15.7242 18.8691 -8.94966
672 1 20.4415 17.2966 20.4415 -8.94964
673 1 7.92997e-08 18.8691 18.8691 -8.94963
674 1 1.57242 20.4415 20.4415 -8.94963
675 1 3.14484 18.8691 18.8691 -8.94965
676 1 4.71726 20.4415 20.4415 -8.94963
677 1 6.28969 18.8691 18.8691 -8.94964
678 1 7.86211 20.4415 20.4415 -8.94963
679 1 9.43453 18.8691 18.8691 -8.94963
680 1 11.007 20.4415 20.4415 -8.94963
681 1 12.5794 18.8691 18.8691 -8.94964
682 1 14.1518 20.4415 20.4415 -8.94963
355 1 6.28967 12.5794 22.0139 -8.94966
357 1 9.43447 12.5794 22.0137 -8.94976
359 1 12.5794 12.5794 22.0136 -8.9503
365 1 -1.73504e-07 15.7242 22.0139 -8.94963
367 1 3.14484 15.7242 22.0139 -8.94965
369 1 6.28966 15.7242 22.0139 -8.94969
375 1 15.7243 15.7243 22.0138 -8.94963
379 1 22.0139 18.8691 22.0139 -8.94963
351 1 22.0139 12.5794 22.0139 -8.94963
363 1 18.8691 12.5794 22.0139 -8.94964
385 1 9.43453 18.8691 22.0139 -8.94964
387 1 12.5794 18.8691 22.0139 -8.94964
