ITEM: TIMESTEP
117
ITEM: NUMBER OF ATOMS
688
ITEM: BOX BOUNDS pp pp pp
0.0000000000000000e+00 2.2013900999999997e+01
0.0000000000000000e+00 2.2013900999999997e+01
0.0000000000000000e+00 2.2013900999999997e+01
ITEM: ATOMS id type x y z c_pot
189 1 20.4405 4.71582 11.0072 -8.94954
2 1 1.57171 1.57193 1.57178 -8.94916
175 1 18.8672 9.43431 9.43544 -8.94778
4 1 4.71661 1.57191 1.57175 -8.94959
174 1 15.7198 9.43589 9.43785 -8.94334
6 1 7.86166 1.57196 1.5721 -8.94943
7 1 9.43422 -3.01315e-12 0.000220165 -8.94948
8 1 11.0066 1.57194 1.57237 -8.94948
173 1 12.5613 9.44092 9.43352 -8.95011
10 1 14.1517 1.57179 1.57245 -8.94951
172 1 9.35997 9.19662 9.4334 -8.35485
12 1 17.2971 1.5716 1.57226 -8.94945
188 1 17.2975 4.71539 11.0074 -8.94891
14 1 20.4414 1.57191 1.57227 -8.94945
171 1 6.27351 9.42497 9.43395 -9.01969
16 1 1.57189 4.71658 1.57169 -8.9498
170 1 3.13691 9.43347 9.43417 -8.9505
18 1 4.71586 4.71602 1.57081 -8.94952
169 1 22.0102 9.43414 9.43451 -8.94959
20 1 7.86127 4.71619 1.57169 -8.94911
183 1 1.56888 4.71513 11.0077 -8.94926
22 1 11.0065 4.71601 1.57201 -8.94936
181 1 17.2967 1.5717 11.0069 -8.94949
24 1 14.1524 4.7155 1.57173 -8.94979
168 1 18.8688 6.2883 9.43471 -8.94954
26 1 17.2983 4.71512 1.57152 -8.9482
167 1 15.7258 6.28721 9.43539 -8.94542
28 1 20.442 4.71626 1.57205 -8.94949
166 1 12.5776 6.29109 9.43676 -8.94621
30 1 1.57223 7.86179 1.57189 -8.94942
165 1 9.42915 6.29317 9.43764 -9.00613
32 1 4.7167 7.8622 1.57195 -8.94975
164 1 6.2766 6.2791 9.43614 -8.94348
34 1 7.86149 7.86189 1.57171 -8.9522
35 1 9.43392 6.28886 0.000242716 -8.94963
36 1 11.0064 7.86099 1.57136 -8.95053
37 1 12.5795 6.28848 0.000359214 -8.94979
38 1 14.1539 7.86003 1.56964 -8.95179
163 1 3.13761 6.28607 9.43488 -8.94919
40 1 17.2988 7.86073 1.57151 -8.94911
162 1 22.0109 6.28819 9.43447 -8.94998
42 1 20.4424 7.86144 1.57203 -8.94938
158 1 9.43324 3.14442 9.43536 -8.94674
44 1 3.14485 9.43449 -5.55438e-05 -8.94957
161 1 18.8686 3.14379 9.43434 -8.94949
160 1 15.7245 3.14355 9.43459 -8.94944
159 1 12.5788 3.14461 9.43519 -8.94843
48 1 15.7263 9.43375 0.000148155 -8.9494
157 1 6.28575 3.14075 9.43503 -8.94982
50 1 22.0132 5.10166e-13 3.1443 -8.94944
51 1 1.57097 1.57173 4.71628 -8.94943
52 1 3.14371 -9.94848e-11 3.14378 -8.94952
53 1 4.7156 1.57113 4.71596 -8.95002
54 1 6.28903 -3.0393e-11 3.14412 -8.94957
55 1 7.86133 1.57146 4.71666 -8.94969
56 1 9.43414 -3.3589e-11 3.14449 -8.94954
57 1 11.0065 1.57162 4.71695 -8.94963
58 1 12.5791 -5.1855e-11 3.1447 -8.94954
59 1 14.1517 1.57136 4.7171 -8.95074
60 1 15.7243 -2.53815e-11 3.14465 -8.95009
61 1 17.2964 1.57186 4.71714 -8.94975
62 1 18.8688 -9.8292e-13 3.14469 -8.94966
63 1 20.4408 1.57195 4.71678 -8.94945
64 1 22.013 3.14397 3.14405 -8.94948
65 1 1.56978 4.71562 4.71565 -8.94951
66 1 3.14292 3.14328 3.14309 -8.94838
67 1 4.71213 4.71292 4.71321 -8.94516
68 1 6.28845 3.14338 3.14363 -8.94966
69 1 7.85985 4.71402 4.71556 -8.94925
70 1 9.43386 3.1436 3.14422 -8.94937
71 1 11.0064 4.71445 4.71586 -8.94798
72 1 12.5792 3.14344 3.14433 -8.94923
73 1 14.1543 4.71231 4.71474 -8.94992
74 1 15.7252 3.14268 3.1439 -8.94948
75 1 17.2975 4.71558 4.71673 -8.95026
76 1 18.8692 3.14379 3.14446 -8.94976
77 1 20.4407 4.71626 4.71665 -8.94987
78 1 22.0135 6.28893 3.14404 -8.94983
79 1 1.5704 7.86158 4.71621 -8.94987
80 1 3.14305 6.28882 3.1434 -8.95027
81 1 4.71331 7.86123 4.7156 -8.95123
82 1 6.28631 6.287 3.14114 -8.94997
83 1 7.85506 7.85615 4.70984 -8.95335
84 1 9.43317 6.28738 3.14313 -8.94764
85 1 11.0065 7.85755 4.71085 -8.95195
86 1 12.5801 6.28695 3.14221 -8.94952
87 1 14.1651 7.84943 4.70472 -8.92902
88 1 15.7287 6.28487 3.14089 -8.94443
89 1 17.3008 7.8597 4.71526 -8.95079
90 1 18.8706 6.28813 3.14384 -8.94966
91 1 20.4417 7.86137 4.71651 -8.95023
92 1 -0.000163443 9.43423 3.14402 -8.94952
93 1 3.14352 9.43435 3.1439 -8.94897
94 1 6.28866 9.43513 3.1451 -8.94942
95 1 9.43454 9.43448 3.14621 -8.95051
96 1 12.5824 9.43303 3.13783 -8.95988
97 1 15.7285 9.43284 3.14141 -8.94744
98 1 18.8709 9.4339 3.14374 -8.94925
99 1 22.0127 -3.22097e-12 6.28904 -8.94946
100 1 1.5705 1.5716 7.86154 -8.94946
101 1 3.14306 -1.04685e-12 6.28878 -8.94943
102 1 4.71486 1.57091 7.86155 -8.94952
103 1 6.28844 -8.39827e-10 6.28912 -8.95058
104 1 7.86088 1.57105 7.86227 -8.9511
105 1 9.43398 -5.21739e-10 6.28958 -8.95015
106 1 11.0061 1.57215 7.86261 -8.94939
107 1 12.5788 -2.94118e-10 6.28992 -8.95048
108 1 14.1514 1.57202 7.86237 -8.94947
109 1 15.7238 -1.23375e-11 6.28972 -8.94961
110 1 17.2963 1.5719 7.86186 -8.94943
111 1 18.8685 -1.27609e-12 6.28932 -8.94944
112 1 20.4405 1.57188 7.86166 -8.94947
113 1 -0.00162721 3.14377 6.2889 -8.94941
114 1 1.56891 4.71523 7.86135 -8.94935
115 1 3.14202 3.14281 6.28838 -8.94925
116 1 4.71135 4.7127 7.86088 -8.94796
117 1 6.28682 3.14122 6.28831 -8.95152
118 1 7.85748 4.71042 7.86214 -8.95805
119 1 9.43361 3.1427 6.28937 -8.95046
120 1 11.0055 4.71631 7.86318 -8.95135
121 1 12.579 3.14274 6.2898 -8.95258
122 1 14.1518 4.7161 7.86331 -8.94918
123 1 15.7241 3.14379 6.28985 -8.94971
124 1 17.2968 4.71597 7.8621 -8.94873
125 1 18.8686 3.14399 6.28933 -8.94933
126 1 20.4402 4.71606 7.86169 -8.94951
127 1 22.0114 6.2885 6.28881 -8.95011
128 1 1.56697 7.86066 7.8613 -8.95144
129 1 3.13848 6.28655 6.28714 -8.95018
130 1 4.7032 7.85673 7.85957 -8.95654
131 1 6.27572 6.27781 6.27962 -8.93213
132 1 7.81967 7.8304 7.83456 -8.88814
133 1 9.432 6.28246 6.28739 -8.95196
134 1 11.0231 7.85569 7.84066 -8.94624
135 1 12.5852 6.27903 6.28388 -8.95321
136 1 14.1562 7.86007 7.86496 -8.95192
137 1 15.7265 6.28737 6.2895 -8.95124
138 1 17.2969 7.86166 7.86371 -8.9508
139 1 18.8688 6.2888 6.28965 -8.95014
140 1 20.4396 7.86146 7.86211 -8.95005
141 1 22.012 9.43428 6.28901 -8.94996
142 1 3.14063 9.43465 6.28879 -8.95009
143 1 6.28245 9.43617 6.28916 -8.95218
144 1 9.41804 9.4133 6.28865 -8.94909
145 1 12.6217 9.39976 6.25231 -8.84906
146 1 15.7343 9.43191 6.28645 -8.95792
147 1 18.8704 9.43415 6.2894 -8.95189
148 1 -0.00135884 -1.85516e-12 9.4343 -8.94948
149 1 3.14273 -4.6177e-11 9.43446 -8.94949
150 1 6.28783 -5.19104e-10 9.43468 -8.95039
151 1 9.43378 -1.92996e-09 9.43477 -8.94844
152 1 12.5789 -2.42451e-10 9.43468 -8.9492
153 1 15.7241 -1.8218e-11 9.43437 -8.94965
154 1 18.8686 -7.31488e-13 9.43425 -8.9495
155 1 22.0121 3.14361 9.43434 -8.94946
156 1 3.14152 3.14262 9.43457 -8.94944
177 1 4.71473 1.57081 11.0077 -8.94946
184 1 4.71112 4.71248 11.0092 -8.94743
3 1 3.14449 -1.13331e-12 -0.000138948 -8.94953
11 1 15.7243 -1.99348e-12 0.000444833 -8.94954
41 1 18.8704 6.28853 0.000301299 -8.94938
19 1 6.2892 3.14426 -0.000110369 -8.94945
25 1 15.7248 3.1436 0.000403362 -8.94963
176 1 1.57048 1.57154 11.0073 -8.94945
47 1 12.5798 9.43426 22.0141 -8.9518
178 1 7.86084 1.57074 11.0075 -8.9514
179 1 11.0063 1.57181 11.0072 -8.94938
180 1 14.1518 1.57163 11.007 -8.94955
343 1 18.8714 9.43389 18.8713 -8.94934
182 1 20.4407 1.57179 11.007 -8.94948
342 1 15.7275 9.4334 18.8733 -8.94922
46 1 9.43438 9.43466 22.0151 -8.94917
185 1 7.85752 4.70906 11.0099 -8.95903
186 1 11.0062 4.71533 11.009 -8.95076
187 1 14.1529 4.71491 11.0075 -8.94875
341 1 12.581 9.43389 18.874 -8.95211
340 1 9.43498 9.43459 18.8711 -8.94957
190 1 1.56718 7.86081 11.0077 -8.95143
191 1 4.70376 7.85745 11.0107 -8.95802
192 1 7.82012 7.82561 11.0439 -8.9101
193 1 11.0254 7.85478 11.0368 -8.96184
194 1 14.1574 7.85868 11.0077 -8.95118
195 1 17.2981 7.8607 11.0077 -8.95025
196 1 20.4401 7.86121 11.0074 -8.95005
197 1 22.0128 -2.82111e-12 12.5798 -8.94947
198 1 1.57093 1.57159 14.1529 -8.94944
199 1 3.14291 -7.08154e-12 12.5803 -8.94941
200 1 4.71525 1.57085 14.1536 -8.95003
201 1 6.28821 -8.20516e-10 12.5804 -8.95073
202 1 7.86121 1.57108 14.1533 -8.94971
203 1 9.43403 -5.11379e-10 12.5802 -8.95019
204 1 11.0069 1.57088 14.1534 -8.94987
205 1 12.5792 -3.12436e-10 12.5798 -8.95084
206 1 14.1526 1.57051 14.1531 -8.95106
207 1 15.7245 -1.65476e-11 12.5795 -8.94963
208 1 17.2973 1.57141 14.1525 -8.94968
209 1 18.869 -1.94881e-12 12.5796 -8.94947
210 1 20.4412 1.57173 14.1525 -8.94945
211 1 22.0125 3.14354 12.5801 -8.9494
212 1 1.56976 4.7153 14.1538 -8.94975
213 1 3.14181 3.14258 12.5809 -8.94921
214 1 4.71146 4.71215 14.1572 -8.94451
215 1 6.28646 3.14047 12.5819 -8.95169
216 1 7.85993 4.71284 14.1559 -8.94938
217 1 9.43398 3.14171 12.5815 -8.95053
218 1 11.0076 4.71191 14.1569 -8.94797
219 1 12.5799 3.1411 12.5809 -8.95337
220 1 14.1567 4.70946 14.1574 -8.95017
221 1 15.7252 3.14279 12.58 -8.94952
222 1 17.2991 4.7144 14.1537 -8.95024
223 1 18.8692 3.14351 12.5798 -8.94934
224 1 20.4415 4.71572 14.1529 -8.94985
225 1 22.0118 6.28825 12.5804 -8.95025
226 1 1.57025 7.86119 14.1536 -8.94954
227 1 3.13836 6.28638 12.5825 -8.95108
228 1 4.71316 7.86091 14.155 -8.95093
229 1 6.27479 6.27583 12.5929 -8.9306
230 1 7.85557 7.85406 14.1649 -8.95222
231 1 9.43397 6.28009 12.5874 -8.95167
232 1 11.01 7.8526 14.1677 -8.94687
233 1 12.5879 6.27444 12.5904 -8.95607
234 1 14.1715 7.84402 14.1727 -8.92287
235 1 15.7285 6.28579 12.5819 -8.95092
236 1 17.3034 7.85852 14.1565 -8.952
237 1 18.8701 6.28804 12.5803 -8.94987
238 1 20.4426 7.86095 14.1535 -8.95052
239 1 22.012 9.43408 12.5805 -8.94997
240 1 3.13971 9.43383 12.5817 -8.94773
241 1 6.28444 9.43371 12.5826 -8.97924
242 1 9.42379 9.40849 12.5976 -8.95086
243 1 12.6304 9.3866 12.6323 -8.86312
244 1 15.7364 9.43142 12.5869 -8.96157
245 1 18.8713 9.43398 12.5811 -8.95234
246 1 -0.000573543 3.97607e-13 15.7252 -8.94947
247 1 1.57167 1.57179 17.298 -8.94909
248 1 3.1435 -9.62536e-11 15.7258 -8.9495
249 1 4.71642 1.57178 17.298 -8.94959
250 1 6.2888 -2.76663e-11 15.7256 -8.94957
251 1 7.86148 1.57173 17.2981 -8.94936
252 1 9.43407 -4.32089e-11 15.7257 -8.94957
253 1 11.0068 1.57153 17.2982 -8.94947
254 1 12.5796 -4.1456e-11 15.7257 -8.94966
255 1 14.1524 1.57124 17.2984 -8.94951
256 1 15.7251 -2.86849e-11 15.7256 -8.95025
257 1 17.2979 1.57114 17.2984 -8.94942
258 1 18.8695 -8.96422e-13 15.7251 -8.94965
259 1 20.4418 1.57171 17.2978 -8.94948
260 1 22.0133 3.14364 15.7256 -8.94952
261 1 1.57192 4.71635 17.2982 -8.94983
262 1 3.14262 3.14293 15.7267 -8.94819
263 1 4.71555 4.71573 17.2993 -8.94946
264 1 6.28816 3.14293 15.7265 -8.94964
265 1 7.8611 4.71561 17.2993 -8.94886
266 1 9.43392 3.14265 15.7267 -8.94925
267 1 11.0071 4.71487 17.3 -8.94923
268 1 12.5802 3.14194 15.727 -8.94918
269 1 14.1538 4.7139 17.3007 -8.94942
270 1 15.7267 3.14122 15.7272 -8.94948
271 1 17.2999 4.71382 17.3002 -8.9475
272 1 18.8701 3.14315 15.7256 -8.94979
273 1 20.4427 4.71575 17.2984 -8.9495
274 1 22.0139 6.28852 15.7259 -8.94987
275 1 1.57243 7.86172 17.298 -8.94955
276 1 3.14282 6.28859 15.7265 -8.95023
277 1 4.71681 7.86228 17.298 -8.95002
278 1 6.28587 6.2863 15.7301 -8.94961
279 1 7.86193 7.86158 17.3 -8.95278
280 1 9.43375 6.28565 15.7302 -8.94656
281 1 11.0078 7.85972 17.3029 -8.95094
282 1 12.5827 6.28396 15.7322 -8.94836
283 1 14.1564 7.85832 17.305 -8.95189
284 1 15.7321 6.28204 15.7326 -8.94247
285 1 17.3006 7.85984 17.3008 -8.94889
286 1 18.8722 6.28716 15.727 -8.94992
287 1 20.4432 7.8611 17.2987 -8.94937
288 1 22.0143 9.4341 15.726 -8.94954
289 1 3.14382 9.43449 15.7258 -8.94932
290 1 6.28978 9.43551 15.7253 -8.94997
291 1 9.43723 9.43422 15.7287 -8.95393
292 1 12.5865 9.43112 15.7395 -8.96087
293 1 15.7319 9.43185 15.7326 -8.9468
294 1 18.8726 9.4335 15.7276 -8.9492
295 1 22.0139 -3.25925e-12 18.87 -8.94915
296 1 1.57225 1.57201 20.4419 -8.94932
297 1 3.14442 -9.4683e-13 18.87 -8.94954
298 1 4.71692 1.5721 20.4419 -8.94949
299 1 6.28922 -8.26039e-13 18.87 -8.94941
300 1 7.86172 1.57205 20.442 -8.94946
301 1 9.43417 -1.88522e-12 18.8701 -8.94946
302 1 11.0067 1.57194 20.4423 -8.94947
303 1 12.5793 -1.99284e-12 18.8703 -8.94947
304 1 14.1519 1.57179 20.4424 -8.94945
305 1 15.7247 -1.13892e-12 18.8704 -8.94951
306 1 17.2973 1.57168 20.4424 -8.94951
307 1 18.8698 -1.17862e-12 18.8703 -8.94922
308 1 20.442 1.5719 20.4422 -8.94905
309 1 0.000300971 3.14406 18.8702 -8.94949
310 1 1.57256 4.71682 20.442 -8.94972
311 1 3.14423 3.14406 18.8703 -8.94948
312 1 4.7168 4.71677 20.442 -8.9501
313 1 6.28906 3.14411 18.8702 -8.94938
314 1 7.86156 4.71654 20.4423 -8.94948
315 1 9.4341 3.14384 18.8705 -8.94944
316 1 11.0067 4.71614 20.4428 -8.94953
317 1 12.5796 3.14345 18.8709 -8.94939
318 1 14.1524 4.7157 20.443 -8.94961
319 1 15.7253 3.14307 18.8711 -8.94953
320 1 17.2982 4.71545 20.4429 -8.94943
321 1 18.8704 3.14333 18.8707 -8.94883
322 1 20.4424 4.71632 20.4423 -8.94944
323 1 22.0146 6.28898 18.8702 -8.9495
324 1 1.57281 7.86187 20.442 -8.94954
325 1 3.14471 6.28947 18.87 -8.94988
326 1 4.71727 7.86224 20.4419 -8.94965
327 1 6.2891 6.28925 18.8708 -8.95074
328 1 7.86199 7.86214 20.4424 -8.95035
329 1 9.4341 6.28844 18.8716 -8.94962
330 1 11.0068 7.86139 20.4434 -8.95044
331 1 12.5802 6.28771 18.8726 -8.94973
332 1 14.1532 7.86084 20.4438 -8.95098
333 1 15.7269 6.287 18.8729 -8.94999
334 1 17.2987 7.86086 20.4431 -8.94925
335 1 18.8711 6.28815 18.8711 -8.94933
336 1 20.4428 7.86144 20.4424 -8.94942
337 1 22.0148 9.43425 18.8703 -8.9495
338 1 3.1449 9.43451 18.8699 -8.94958
339 1 6.28975 9.4348 18.8698 -8.94936
45 1 6.28959 9.43475 22.0143 -8.94943
5 1 6.28934 -1.18168e-12 22.0139 -8.94945
9 1 12.5792 -1.87024e-12 22.0143 -8.94949
39 1 15.7258 6.28784 22.0139 -8.95009
15 1 22.0141 3.14423 22.0139 -8.94949
17 1 3.14431 3.14418 22.0135 -8.9495
33 1 6.28916 6.28936 22.0136 -8.95065
31 1 3.14472 6.2895 22.0137 -8.9498
27 1 18.87 3.14369 22.0142 -8.94905
29 1 0.000499562 6.28913 22.014 -8.94948
1 1 -8.16954e-05 -3.22273e-12 22.014 -8.94913
13 1 18.8695 -1.11705e-12 22.0142 -8.94928
21 1 9.43411 3.14413 22.0141 -8.94946
23 1 12.5793 3.14392 22.0143 -8.94944
43 1 22.0146 9.43431 22.014 -8.94951
49 1 18.8707 9.43406 22.0142 -8.9494
344 1 1.57231 11.007 1.57193 -8.94955
345 1 4.71671 11.007 1.5721 -8.94969
346 1 7.86193 11.007 1.57398 -8.94844
347 1 11.0068 11.007 1.57372 -8.94655
348 1 14.1547 11.007 1.56965 -8.94971
349 1 17.2989 11.007 1.57152 -8.94939
350 1 20.4425 11.007 1.57202 -8.94945
538 1 17.2967 20.4422 11.0069 -8.94949
352 1 1.57223 14.1521 1.57189 -8.94942
353 1 3.14485 12.5794 -5.55438e-05 -8.94957
354 1 4.7167 14.1517 1.57195 -8.94975
688 3 10.2569 11.007 9.45216 2.20348
356 1 7.86149 14.152 1.57171 -8.9522
511 1 18.8686 18.8701 9.43434 -8.94949
358 1 11.0064 14.1529 1.57136 -8.95053
510 1 15.7245 18.8704 9.43459 -8.94944
360 1 14.1539 14.1539 1.56964 -8.95179
361 1 15.7263 12.5802 0.000148155 -8.9494
362 1 17.2988 14.1532 1.57151 -8.94911
532 1 20.4405 17.2981 11.0072 -8.94954
364 1 20.4424 14.1525 1.57203 -8.94938
509 1 12.5788 18.8693 9.43519 -8.94843
366 1 1.57189 17.2973 1.57169 -8.9498
508 1 9.43324 18.8695 9.43536 -8.94674
368 1 4.71586 17.2979 1.57081 -8.94952
507 1 6.28575 18.8732 9.43503 -8.94982
370 1 7.86127 17.2977 1.57169 -8.94911
371 1 9.43392 15.725 0.000242716 -8.94963
372 1 11.0065 17.2979 1.57201 -8.94936
373 1 12.5795 15.7254 0.000359214 -8.94979
374 1 14.1524 17.2984 1.57173 -8.94979
506 1 3.14152 18.8713 9.43457 -8.94944
376 1 17.2983 17.2988 1.57152 -8.9482
505 1 22.0121 18.8703 9.43434 -8.94946
378 1 20.442 17.2976 1.57205 -8.94949
504 1 18.8688 15.7256 9.43471 -8.94954
380 1 1.57171 20.442 1.57178 -8.94916
503 1 15.7258 15.7267 9.43539 -8.94542
382 1 4.71661 20.442 1.57175 -8.94959
502 1 12.5776 15.7228 9.43676 -8.94621
384 1 7.86166 20.4419 1.5721 -8.94943
531 1 17.2975 17.2985 11.0074 -8.94891
386 1 11.0066 20.442 1.57237 -8.94948
687 2 9.55263 11.007 10.2226 -0.0146582
388 1 14.1517 20.4421 1.57245 -8.94951
501 1 9.42915 15.7207 9.43764 -9.00611
390 1 17.2971 20.4423 1.57226 -8.94945
500 1 6.2766 15.7348 9.43614 -8.94347
392 1 20.4414 20.442 1.57227 -8.94945
393 1 1.57052 11.007 4.7161 -8.94951
394 1 4.714 11.007 4.71583 -8.9459
395 1 7.86294 11.007 4.72164 -8.94757
396 1 11.0115 11.007 4.72319 -9.00612
397 1 14.1628 11.007 4.70744 -8.9416
398 1 17.301 11.007 4.71494 -8.94902
399 1 20.4419 11.007 4.71635 -8.94999
400 1 -0.000163443 12.5797 3.14402 -8.94952
401 1 1.5704 14.1523 4.71621 -8.94987
402 1 3.14352 12.5796 3.1439 -8.94897
403 1 4.71331 14.1527 4.7156 -8.95123
404 1 6.28866 12.5788 3.1451 -8.94942
405 1 7.85506 14.1578 4.70984 -8.95335
406 1 9.43454 12.5794 3.14621 -8.95051
407 1 11.0065 14.1563 4.71085 -8.95195
408 1 12.5824 12.5809 3.13783 -8.95988
409 1 14.1651 14.1645 4.70472 -8.92902
410 1 15.7285 12.5811 3.14141 -8.94744
411 1 17.3008 14.1542 4.71526 -8.95079
412 1 18.8709 12.58 3.14374 -8.94925
413 1 20.4417 14.1525 4.71651 -8.95023
414 1 22.0135 15.725 3.14404 -8.94983
415 1 1.56978 17.2983 4.71565 -8.94951
416 1 3.14305 15.7251 3.1434 -8.95027
417 1 4.71213 17.301 4.71321 -8.94516
418 1 6.28631 15.7269 3.14114 -8.94997
419 1 7.85985 17.2999 4.71556 -8.94925
420 1 9.43317 15.7265 3.14313 -8.94764
421 1 11.0064 17.2994 4.71586 -8.94798
422 1 12.5801 15.7269 3.14221 -8.94952
423 1 14.1543 17.3016 4.71474 -8.94992
424 1 15.7287 15.729 3.14089 -8.94443
425 1 17.2975 17.2983 4.71673 -8.95026
426 1 18.8706 15.7258 3.14384 -8.94966
427 1 20.4407 17.2976 4.71665 -8.94987
428 1 22.013 18.8699 3.14405 -8.94948
429 1 1.57097 20.4422 4.71628 -8.94943
430 1 3.14292 18.8706 3.14309 -8.94838
431 1 4.7156 20.4428 4.71596 -8.95002
432 1 6.28845 18.8705 3.14363 -8.94966
433 1 7.86133 20.4424 4.71666 -8.94969
434 1 9.43386 18.8703 3.14422 -8.94937
435 1 11.0065 20.4423 4.71695 -8.94963
436 1 12.5792 18.8705 3.14433 -8.94923
437 1 14.1517 20.4425 4.7171 -8.95074
438 1 15.7252 18.8712 3.1439 -8.94948
439 1 17.2964 20.442 4.71714 -8.94975
440 1 18.8692 18.8701 3.14446 -8.94976
441 1 20.4408 20.4419 4.71678 -8.94945
442 1 1.56865 11.007 7.86156 -8.94773
443 1 4.71417 11.007 7.86299 -8.94101
444 1 7.87444 11.007 7.86928 -8.949
445 1 11.089 11.007 7.62215 -8.1645
446 1 14.1595 11.007 7.85546 -8.9706
447 1 17.2975 11.007 7.86344 -8.95146
448 1 20.4398 11.007 7.86221 -8.94956
449 1 22.012 12.5796 6.28901 -8.94996
450 1 1.56697 14.1532 7.8613 -8.95144
451 1 3.14063 12.5792 6.28879 -8.95009
452 1 4.7032 14.1572 7.85957 -8.95654
453 1 6.28245 12.5777 6.28916 -8.95218
454 1 7.81967 14.1835 7.83456 -8.88819
455 1 9.41804 12.6006 6.28865 -8.94909
456 1 11.0231 14.1582 7.84066 -8.94625
457 1 12.6217 12.6141 6.25231 -8.84906
458 1 14.1562 14.1538 7.86496 -8.95192
459 1 15.7343 12.582 6.28645 -8.95792
460 1 17.2969 14.1522 7.86371 -8.9508
461 1 18.8704 12.5798 6.2894 -8.95189
462 1 20.4396 14.1524 7.86211 -8.95005
463 1 22.0114 15.7254 6.28881 -8.95011
464 1 1.56891 17.2987 7.86135 -8.94935
465 1 3.13848 15.7274 6.28714 -8.95018
466 1 4.71135 17.3012 7.86088 -8.94796
467 1 6.27572 15.7361 6.27962 -8.93213
468 1 7.85748 17.3035 7.86214 -8.95805
469 1 9.432 15.7314 6.28739 -8.95196
470 1 11.0055 17.2976 7.86318 -8.95135
471 1 12.5852 15.7349 6.28388 -8.95321
472 1 14.1518 17.2978 7.86331 -8.94918
473 1 15.7265 15.7265 6.2895 -8.95124
474 1 17.2968 17.2979 7.8621 -8.94873
475 1 18.8688 15.7251 6.28965 -8.95014
476 1 20.4402 17.2978 7.86169 -8.94951
477 1 -0.00162721 18.8701 6.2889 -8.94941
478 1 1.5705 20.4423 7.86154 -8.94946
479 1 3.14202 18.8711 6.28838 -8.94925
480 1 4.71486 20.443 7.86155 -8.94952
481 1 6.28682 18.8727 6.28831 -8.95152
482 1 7.86088 20.4429 7.86227 -8.9511
483 1 9.43361 18.8712 6.28937 -8.95046
484 1 11.0061 20.4418 7.86261 -8.94939
485 1 12.579 18.8712 6.2898 -8.95258
486 1 14.1514 20.4419 7.86237 -8.94947
487 1 15.7241 18.8701 6.28985 -8.94971
488 1 17.2963 20.442 7.86186 -8.94943
489 1 18.8686 18.8699 6.28933 -8.94933
490 1 20.4405 20.442 7.86166 -8.94947
491 1 22.0102 12.5798 9.43451 -8.94959
492 1 3.13691 12.5804 9.43417 -8.9505
493 1 6.27351 12.5889 9.43395 -9.01968
494 1 9.36001 12.8172 9.4334 -8.35467
495 1 12.5613 12.573 9.43352 -8.9501
496 1 15.7198 12.578 9.43785 -8.94334
497 1 18.8672 12.5796 9.43544 -8.94778
498 1 22.0109 15.7257 9.43447 -8.94998
499 1 3.13761 15.7278 9.43488 -8.94919
526 1 1.56888 17.2988 11.0077 -8.94926
527 1 4.71112 17.3014 11.0092 -8.94743
534 1 4.71473 20.4431 11.0077 -8.94946
389 1 15.7248 18.8703 0.000403363 -8.94963
383 1 6.2892 18.8696 -0.000110369 -8.94945
377 1 18.8704 15.7254 0.000301299 -8.94938
512 1 1.5672 11.007 11.0078 -8.95064
513 1 4.70552 11.007 11.0081 -8.95573
514 1 7.83194 11.007 11.0165 -9.13152
515 1 11.1396 11.007 11.2689 -8.33628
516 1 14.1494 11.007 11.0212 -8.98513
517 1 17.2962 11.007 11.0088 -8.94746
518 1 20.4396 11.007 11.0075 -8.94923
519 1 1.56718 14.1531 11.0077 -8.95143
520 1 4.70376 14.1565 11.0107 -8.95802
521 1 7.82012 14.1883 11.0439 -8.91015
522 1 11.0254 14.1591 11.0368 -8.96185
523 1 14.1574 14.1552 11.0077 -8.95118
524 1 17.2981 14.1532 11.0077 -8.95025
525 1 20.4401 14.1527 11.0074 -8.95005
686 1 20.442 20.442 20.4422 -8.94905
391 1 18.87 18.8702 22.0142 -8.94905
528 1 7.85752 17.3048 11.0099 -8.95903
529 1 11.0062 17.2986 11.009 -8.95076
530 1 14.1529 17.299 11.0075 -8.94875
685 1 18.8704 18.8706 18.8707 -8.94883
684 1 17.2973 20.4422 20.4424 -8.94951
533 1 1.57048 20.4424 11.0073 -8.94945
381 1 3.14431 18.8697 22.0135 -8.9495
535 1 7.86084 20.4432 11.0075 -8.9514
536 1 11.0063 20.4421 11.0072 -8.94938
537 1 14.1518 20.4423 11.007 -8.94955
683 1 15.7253 18.8708 18.8711 -8.94953
539 1 20.4407 20.4421 11.007 -8.94948
540 1 1.57073 11.007 14.1535 -8.94897
541 1 4.71547 11.007 14.1532 -8.94704
542 1 7.86749 11.007 14.1485 -8.99039
543 1 11.0191 11.007 14.1538 -9.05504
544 1 14.1674 11.007 14.1692 -8.942
545 1 17.3035 11.007 14.1576 -8.94919
546 1 20.4428 11.007 14.1538 -8.95007
547 1 22.012 12.5798 12.5805 -8.94997
548 1 1.57025 14.1527 14.1536 -8.94954
549 1 3.13971 12.5801 12.5817 -8.94773
550 1 4.71316 14.153 14.155 -8.95093
551 1 6.28444 12.5802 12.5826 -8.97924
552 1 7.85557 14.1598 14.1649 -8.95222
553 1 9.42379 12.6054 12.5976 -8.95087
554 1 11.01 14.1613 14.1677 -8.94687
555 1 12.6304 12.6273 12.6323 -8.86312
556 1 14.1715 14.1699 14.1727 -8.92287
557 1 15.7364 12.5825 12.5869 -8.96157
558 1 17.3034 14.1554 14.1565 -8.952
559 1 18.8713 12.5799 12.5811 -8.95234
560 1 20.4426 14.1529 14.1535 -8.95052
561 1 22.0118 15.7256 12.5804 -8.95025
562 1 1.56976 17.2986 14.1538 -8.94975
563 1 3.13836 15.7275 12.5825 -8.95108
564 1 4.71146 17.3018 14.1572 -8.94451
565 1 6.27479 15.7381 12.5929 -8.9306
566 1 7.85993 17.3011 14.1559 -8.94938
567 1 9.43397 15.7338 12.5874 -8.95167
568 1 11.0076 17.302 14.1569 -8.94797
569 1 12.5879 15.7395 12.5904 -8.95607
570 1 14.1567 17.3044 14.1574 -8.95017
571 1 15.7285 15.7281 12.5819 -8.95092
572 1 17.2991 17.2995 14.1537 -8.95024
573 1 18.8701 15.7259 12.5803 -8.94987
574 1 20.4415 17.2982 14.1529 -8.94985
575 1 22.0125 18.8704 12.5801 -8.9494
576 1 1.57093 20.4423 14.1529 -8.94944
577 1 3.14181 18.8713 12.5809 -8.94921
578 1 4.71525 20.443 14.1536 -8.95003
579 1 6.28646 18.8734 12.5819 -8.95169
580 1 7.86121 20.4428 14.1533 -8.94971
581 1 9.43398 18.8722 12.5815 -8.95053
582 1 11.0069 20.443 14.1534 -8.94987
583 1 12.5799 18.8728 12.5809 -8.95337
584 1 14.1526 20.4434 14.1531 -8.95106
585 1 15.7252 18.8711 12.58 -8.94952
586 1 17.2973 20.4425 14.1525 -8.94968
587 1 18.8692 18.8704 12.5798 -8.94934
588 1 20.4412 20.4422 14.1525 -8.94945
589 1 1.57252 11.007 17.298 -8.94955
590 1 4.71694 11.007 17.2976 -8.94936
591 1 7.86278 11.007 17.2972 -8.94713
592 1 11.0092 11.007 17.3008 -8.94595
593 1 14.1575 11.007 17.3052 -8.9493
594 1 17.3009 11.007 17.3011 -8.94927
595 1 20.4433 11.007 17.2988 -8.94948
596 1 22.0143 12.5798 15.726 -8.94954
597 1 1.57243 14.1522 17.298 -8.94955
598 1 3.14382 12.5794 15.7258 -8.94932
599 1 4.71681 14.1516 17.298 -8.95002
600 1 6.28978 12.5784 15.7253 -8.94997
601 1 7.86193 14.1523 17.3 -8.95278
602 1 9.43723 12.5797 15.7287 -8.95393
603 1 11.0078 14.1542 17.3029 -8.95094
604 1 12.5865 12.5828 15.7395 -8.96087
605 1 14.1564 14.1556 17.305 -8.95189
606 1 15.7319 12.582 15.7326 -8.9468
607 1 17.3006 14.1541 17.3008 -8.94889
608 1 18.8726 12.5804 15.7276 -8.9492
609 1 20.4432 14.1528 17.2987 -8.94937
610 1 22.0139 15.7254 15.7259 -8.94987
611 1 1.57192 17.2976 17.2982 -8.94983
612 1 3.14282 15.7253 15.7265 -8.95023
613 1 4.71555 17.2982 17.2993 -8.94946
614 1 6.28587 15.7276 15.7301 -8.94961
615 1 7.8611 17.2983 17.2993 -8.94886
616 1 9.43375 15.7283 15.7302 -8.94656
617 1 11.0071 17.299 17.3 -8.94923
618 1 12.5827 15.7299 15.7322 -8.94836
619 1 14.1538 17.3 17.3007 -8.94942
620 1 15.7321 15.7319 15.7326 -8.94247
621 1 17.2999 17.3001 17.3002 -8.9475
622 1 18.8722 15.7267 15.727 -8.94992
623 1 20.4427 17.2981 17.2984 -8.9495
624 1 22.0133 18.8703 15.7256 -8.94952
625 1 1.57167 20.4421 17.298 -8.94909
626 1 3.14262 18.871 15.7267 -8.94819
627 1 4.71642 20.4421 17.298 -8.94959
628 1 6.28816 18.871 15.7265 -8.94964
629 1 7.86148 20.4422 17.2981 -8.94936
630 1 9.43392 18.8713 15.7267 -8.94925
631 1 11.0068 20.4424 17.2982 -8.94947
632 1 12.5802 18.872 15.727 -8.94918
633 1 14.1524 20.4427 17.2984 -8.94951
634 1 15.7267 18.8727 15.7272 -8.94948
635 1 17.2979 20.4428 17.2984 -8.94942
636 1 18.8701 18.8707 15.7256 -8.94979
637 1 20.4418 20.4422 17.2978 -8.94948
638 1 1.57286 11.007 20.442 -8.94956
639 1 4.71731 11.007 20.4419 -8.94967
640 1 7.86212 11.007 20.4424 -8.94896
641 1 11.0071 11.007 20.4436 -8.94854
642 1 14.1538 11.007 20.4439 -8.95057
643 1 17.2989 11.007 20.4432 -8.94939
644 1 20.4429 11.007 20.4424 -8.94945
645 1 22.0148 12.5797 18.8703 -8.9495
646 1 1.57281 14.152 20.442 -8.94954
647 1 3.1449 12.5794 18.8699 -8.94958
648 1 4.71727 14.1517 20.4419 -8.94965
649 1 6.28975 12.5791 18.8698 -8.94936
650 1 7.86199 14.1518 20.4424 -8.95035
651 1 9.43498 12.5793 18.8711 -8.94957
652 1 11.0068 14.1525 20.4434 -8.95044
653 1 12.581 12.58 18.874 -8.95211
654 1 14.1532 14.1531 20.4438 -8.95098
655 1 15.7275 12.5805 18.8733 -8.94922
656 1 17.2987 14.153 20.4431 -8.94925
657 1 18.8714 12.58 18.8713 -8.94934
658 1 20.4428 14.1525 20.4424 -8.94942
659 1 22.0146 15.7249 18.8702 -8.9495
660 1 1.57256 17.2971 20.442 -8.94972
661 1 3.14471 15.7244 18.87 -8.94988
662 1 4.7168 17.2971 20.442 -8.9501
663 1 6.2891 15.7247 18.8708 -8.95074
664 1 7.86156 17.2974 20.4423 -8.94948
665 1 9.4341 15.7255 18.8716 -8.94962
666 1 11.0067 17.2978 20.4428 -8.94953
667 1 12.5802 15.7262 18.8726 -8.94973
668 1 14.1524 17.2982 20.443 -8.94961
669 1 15.7269 15.7269 18.8729 -8.94999
670 1 17.2982 17.2985 20.4429 -8.94943
671 1 18.8711 15.7257 18.8711 -8.94933
672 1 20.4424 17.2976 20.4423 -8.94944
673 1 0.000300971 18.8698 18.8702 -8.94949
674 1 1.57225 20.4419 20.4419 -8.94932
675 1 3.14423 18.8698 18.8703 -8.94948
676 1 4.71692 20.4418 20.4419 -8.94949
677 1 6.28906 18.8698 18.8702 -8.94938
678 1 7.86172 20.4418 20.442 -8.94946
679 1 9.4341 18.8701 18.8705 -8.94944
680 1 11.0067 20.442 20.4423 -8.94947
681 1 12.5796 18.8704 18.8709 -8.94939
682 1 14.1519 20.4421 20.4424 -8.94945
355 1 6.28959 12.5792 22.0143 -8.94943
357 1 9.43438 12.5792 22.0151 -8.94917
359 1 12.5798 12.5796 22.0141 -8.9518
365 1 0.000499562 15.7248 22.014 -8.94948
367 1 3.14472 15.7244 22.0137 -8.9498
369 1 6.28916 15.7245 22.0136 -8.95065
375 1 15.7258 15.7261 22.0139 -8.95009
379 1 22.0141 18.8697 22.0139 -8.94949
351 1 22.0146 12.5796 22.014 -8.94951
363 1 18.8707 12.5798 22.0142 -8.9494
385 1 9.43411 18.8698 22.0141 -8.94946
387 1 12.5793 18.87 22.0143 -8.94944
