ITEM: TIMESTEP
68
ITEM: NUMBER OF ATOMS
688
ITEM: BOX BOUNDS pp pp pp
0.0000000000000000e+00 2.2013900999999997e+01
0.0000000000000000e+00 2.2013900999999997e+01
0.0000000000000000e+00 2.2013900999999997e+01
ITEM: ATOMS id type x y z c_pot
189 1 20.4411 4.71599 11.007 -8.94949
2 1 1.5718 1.57199 1.57168 -8.94921
175 1 18.868 9.4344 9.43454 -8.94838
4 1 4.71678 1.57191 1.57159 -8.94961
174 1 15.7212 9.43641 9.43678 -8.94943
6 1 7.86198 1.57194 1.57172 -8.94946
7 1 9.4345 1.00833e-15 -0.00027894 -8.94952
8 1 11.0071 1.57196 1.57184 -8.9495
173 1 12.5726 9.43059 9.42564 -8.93036
10 1 14.1521 1.57193 1.57197 -8.94949
172 1 9.34831 9.20969 9.43998 -8.27346
12 1 17.2971 1.57184 1.57195 -8.94958
188 1 17.2978 4.71555 11.0066 -8.94901
14 1 20.4415 1.57202 1.57206 -8.94943
171 1 6.26092 9.41895 9.42791 -9.00664
16 1 1.57185 4.71667 1.5715 -8.94985
170 1 3.13326 9.43214 9.432 -8.9515
18 1 4.71604 4.716 1.57044 -8.94951
169 1 22.01 9.43392 9.43378 -8.95015
20 1 7.86166 4.71609 1.57103 -8.94917
183 1 1.56961 4.7151 11.0075 -8.94925
22 1 11.007 4.71602 1.57124 -8.94938
181 1 17.2971 1.5718 11.0068 -8.9495
24 1 14.1524 4.71584 1.57123 -8.94972
168 1 18.8696 6.28829 9.43406 -8.94936
26 1 17.2982 4.71554 1.57117 -8.9486
167 1 15.7266 6.28696 9.43341 -8.94457
28 1 20.4419 4.71656 1.57184 -8.94955
166 1 12.5777 6.28946 9.43461 -8.94957
30 1 1.57208 7.86187 1.57158 -8.94946
165 1 9.4279 6.2936 9.43802 -9.00275
32 1 4.71678 7.86212 1.57129 -8.94989
164 1 6.2766 6.2782 9.4348 -8.94632
34 1 7.86171 7.86166 1.57047 -8.95174
35 1 9.43413 6.28885 -0.000785209 -8.9496
36 1 11.0067 7.86109 1.57048 -8.95005
37 1 12.5794 6.2887 -0.000668682 -8.94966
38 1 14.1536 7.86038 1.56937 -8.95136
163 1 3.13784 6.2853 9.43395 -8.94891
40 1 17.2984 7.86109 1.57105 -8.94922
162 1 22.0115 6.28808 9.43412 -8.94986
42 1 20.4421 7.86166 1.57176 -8.94943
158 1 9.43388 3.14452 9.43473 -8.94694
44 1 3.14451 9.43448 -0.000388543 -8.94966
161 1 18.8693 3.1439 9.43427 -8.9495
160 1 15.725 3.14348 9.43407 -8.94932
159 1 12.579 3.14449 9.43448 -8.94926
48 1 15.7258 9.43396 -0.000733096 -8.9495
157 1 6.28686 3.14061 9.43464 -8.95023
50 1 22.0134 5.46433e-16 3.14432 -8.94946
51 1 1.57142 1.57173 4.71638 -8.94945
52 1 3.144 4.83832e-16 3.14381 -8.94952
53 1 4.71614 1.57113 4.7159 -8.94996
54 1 6.2894 1.08093e-15 3.14394 -8.94958
55 1 7.86199 1.57141 4.7163 -8.94964
56 1 9.43466 3.46997e-16 3.14409 -8.94956
57 1 11.0072 1.57164 4.71652 -8.9496
58 1 12.5797 1.35277e-15 3.1443 -8.94953
59 1 14.1521 1.57158 4.7169 -8.95049
60 1 15.7246 -7.32801e-17 3.14446 -8.95005
61 1 17.2969 1.57192 4.717 -8.94972
62 1 18.8692 -1.23239e-15 3.14455 -8.94965
63 1 20.4412 1.572 4.71687 -8.94947
64 1 22.0132 3.14405 3.14398 -8.94939
65 1 1.57014 4.71549 4.71536 -8.94915
66 1 3.14326 3.14335 3.14302 -8.94841
67 1 4.71292 4.71289 4.71276 -8.94527
68 1 6.28893 3.14335 3.1433 -8.94971
69 1 7.86088 4.71406 4.7149 -8.94936
70 1 9.43447 3.14352 3.14366 -8.94942
71 1 11.0071 4.71488 4.71548 -8.94832
72 1 12.5797 3.14357 3.14386 -8.94925
73 1 14.1538 4.71368 4.71507 -8.95058
74 1 15.7252 3.14311 3.14378 -8.94976
75 1 17.2979 4.71566 4.71639 -8.94979
76 1 18.8694 3.14397 3.14427 -8.94963
77 1 20.4411 4.71634 4.71651 -8.94979
78 1 22.0136 6.28909 3.14387 -8.94978
79 1 1.57086 7.86155 4.71568 -8.94974
80 1 3.14336 6.2888 3.14294 -8.95048
81 1 4.71426 7.86124 4.71444 -8.95198
82 1 6.28698 6.28693 3.14033 -8.9502
83 1 7.85672 7.8568 4.70946 -8.95408
84 1 9.43393 6.28748 3.14239 -8.94794
85 1 11.0062 7.85895 4.71207 -8.95069
86 1 12.5803 6.2875 3.14212 -8.94952
87 1 14.1622 7.85245 4.7065 -8.93539
88 1 15.728 6.28588 3.14111 -8.94611
89 1 17.3002 7.86015 4.71512 -8.95046
90 1 18.8706 6.28843 3.14366 -8.94967
91 1 20.442 7.86145 4.71623 -8.94999
92 1 -0.000124124 9.4343 3.14377 -8.94953
93 1 3.14376 9.43435 3.14323 -8.94907
94 1 6.2892 9.43508 3.14388 -8.94961
95 1 9.43452 9.43407 3.1447 -8.94857
96 1 12.5821 9.43321 3.13795 -8.95794
97 1 15.7279 9.43302 3.14133 -8.948
98 1 18.8708 9.43404 3.14345 -8.94935
99 1 22.0133 1.31066e-15 6.28927 -8.9495
100 1 1.57128 1.57161 7.86169 -8.9495
101 1 3.14372 6.40281e-16 6.2889 -8.94955
102 1 4.71579 1.57082 7.86147 -8.94973
103 1 6.28917 2.0095e-15 6.28894 -8.95055
104 1 7.86177 1.57093 7.86187 -8.95106
105 1 9.43476 1.55231e-15 6.28919 -8.95002
106 1 11.0068 1.57223 7.86214 -8.94906
107 1 12.5794 2.66532e-15 6.28962 -8.95004
108 1 14.1519 1.57196 7.86206 -8.9497
109 1 15.7244 2.33837e-15 6.28958 -8.94971
110 1 17.297 1.57191 7.86184 -8.94942
111 1 18.8691 1.86446e-15 6.28944 -8.94946
112 1 20.4412 1.57195 7.86186 -8.9495
113 1 -0.000988609 3.14379 6.28899 -8.94939
114 1 1.56967 4.71506 7.86108 -8.94926
115 1 3.14271 3.14264 6.28819 -8.94933
116 1 4.71224 4.71202 7.86004 -8.94843
117 1 6.28774 3.14106 6.28785 -8.95132
118 1 7.85839 4.71047 7.86119 -8.95754
119 1 9.43445 3.14277 6.28873 -8.95012
120 1 11.0053 4.71738 7.86247 -8.94975
121 1 12.5793 3.14348 6.2895 -8.95165
122 1 14.1521 4.71583 7.862 -8.94981
123 1 15.7247 3.14373 6.28944 -8.94979
124 1 17.2975 4.71593 7.86155 -8.94859
125 1 18.8692 3.14406 6.28931 -8.94933
126 1 20.4409 4.7161 7.86159 -8.94942
127 1 22.0118 6.28837 6.28843 -8.94999
128 1 1.56684 7.85999 7.86011 -8.95116
129 1 3.13868 6.2857 6.28579 -8.949
130 1 4.70173 7.85407 7.85586 -8.95241
131 1 6.2773 6.27805 6.27889 -8.93395
132 1 7.82305 7.83333 7.83777 -8.87234
133 1 9.43273 6.28405 6.28726 -8.9521
134 1 11.0143 7.86201 7.84976 -8.93938
135 1 12.5825 6.28292 6.28547 -8.95467
136 1 14.1568 7.85846 7.86039 -8.94808
137 1 15.7269 6.28714 6.28803 -8.9498
138 1 17.2976 7.86172 7.86253 -8.95149
139 1 18.8694 6.28877 6.28926 -8.95021
140 1 20.4402 7.86138 7.86161 -8.95012
141 1 22.0126 9.4342 6.28845 -8.94964
142 1 3.14114 9.43437 6.28734 -8.94938
143 1 6.28425 9.43646 6.28807 -8.95487
144 1 9.41993 9.41836 6.29233 -8.92878
145 1 12.6111 9.40865 6.25847 -8.88433
146 1 15.7323 9.43246 6.28605 -8.95541
147 1 18.8707 9.43418 6.28888 -8.95112
148 1 -0.000608949 2.74346e-16 9.43445 -8.94951
149 1 3.14361 6.3489e-16 9.43447 -8.94956
150 1 6.28885 1.38612e-15 9.43453 -8.95048
151 1 9.4346 1.80187e-15 9.4344 -8.94842
152 1 12.5794 5.32359e-16 9.4344 -8.94937
153 1 15.7247 1.76481e-15 9.43426 -8.94969
154 1 18.8692 2.81098e-16 9.43439 -8.94953
155 1 22.0129 3.14371 9.43438 -8.94945
156 1 3.14249 3.14252 9.43438 -8.94946
177 1 4.71572 1.5708 11.0075 -8.9496
184 1 4.71175 4.71205 11.0087 -8.94754
3 1 3.14453 9.25231e-16 -0.000363737 -8.94956
11 1 15.7244 1.7487e-15 -0.000163662 -8.94954
41 1 18.8699 6.28894 -0.000236244 -8.94941
19 1 6.28936 3.14425 -0.000523542 -8.94946
25 1 15.7247 3.14402 -0.000252772 -8.94965
176 1 1.57127 1.57161 11.0072 -8.94947
47 1 12.5795 9.43435 22.013 -8.95153
178 1 7.86179 1.57091 11.0072 -8.95124
179 1 11.0067 1.57199 11.0068 -8.94919
180 1 14.1522 1.57163 11.0066 -8.94975
343 1 18.8704 9.43413 18.8703 -8.94934
182 1 20.4412 1.57193 11.007 -8.9495
342 1 15.7264 9.43368 18.8719 -8.9491
46 1 9.43432 9.43455 22.0134 -8.94881
185 1 7.85802 4.71002 11.0093 -8.95812
186 1 11.0058 4.71615 11.0077 -8.94981
187 1 14.1534 4.71423 11.0061 -8.94895
341 1 12.5797 9.4342 18.8725 -8.95315
340 1 9.43438 9.4348 18.8684 -8.94789
190 1 1.56649 7.86021 11.0073 -8.95138
191 1 4.70037 7.85575 11.0102 -8.95559
192 1 7.81753 7.83057 11.0407 -8.91265
193 1 11.0277 7.85834 11.0321 -8.97132
194 1 14.1611 7.85543 11.0058 -8.94702
195 1 17.2994 7.8603 11.0062 -8.95057
196 1 20.4405 7.86117 11.0068 -8.95033
197 1 22.0133 1.24483e-15 12.5797 -8.9495
198 1 1.57141 1.57166 14.1526 -8.94948
199 1 3.14368 2.38585e-15 12.5801 -8.9495
200 1 4.71603 1.5709 14.1533 -8.95024
201 1 6.28915 4.92601e-16 12.5801 -8.95083
202 1 7.86196 1.57154 14.1527 -8.94932
203 1 9.43462 1.95574e-15 12.5799 -8.94959
204 1 11.0069 1.57134 14.1527 -8.94965
205 1 12.5794 3.31054e-15 12.5794 -8.95111
206 1 14.1525 1.5707 14.1524 -8.95133
207 1 15.7247 1.34082e-15 12.5793 -8.94968
208 1 17.2972 1.57162 14.152 -8.94968
209 1 18.8692 1.58038e-15 12.5794 -8.94949
210 1 20.4413 1.57193 14.1521 -8.94949
211 1 22.013 3.14374 12.5798 -8.9494
212 1 1.57003 4.71523 14.1536 -8.94965
213 1 3.14259 3.14254 12.5807 -8.94924
214 1 4.71203 4.71179 14.157 -8.94497
215 1 6.2874 3.14063 12.5815 -8.95199
216 1 7.86107 4.71504 14.1541 -8.94884
217 1 9.43439 3.14313 12.5805 -8.949
218 1 11.0064 4.71355 14.1548 -8.94794
219 1 12.5798 3.141 12.5799 -8.95422
220 1 14.1563 4.70894 14.1564 -8.95113
221 1 15.7252 3.14296 12.5793 -8.94951
222 1 17.2988 4.71481 14.1528 -8.94994
223 1 18.8694 3.14382 12.5794 -8.94939
224 1 20.4415 4.71601 14.1524 -8.94976
225 1 22.012 6.28822 12.5802 -8.95015
226 1 1.56923 7.86049 14.1541 -8.94925
227 1 3.13819 6.28568 12.5825 -8.95059
228 1 4.7107 7.85843 14.1571 -8.94619
229 1 6.27451 6.27568 12.5923 -8.93349
230 1 7.85872 7.86054 14.1577 -8.96085
231 1 9.43389 6.28633 12.5831 -8.94674
232 1 11.0054 7.85593 14.1619 -8.94763
233 1 12.5878 6.27245 12.5885 -8.961
234 1 14.1753 7.83929 14.1754 -8.90781
235 1 15.7293 6.28517 12.5805 -8.94958
236 1 17.304 7.85859 14.1554 -8.95316
237 1 18.8704 6.28824 12.5796 -8.94972
238 1 20.4422 7.86108 14.1529 -8.95078
239 1 22.0111 9.43387 12.5804 -8.95056
240 1 3.13536 9.43245 12.5827 -8.94852
241 1 6.27149 9.42914 12.5883 -8.97671
242 1 9.43012 9.43311 12.5691 -8.98581
243 1 12.647 9.36693 12.6475 -8.81197
244 1 15.7384 9.43148 12.5846 -8.96628
245 1 18.8716 9.43414 12.58 -8.9531
246 1 -0.000445134 3.45099e-16 15.7247 -8.94951
247 1 1.57173 1.57185 17.2975 -8.94912
248 1 3.14393 6.52527e-16 15.7253 -8.94964
249 1 4.7169 1.57194 17.2975 -8.94967
250 1 6.28947 1.32245e-15 15.7251 -8.94947
251 1 7.86186 1.57192 17.2975 -8.94937
252 1 9.43443 6.13898e-16 15.7251 -8.94952
253 1 11.0069 1.57183 17.2974 -8.94947
254 1 12.5795 4.55102e-16 15.725 -8.94956
255 1 14.152 1.57164 17.2974 -8.94955
256 1 15.7249 -1.02883e-15 15.725 -8.95035
257 1 17.2975 1.5714 17.2976 -8.94946
258 1 18.8693 8.82588e-16 15.7245 -8.94965
259 1 20.4416 1.57192 17.2972 -8.94953
260 1 22.0133 3.14385 15.7251 -8.9495
261 1 1.57172 4.7163 17.298 -8.94946
262 1 3.14301 3.14287 15.7263 -8.94826
263 1 4.71622 4.71608 17.2986 -8.95022
264 1 6.28908 3.14357 15.7257 -8.94968
265 1 7.86144 4.7162 17.2981 -8.94855
266 1 9.43408 3.14341 15.7257 -8.94927
267 1 11.0065 4.71574 17.2984 -8.94915
268 1 12.5796 3.1428 15.7256 -8.94919
269 1 14.1528 4.71487 17.299 -8.94996
270 1 15.7262 3.1416 15.7263 -8.94966
271 1 17.2993 4.71426 17.2994 -8.94666
272 1 18.8699 3.14358 15.7249 -8.94978
273 1 20.4422 4.7161 17.2978 -8.94946
274 1 22.0134 6.28852 15.7256 -8.94972
275 1 1.57181 7.86155 17.2981 -8.94943
276 1 3.14243 6.28777 15.727 -8.94886
277 1 4.7164 7.86179 17.2985 -8.95011
278 1 6.28754 6.28786 15.7281 -8.95223
279 1 7.86235 7.86275 17.2972 -8.95229
280 1 9.43289 6.28711 15.7277 -8.94612
281 1 11.0059 7.86075 17.2998 -8.95065
282 1 12.5803 6.28529 15.7296 -8.94985
283 1 14.1555 7.85845 17.3044 -8.95264
284 1 15.7327 6.28103 15.7328 -8.93945
285 1 17.2996 7.8603 17.2996 -8.94868
286 1 18.8717 6.28758 15.7262 -8.9501
287 1 20.4424 7.86139 17.298 -8.9493
288 1 22.0135 9.43406 15.7258 -8.94947
289 1 3.14248 9.43392 15.7267 -8.94893
290 1 6.28782 9.43487 15.7262 -8.95113
291 1 9.43658 9.43675 15.7205 -8.94726
292 1 12.5859 9.43061 15.7397 -8.96418
293 1 15.7316 9.43206 15.7316 -8.94579
294 1 18.8719 9.43368 15.7265 -8.94906
295 1 22.0137 9.58088e-16 18.8695 -8.94919
296 1 1.57218 1.57209 20.4416 -8.94943
297 1 3.14457 1.70543e-15 18.8695 -8.94965
298 1 4.71703 1.57215 20.4415 -8.9495
299 1 6.28949 3.26573e-16 18.8695 -8.94943
300 1 7.86194 1.5721 20.4415 -8.9495
301 1 9.43442 1.03377e-15 18.8695 -8.94949
302 1 11.0069 1.57206 20.4416 -8.9495
303 1 12.5794 1.2639e-15 18.8695 -8.94947
304 1 14.1519 1.57202 20.4416 -8.94948
305 1 15.7245 3.89135e-15 18.8695 -8.94959
306 1 17.297 1.57195 20.4417 -8.9496
307 1 18.8695 -2.27167e-16 18.8696 -8.94927
308 1 20.4418 1.57206 20.4417 -8.94907
309 1 1.66359e-06 3.14426 18.8697 -8.94942
310 1 1.57226 4.7169 20.4417 -8.9497
311 1 3.14435 3.14419 18.8698 -8.94971
312 1 4.7169 4.71683 20.4414 -8.95014
313 1 6.28936 3.14427 18.8697 -8.94933
314 1 7.86172 4.71661 20.4416 -8.94947
315 1 9.43425 3.1441 18.8697 -8.94948
316 1 11.0067 4.71643 20.4417 -8.94952
317 1 12.5794 3.14396 18.8698 -8.94939
318 1 14.152 4.71626 20.4419 -8.94964
319 1 15.7248 3.14366 18.87 -8.94974
320 1 17.2977 4.71598 20.4421 -8.94948
321 1 18.87 3.14371 18.87 -8.94872
322 1 20.442 4.7167 20.4418 -8.94948
323 1 22.014 6.28918 18.8698 -8.94946
324 1 1.57229 7.8619 20.4417 -8.94956
325 1 3.14444 6.2893 18.87 -8.9498
326 1 4.71707 7.86212 20.4416 -8.94988
327 1 6.28949 6.28956 18.8697 -8.95075
328 1 7.86199 7.86218 20.4411 -8.94999
329 1 9.43385 6.28886 18.8701 -8.94965
330 1 11.0064 7.86163 20.4418 -8.95012
331 1 12.5792 6.28855 18.8708 -8.94968
332 1 14.1525 7.8612 20.4425 -8.95117
333 1 15.7261 6.28757 18.8718 -8.95011
334 1 17.298 7.8613 20.4422 -8.94929
335 1 18.8703 6.28869 18.8702 -8.94936
336 1 20.4421 7.86173 20.4418 -8.94947
337 1 22.0141 9.43433 18.8699 -8.94949
338 1 3.14438 9.4344 18.87 -8.94959
339 1 6.28955 9.43476 18.8694 -8.9501
45 1 6.28955 9.43469 22.0135 -8.94956
5 1 6.28949 2.05874e-16 22.0136 -8.94949
9 1 12.5795 8.49339e-16 22.0137 -8.94951
39 1 15.7254 6.28828 22.0132 -8.95016
15 1 22.0139 3.1444 22.0136 -8.94954
17 1 3.1443 3.14425 22.0133 -8.94954
33 1 6.28925 6.28926 22.0128 -8.95052
31 1 3.14452 6.28949 22.0135 -8.94988
27 1 18.8697 3.14405 22.0137 -8.94915
29 1 0.000123029 6.28934 22.0137 -8.94951
1 1 -0.000164727 2.49634e-15 22.0137 -8.9492
13 1 18.8693 8.64079e-16 22.0137 -8.94941
21 1 9.43441 3.14417 22.0135 -8.94949
23 1 12.5795 3.14414 22.0136 -8.94943
43 1 22.0141 9.4344 22.0136 -8.94954
49 1 18.87 9.43424 22.0137 -8.94943
344 1 1.5721 11.007 1.57157 -8.94957
345 1 4.71675 11.007 1.57137 -8.94981
346 1 7.86211 11.007 1.57256 -8.94815
347 1 11.007 11.007 1.57165 -8.94784
348 1 14.1541 11.007 1.56918 -8.94982
349 1 17.2986 11.007 1.57096 -8.94949
350 1 20.4421 11.007 1.57173 -8.94948
538 1 17.2971 20.4421 11.0068 -8.9495
352 1 1.57208 14.152 1.57158 -8.94946
353 1 3.14451 12.5794 -0.000388543 -8.94966
354 1 4.71678 14.1518 1.57129 -8.94989
688 3 10.2396 11.007 9.53158 2.20989
356 1 7.86171 14.1522 1.57047 -8.95174
511 1 18.8693 18.87 9.43427 -8.9495
358 1 11.0067 14.1528 1.57048 -8.95005
510 1 15.725 18.8704 9.43407 -8.94932
360 1 14.1536 14.1535 1.56937 -8.95136
361 1 15.7258 12.5799 -0.000733096 -8.9495
362 1 17.2984 14.1528 1.57105 -8.94922
532 1 20.4411 17.2979 11.007 -8.94949
364 1 20.4421 14.1522 1.57176 -8.94943
509 1 12.579 18.8694 9.43448 -8.94926
366 1 1.57185 17.2972 1.5715 -8.94985
508 1 9.43388 18.8694 9.43473 -8.94694
368 1 4.71604 17.2979 1.57044 -8.94951
507 1 6.28686 18.8733 9.43464 -8.95023
370 1 7.86166 17.2978 1.57103 -8.94917
371 1 9.43413 15.7251 -0.000785209 -8.9496
372 1 11.007 17.2979 1.57124 -8.94938
373 1 12.5794 15.7252 -0.000668682 -8.94966
374 1 14.1524 17.2981 1.57123 -8.94972
506 1 3.14249 18.8714 9.43438 -8.94946
376 1 17.2982 17.2984 1.57117 -8.9486
505 1 22.0129 18.8702 9.43438 -8.94945
378 1 20.4419 17.2973 1.57184 -8.94955
504 1 18.8696 15.7256 9.43406 -8.94936
380 1 1.5718 20.4419 1.57168 -8.94921
503 1 15.7266 15.7269 9.43341 -8.94457
382 1 4.71678 20.442 1.57159 -8.94961
502 1 12.5777 15.7244 9.43461 -8.94957
384 1 7.86198 20.442 1.57172 -8.94946
531 1 17.2978 17.2983 11.0066 -8.94901
386 1 11.0071 20.4419 1.57184 -8.9495
687 2 9.5891 11.007 10.5443 0.0557431
388 1 14.1521 20.442 1.57197 -8.94949
501 1 9.4279 15.7203 9.43802 -9.00275
390 1 17.2971 20.4421 1.57195 -8.94958
500 1 6.2766 15.7357 9.4348 -8.94632
392 1 20.4415 20.4419 1.57206 -8.94943
393 1 1.57099 11.007 4.71553 -8.94948
394 1 4.71471 11.007 4.71454 -8.94666
395 1 7.86359 11.007 4.72092 -8.94617
396 1 11.0093 11.007 4.71873 -8.99319
397 1 14.1606 11.007 4.70834 -8.94302
398 1 17.3005 11.007 4.71484 -8.94934
399 1 20.4422 11.007 4.71606 -8.94984
400 1 -0.000124124 12.5796 3.14377 -8.94953
401 1 1.57086 14.1524 4.71568 -8.94974
402 1 3.14376 12.5796 3.14323 -8.94907
403 1 4.71426 14.1527 4.71444 -8.95198
404 1 6.2892 12.5788 3.14388 -8.94961
405 1 7.85672 14.1571 4.70946 -8.95408
406 1 9.43452 12.5798 3.1447 -8.94857
407 1 11.0062 14.1549 4.71207 -8.95069
408 1 12.5821 12.5807 3.13795 -8.95794
409 1 14.1622 14.1614 4.7065 -8.93539
410 1 15.7279 12.5809 3.14133 -8.948
411 1 17.3002 14.1538 4.71512 -8.95046
412 1 18.8708 12.5799 3.14345 -8.94935
413 1 20.442 14.1525 4.71623 -8.94999
414 1 22.0136 15.7248 3.14387 -8.94978
415 1 1.57014 17.2984 4.71536 -8.94915
416 1 3.14336 15.7251 3.14294 -8.95048
417 1 4.71292 17.301 4.71276 -8.94527
418 1 6.28698 15.727 3.14033 -8.9502
419 1 7.86088 17.2998 4.7149 -8.94936
420 1 9.43393 15.7264 3.14239 -8.94794
421 1 11.0071 17.299 4.71548 -8.94832
422 1 12.5803 15.7264 3.14212 -8.94952
423 1 14.1538 17.3002 4.71507 -8.95058
424 1 15.728 15.728 3.14111 -8.94611
425 1 17.2979 17.2982 4.71639 -8.94979
426 1 18.8706 15.7255 3.14366 -8.94967
427 1 20.4411 17.2976 4.71651 -8.94979
428 1 22.0132 18.8699 3.14398 -8.94939
429 1 1.57142 20.4422 4.71638 -8.94945
430 1 3.14326 18.8706 3.14302 -8.94841
431 1 4.71614 20.4428 4.7159 -8.94996
432 1 6.28893 18.8706 3.1433 -8.94971
433 1 7.86199 20.4425 4.7163 -8.94964
434 1 9.43447 18.8704 3.14366 -8.94942
435 1 11.0072 20.4423 4.71652 -8.9496
436 1 12.5797 18.8703 3.14386 -8.94925
437 1 14.1521 20.4423 4.7169 -8.95049
438 1 15.7252 18.8708 3.14378 -8.94976
439 1 17.2969 20.442 4.717 -8.94972
440 1 18.8694 18.8699 3.14427 -8.94963
441 1 20.4412 20.4419 4.71687 -8.94947
442 1 1.56842 11.007 7.86027 -8.94738
443 1 4.71211 11.007 7.86017 -8.93869
444 1 7.87265 11.007 7.87457 -8.99398
445 1 11.0672 11.007 7.68208 -8.27039
446 1 14.1587 11.007 7.85559 -8.96311
447 1 17.2981 11.007 7.86182 -8.95123
448 1 20.4405 11.007 7.86152 -8.94958
449 1 22.0126 12.5797 6.28845 -8.94964
450 1 1.56684 14.1539 7.86011 -8.95116
451 1 3.14114 12.5795 6.28734 -8.94938
452 1 4.70173 14.1598 7.85586 -8.95241
453 1 6.28425 12.5774 6.28807 -8.95487
454 1 7.82305 14.1806 7.83777 -8.87234
455 1 9.41993 12.5955 6.29233 -8.92878
456 1 11.0143 14.1519 7.84976 -8.93938
457 1 12.6111 12.6053 6.25847 -8.88433
458 1 14.1568 14.1554 7.86039 -8.94808
459 1 15.7323 12.5814 6.28605 -8.95541
460 1 17.2976 14.1522 7.86253 -8.95149
461 1 18.8707 12.5797 6.28888 -8.95112
462 1 20.4402 14.1525 7.86161 -8.95012
463 1 22.0118 15.7255 6.28843 -8.94999
464 1 1.56967 17.2988 7.86108 -8.94926
465 1 3.13868 15.7282 6.28579 -8.949
466 1 4.71224 17.3019 7.86004 -8.94843
467 1 6.2773 15.7359 6.27889 -8.93395
468 1 7.85839 17.3034 7.86119 -8.95754
469 1 9.43273 15.7298 6.28726 -8.9521
470 1 11.0053 17.2965 7.86247 -8.94975
471 1 12.5825 15.731 6.28547 -8.95467
472 1 14.1521 17.2981 7.862 -8.94981
473 1 15.7269 15.7268 6.28803 -8.9498
474 1 17.2975 17.298 7.86155 -8.94859
475 1 18.8694 15.7251 6.28926 -8.95021
476 1 20.4409 17.2978 7.86159 -8.94942
477 1 -0.000988609 18.8701 6.28899 -8.94939
478 1 1.57128 20.4423 7.86169 -8.9495
479 1 3.14271 18.8713 6.28819 -8.94933
480 1 4.71579 20.4431 7.86147 -8.94973
481 1 6.28774 18.8728 6.28785 -8.95132
482 1 7.86177 20.443 7.86187 -8.95106
483 1 9.43445 18.8711 6.28873 -8.95012
484 1 11.0068 20.4417 7.86214 -8.94906
485 1 12.5793 18.8704 6.2895 -8.95165
486 1 14.1519 20.4419 7.86206 -8.9497
487 1 15.7247 18.8702 6.28944 -8.94979
488 1 17.297 20.442 7.86184 -8.94942
489 1 18.8692 18.8698 6.28931 -8.94933
490 1 20.4412 20.442 7.86186 -8.9495
491 1 22.01 12.58 9.43378 -8.95015
492 1 3.13326 12.5818 9.432 -8.9515
493 1 6.26092 12.595 9.42791 -9.00664
494 1 9.34831 12.8042 9.43998 -8.27346
495 1 12.5726 12.5833 9.42564 -8.93036
496 1 15.7212 12.5775 9.43678 -8.94943
497 1 18.868 12.5795 9.43454 -8.94838
498 1 22.0115 15.7258 9.43412 -8.94986
499 1 3.13784 15.7286 9.43395 -8.94891
526 1 1.56961 17.2988 11.0075 -8.94925
527 1 4.71175 17.3019 11.0087 -8.94754
534 1 4.71572 20.4431 11.0075 -8.9496
389 1 15.7247 18.8699 -0.000252772 -8.94965
383 1 6.28936 18.8697 -0.000523542 -8.94946
377 1 18.8699 15.725 -0.000236244 -8.94941
512 1 1.56425 11.007 11.0073 -8.95319
513 1 4.69151 11.007 11.0074 -8.96593
514 1 7.77889 11.007 11.0079 -9.07187
515 1 11.2469 11.007 11.2592 -8.26433
516 1 14.1383 11.007 11.0222 -9.01407
517 1 17.2957 11.007 11.0071 -8.94265
518 1 20.4395 11.007 11.0068 -8.94932
519 1 1.56649 14.1537 11.0073 -8.95138
520 1 4.70037 14.1581 11.0102 -8.95559
521 1 7.81753 14.1833 11.0407 -8.91265
522 1 11.0277 14.1556 11.0321 -8.97132
523 1 14.1611 14.1585 11.0058 -8.94702
524 1 17.2994 14.1536 11.0062 -8.95057
525 1 20.4405 14.1527 11.0068 -8.95033
686 1 20.4418 20.4418 20.4417 -8.94907
391 1 18.8697 18.8699 22.0137 -8.94915
528 1 7.85802 17.3039 11.0093 -8.95812
529 1 11.0058 17.2978 11.0077 -8.94981
530 1 14.1534 17.2997 11.0061 -8.94895
685 1 18.87 18.8702 18.87 -8.94872
684 1 17.297 20.442 20.4417 -8.9496
533 1 1.57127 20.4423 11.0072 -8.94947
381 1 3.1443 18.8697 22.0133 -8.94954
535 1 7.86179 20.443 11.0072 -8.95124
536 1 11.0067 20.4419 11.0068 -8.94919
537 1 14.1522 20.4423 11.0066 -8.94975
683 1 15.7248 18.8702 18.87 -8.94974
539 1 20.4412 20.442 11.007 -8.9495
540 1 1.56901 11.007 14.154 -8.94916
541 1 4.71033 11.007 14.1554 -8.94509
542 1 7.86049 11.007 14.1482 -8.99825
543 1 11.025 11.007 14.1496 -9.05691
544 1 14.1696 11.007 14.1694 -8.93962
545 1 17.3037 11.007 14.1564 -8.9492
546 1 20.4423 11.007 14.1533 -8.9503
547 1 22.0111 12.58 12.5804 -8.95056
548 1 1.56923 14.1534 14.1541 -8.94925
549 1 3.13536 12.5814 12.5827 -8.94852
550 1 4.7107 14.1555 14.1571 -8.94619
551 1 6.27149 12.5848 12.5883 -8.97671
552 1 7.85872 14.1534 14.1577 -8.96085
553 1 9.43012 12.5808 12.5691 -8.98581
554 1 11.0054 14.158 14.1619 -8.94763
555 1 12.647 12.647 12.6475 -8.81197
556 1 14.1753 14.1746 14.1754 -8.90781
557 1 15.7384 12.5824 12.5846 -8.96628
558 1 17.304 14.1553 14.1554 -8.95316
559 1 18.8716 12.5798 12.58 -8.9531
560 1 20.4422 14.1528 14.1529 -8.95078
561 1 22.012 15.7257 12.5802 -8.95015
562 1 1.57003 17.2987 14.1536 -8.94965
563 1 3.13819 15.7282 12.5825 -8.95059
564 1 4.71203 17.3021 14.157 -8.94497
565 1 6.27451 15.7382 12.5923 -8.93349
566 1 7.86107 17.2989 14.1541 -8.94884
567 1 9.43389 15.7276 12.5831 -8.94674
568 1 11.0064 17.3004 14.1548 -8.94794
569 1 12.5878 15.7414 12.5885 -8.961
570 1 14.1563 17.305 14.1564 -8.95113
571 1 15.7293 15.7287 12.5805 -8.94958
572 1 17.2988 17.2991 14.1528 -8.94994
573 1 18.8704 15.7257 12.5796 -8.94972
574 1 20.4415 17.2979 14.1524 -8.94976
575 1 22.013 18.8702 12.5798 -8.9494
576 1 1.57141 20.4422 14.1526 -8.94948
577 1 3.14259 18.8714 12.5807 -8.94924
578 1 4.71603 20.443 14.1533 -8.95024
579 1 6.2874 18.8733 12.5815 -8.95199
580 1 7.86196 20.4424 14.1527 -8.94932
581 1 9.43439 18.8708 12.5805 -8.949
582 1 11.0069 20.4426 14.1527 -8.94965
583 1 12.5798 18.8729 12.5799 -8.95422
584 1 14.1525 20.4432 14.1524 -8.95133
585 1 15.7252 18.8709 12.5793 -8.94951
586 1 17.2972 20.4423 14.152 -8.94968
587 1 18.8694 18.8701 12.5794 -8.94939
588 1 20.4413 20.442 14.1521 -8.94949
589 1 1.57177 11.007 17.298 -8.94951
590 1 4.71608 11.007 17.2982 -8.9494
591 1 7.86245 11.007 17.2952 -8.94926
592 1 11.0071 11.007 17.2974 -8.94623
593 1 14.1565 11.007 17.304 -8.94895
594 1 17.2997 11.007 17.2997 -8.94909
595 1 20.4424 11.007 17.2981 -8.94942
596 1 22.0135 12.5798 15.7258 -8.94947
597 1 1.57181 14.1523 17.2981 -8.94943
598 1 3.14248 12.58 15.7267 -8.94893
599 1 4.7164 14.1521 17.2985 -8.95011
600 1 6.28782 12.579 15.7262 -8.95113
601 1 7.86235 14.1512 17.2972 -8.95229
602 1 9.43658 12.5771 15.7205 -8.94726
603 1 11.0059 14.1531 17.2998 -8.95065
604 1 12.5859 12.5833 15.7397 -8.96418
605 1 14.1555 14.1554 17.3044 -8.95264
606 1 15.7316 12.5818 15.7316 -8.94579
607 1 17.2996 14.1536 17.2996 -8.94868
608 1 18.8719 12.5802 15.7265 -8.94906
609 1 20.4424 14.1525 17.298 -8.9493
610 1 22.0134 15.7254 15.7256 -8.94972
611 1 1.57172 17.2976 17.298 -8.94946
612 1 3.14243 15.7261 15.727 -8.94886
613 1 4.71622 17.2978 17.2986 -8.95022
614 1 6.28754 15.726 15.7281 -8.95223
615 1 7.86144 17.2977 17.2981 -8.94855
616 1 9.43289 15.7268 15.7277 -8.94612
617 1 11.0065 17.2982 17.2984 -8.94915
618 1 12.5803 15.7286 15.7296 -8.94985
619 1 14.1528 17.299 17.299 -8.94996
620 1 15.7327 15.7329 15.7328 -8.93945
621 1 17.2993 17.2996 17.2994 -8.94666
622 1 18.8717 15.7263 15.7262 -8.9501
623 1 20.4422 17.2978 17.2978 -8.94946
624 1 22.0133 18.8701 15.7251 -8.9495
625 1 1.57173 20.4421 17.2975 -8.94912
626 1 3.14301 18.871 15.7263 -8.94826
627 1 4.7169 20.442 17.2975 -8.94967
628 1 6.28908 18.8703 15.7257 -8.94968
629 1 7.86186 20.442 17.2975 -8.94937
630 1 9.43408 18.8705 15.7257 -8.94927
631 1 11.0069 20.4421 17.2974 -8.94947
632 1 12.5796 18.8711 15.7256 -8.94919
633 1 14.152 20.4423 17.2974 -8.94955
634 1 15.7262 18.8723 15.7263 -8.94966
635 1 17.2975 20.4425 17.2976 -8.94946
636 1 18.8699 18.8703 15.7249 -8.94978
637 1 20.4416 20.442 17.2972 -8.94953
638 1 1.57227 11.007 20.4417 -8.94957
639 1 4.71698 11.007 20.4416 -8.94982
640 1 7.86203 11.007 20.4411 -8.94899
641 1 11.0064 11.007 20.4416 -8.94853
642 1 14.1529 11.007 20.4426 -8.95054
643 1 17.298 11.007 20.4422 -8.94943
644 1 20.4421 11.007 20.4418 -8.94949
645 1 22.0141 12.5796 18.8699 -8.94949
646 1 1.57229 14.152 20.4417 -8.94956
647 1 3.14438 12.5795 18.87 -8.94959
648 1 4.71707 14.1518 20.4416 -8.94988
649 1 6.28955 12.5791 18.8694 -8.9501
650 1 7.86199 14.1517 20.4411 -8.94999
651 1 9.43438 12.5791 18.8684 -8.94789
652 1 11.0064 14.1523 20.4418 -8.95012
653 1 12.5797 12.5797 18.8725 -8.95315
654 1 14.1525 14.1527 20.4425 -8.95117
655 1 15.7264 12.5802 18.8719 -8.9491
656 1 17.298 14.1526 20.4422 -8.94929
657 1 18.8704 12.5798 18.8703 -8.94934
658 1 20.4421 14.1522 20.4418 -8.94947
659 1 22.014 15.7247 18.8698 -8.94946
660 1 1.57226 17.297 20.4417 -8.9497
661 1 3.14444 15.7246 18.87 -8.9498
662 1 4.7169 17.2971 20.4414 -8.95014
663 1 6.28949 15.7243 18.8697 -8.95075
664 1 7.86172 17.2973 20.4416 -8.94947
665 1 9.43385 15.725 18.8701 -8.94965
666 1 11.0067 17.2975 20.4417 -8.94952
667 1 12.5792 15.7254 18.8708 -8.94968
668 1 14.152 17.2976 20.4419 -8.94964
669 1 15.7261 15.7263 18.8718 -8.95011
670 1 17.2977 17.2979 20.4421 -8.94948
671 1 18.8703 15.7252 18.8702 -8.94936
672 1 20.442 17.2972 20.4418 -8.94948
673 1 1.66359e-06 18.8696 18.8697 -8.94942
674 1 1.57218 20.4418 20.4416 -8.94943
675 1 3.14435 18.8697 18.8698 -8.94971
676 1 4.71703 20.4418 20.4415 -8.9495
677 1 6.28936 18.8696 18.8697 -8.94933
678 1 7.86194 20.4418 20.4415 -8.9495
679 1 9.43425 18.8698 18.8697 -8.94948
680 1 11.0069 20.4418 20.4416 -8.9495
681 1 12.5794 18.8699 18.8698 -8.94939
682 1 14.1519 20.4419 20.4416 -8.94948
355 1 6.28955 12.5792 22.0135 -8.94956
357 1 9.43432 12.5793 22.0134 -8.94881
359 1 12.5795 12.5796 22.013 -8.95153
365 1 0.000123029 15.7246 22.0137 -8.94951
367 1 3.14452 15.7244 22.0135 -8.94988
369 1 6.28925 15.7246 22.0128 -8.95052
375 1 15.7254 15.7256 22.0132 -8.95016
379 1 22.0139 18.8695 22.0136 -8.94954
351 1 22.0141 12.5795 22.0136 -8.94954
363 1 18.87 12.5797 22.0137 -8.94943
385 1 9.43441 18.8697 22.0135 -8.94949
387 1 12.5795 18.8698 22.0136 -8.94943
