ITEM: TIMESTEP
119
ITEM: NUMBER OF ATOMS
688
ITEM: BOX BOUNDS pp pp pp
0.0000000000000000e+00 2.2013900999999997e+01
0.0000000000000000e+00 2.2013900999999997e+01
0.0000000000000000e+00 2.2013900999999997e+01
ITEM: ATOMS id type x y z c_pot
189 1 20.4405 4.71582 11.0072 -8.94954
2 1 1.5717 1.57193 1.57178 -8.94916
175 1 18.8673 9.43431 9.43545 -8.94778
4 1 4.7166 1.57191 1.57176 -8.94959
174 1 15.7198 9.43587 9.43782 -8.94327
6 1 7.86165 1.57196 1.57211 -8.94943
7 1 9.43421 -5.73791e-12 0.000227124 -8.94948
8 1 11.0066 1.57194 1.57237 -8.94948
173 1 12.5612 9.441 9.43352 -8.95021
10 1 14.1517 1.57179 1.57246 -8.94951
172 1 9.36001 9.19658 9.4333 -8.35503
12 1 17.2971 1.5716 1.57226 -8.94944
188 1 17.2975 4.71539 11.0074 -8.94891
14 1 20.4414 1.57191 1.57227 -8.94945
171 1 6.2736 9.42498 9.43396 -9.01973
16 1 1.57189 4.71658 1.5717 -8.9498
170 1 3.13695 9.43347 9.43419 -8.9505
18 1 4.71585 4.71602 1.57082 -8.94952
169 1 22.0102 9.43414 9.43452 -8.94959
20 1 7.86126 4.71618 1.57169 -8.94911
183 1 1.56888 4.71513 11.0077 -8.94926
22 1 11.0065 4.716 1.57201 -8.94936
181 1 17.2967 1.5717 11.0069 -8.94949
24 1 14.1524 4.71549 1.57173 -8.94979
168 1 18.8688 6.2883 9.43473 -8.94954
26 1 17.2983 4.71511 1.57153 -8.94819
167 1 15.7258 6.28722 9.43541 -8.94543
28 1 20.442 4.71626 1.57206 -8.94949
166 1 12.5776 6.29111 9.43676 -8.94619
30 1 1.57223 7.86179 1.5719 -8.94942
165 1 9.42916 6.29317 9.43762 -9.00613
32 1 4.71669 7.8622 1.57196 -8.94974
164 1 6.27661 6.2791 9.43614 -8.94347
34 1 7.86148 7.86188 1.57171 -8.95221
35 1 9.43392 6.28886 0.000248689 -8.94963
36 1 11.0064 7.86099 1.57135 -8.95054
37 1 12.5795 6.28847 0.000361362 -8.94979
38 1 14.1539 7.86002 1.56963 -8.95179
163 1 3.13762 6.28608 9.43489 -8.94919
40 1 17.2988 7.86072 1.57151 -8.94911
162 1 22.0109 6.28819 9.43448 -8.94999
42 1 20.4424 7.86144 1.57203 -8.94938
158 1 9.43324 3.14441 9.43536 -8.94674
44 1 3.14485 9.43449 -5.00392e-05 -8.94957
161 1 18.8686 3.14379 9.43435 -8.94949
160 1 15.7244 3.14355 9.4346 -8.94944
159 1 12.5788 3.14461 9.4352 -8.94842
48 1 15.7263 9.43374 0.000147094 -8.9494
157 1 6.28575 3.14075 9.43503 -8.94981
50 1 22.0132 -2.9162e-13 3.1443 -8.94944
51 1 1.57097 1.57173 4.71629 -8.94943
52 1 3.1437 -1.57827e-10 3.14379 -8.94952
53 1 4.71559 1.57113 4.71597 -8.95002
54 1 6.28902 -5.74909e-11 3.14413 -8.94958
55 1 7.86132 1.57146 4.71666 -8.9497
56 1 9.43413 -6.05707e-11 3.1445 -8.94954
57 1 11.0065 1.57162 4.71696 -8.94964
58 1 12.5791 -8.32092e-11 3.1447 -8.94954
59 1 14.1517 1.57136 4.71711 -8.95075
60 1 15.7243 -4.20054e-11 3.14466 -8.95009
61 1 17.2964 1.57186 4.71715 -8.94975
62 1 18.8688 -1.68988e-12 3.14469 -8.94966
63 1 20.4408 1.57195 4.71679 -8.94945
64 1 22.013 3.14397 3.14406 -8.94948
65 1 1.56978 4.71562 4.71566 -8.94952
66 1 3.14291 3.14328 3.1431 -8.94838
67 1 4.71212 4.71292 4.71322 -8.94515
68 1 6.28844 3.14338 3.14364 -8.94966
69 1 7.85984 4.71401 4.71556 -8.94925
70 1 9.43385 3.14359 3.14423 -8.94937
71 1 11.0064 4.71444 4.71585 -8.94798
72 1 12.5792 3.14343 3.14433 -8.94923
73 1 14.1543 4.71229 4.71474 -8.94992
74 1 15.7252 3.14267 3.14391 -8.94948
75 1 17.2975 4.71557 4.71673 -8.95026
76 1 18.8692 3.14378 3.14447 -8.94976
77 1 20.4407 4.71626 4.71665 -8.94987
78 1 22.0135 6.28893 3.14405 -8.94983
79 1 1.57041 7.86158 4.71622 -8.94987
80 1 3.14304 6.28882 3.14341 -8.95027
81 1 4.71331 7.86123 4.71561 -8.95123
82 1 6.28629 6.287 3.14113 -8.94997
83 1 7.85505 7.85612 4.70981 -8.95333
84 1 9.43317 6.28737 3.14312 -8.94764
85 1 11.0065 7.85752 4.71081 -8.95194
86 1 12.5801 6.28693 3.1422 -8.94951
87 1 14.1651 7.8494 4.70469 -8.92898
88 1 15.7287 6.28485 3.14089 -8.94442
89 1 17.3008 7.85969 4.71526 -8.95079
90 1 18.8706 6.28812 3.14385 -8.94966
91 1 20.4417 7.86137 4.71652 -8.95024
92 1 -0.00016028 9.43423 3.14403 -8.94952
93 1 3.14351 9.43435 3.14391 -8.94897
94 1 6.28865 9.43512 3.1451 -8.94941
95 1 9.43454 9.43447 3.14619 -8.95054
96 1 12.5824 9.43302 3.13781 -8.95988
97 1 15.7286 9.43283 3.1414 -8.94744
98 1 18.8709 9.4339 3.14375 -8.94925
99 1 22.0127 -5.92162e-12 6.28904 -8.94946
100 1 1.57049 1.5716 7.86155 -8.94946
101 1 3.14305 -1.76922e-11 6.28879 -8.94943
102 1 4.71485 1.57091 7.86156 -8.94952
103 1 6.28843 -1.1921e-09 6.28913 -8.95058
104 1 7.86087 1.57105 7.86228 -8.95111
105 1 9.43398 -7.62945e-10 6.28958 -8.95016
106 1 11.0061 1.57215 7.86262 -8.94939
107 1 12.5788 -4.28002e-10 6.28993 -8.95048
108 1 14.1514 1.57201 7.86238 -8.94947
109 1 15.7238 -2.29743e-11 6.28973 -8.94961
110 1 17.2963 1.5719 7.86186 -8.94943
111 1 18.8685 -2.27335e-12 6.28933 -8.94944
112 1 20.4405 1.57188 7.86167 -8.94947
113 1 -0.00163136 3.14377 6.28891 -8.94941
114 1 1.5689 4.71524 7.86136 -8.94935
115 1 3.14201 3.14281 6.28839 -8.94925
116 1 4.71135 4.7127 7.86089 -8.94796
117 1 6.28681 3.14122 6.28832 -8.95152
118 1 7.85748 4.71041 7.86214 -8.95805
119 1 9.43361 3.14269 6.28937 -8.95047
120 1 11.0055 4.7163 7.86318 -8.95135
121 1 12.579 3.14273 6.2898 -8.95258
122 1 14.1518 4.7161 7.86332 -8.94918
123 1 15.7241 3.14378 6.28986 -8.94971
124 1 17.2968 4.71597 7.86211 -8.94873
125 1 18.8686 3.14399 6.28934 -8.94934
126 1 20.4402 4.71606 7.8617 -8.94951
127 1 22.0114 6.2885 6.28882 -8.95011
128 1 1.56698 7.86067 7.86132 -8.95144
129 1 3.13848 6.28655 6.28716 -8.95019
130 1 4.70323 7.85674 7.85958 -8.95656
131 1 6.27571 6.2778 6.27962 -8.93211
132 1 7.81967 7.83037 7.83452 -8.88816
133 1 9.43201 6.28243 6.28737 -8.95196
134 1 11.0232 7.85568 7.8406 -8.94623
135 1 12.5852 6.279 6.28386 -8.95321
136 1 14.1562 7.86008 7.86497 -8.95194
137 1 15.7265 6.28736 6.28951 -8.95124
138 1 17.297 7.86165 7.86372 -8.95079
139 1 18.8688 6.2888 6.28966 -8.95013
140 1 20.4396 7.86146 7.86212 -8.95005
141 1 22.012 9.43428 6.28902 -8.94997
142 1 3.14064 9.43466 6.28881 -8.9501
143 1 6.28246 9.43617 6.28916 -8.95217
144 1 9.41804 9.41325 6.28854 -8.94908
145 1 12.6218 9.3997 6.25224 -8.8489
146 1 15.7343 9.4319 6.28644 -8.95794
147 1 18.8704 9.43415 6.28941 -8.9519
148 1 -0.00136556 -4.30924e-12 9.4343 -8.94948
149 1 3.14272 -7.92666e-11 9.43446 -8.94948
150 1 6.28782 -7.88483e-10 9.43469 -8.95039
151 1 9.43378 -2.49696e-09 9.43478 -8.94844
152 1 12.5789 -3.855e-10 9.43469 -8.9492
153 1 15.7241 -3.09647e-11 9.43438 -8.94965
154 1 18.8686 -1.54117e-12 9.43426 -8.9495
155 1 22.0121 3.14361 9.43434 -8.94946
156 1 3.14152 3.14262 9.43458 -8.94944
177 1 4.71472 1.57081 11.0077 -8.94946
184 1 4.71113 4.71248 11.0092 -8.94743
3 1 3.14448 -2.92206e-12 -0.000134045 -8.94953
11 1 15.7243 -3.67585e-12 0.000450224 -8.94954
41 1 18.8704 6.28853 0.000303486 -8.94937
19 1 6.28919 3.14426 -0.000104099 -8.94945
25 1 15.7248 3.1436 0.000407195 -8.94963
176 1 1.57047 1.57155 11.0073 -8.94945
47 1 12.5798 9.43426 22.0141 -8.9518
178 1 7.86084 1.57074 11.0076 -8.9514
179 1 11.0063 1.57181 11.0072 -8.94938
180 1 14.1518 1.57163 11.007 -8.94955
343 1 18.8714 9.43389 18.8713 -8.94934
182 1 20.4407 1.57179 11.007 -8.94948
342 1 15.7275 9.4334 18.8733 -8.94922
46 1 9.43438 9.43466 22.0151 -8.94917
185 1 7.85753 4.70906 11.0099 -8.95903
186 1 11.0062 4.71533 11.009 -8.95077
187 1 14.1529 4.71492 11.0075 -8.94875
341 1 12.581 9.43389 18.874 -8.9521
340 1 9.43499 9.43459 18.8712 -8.94958
190 1 1.5672 7.86082 11.0077 -8.95143
191 1 4.7038 7.85745 11.0107 -8.95803
192 1 7.82015 7.82559 11.0439 -8.91012
193 1 11.0253 7.85477 11.0367 -8.96182
194 1 14.1573 7.85872 11.0077 -8.95121
195 1 17.2981 7.86071 11.0077 -8.95024
196 1 20.4401 7.86122 11.0074 -8.95004
197 1 22.0128 -5.23957e-12 12.5798 -8.94947
198 1 1.57093 1.57159 14.1529 -8.94944
199 1 3.1429 -2.60941e-11 12.5803 -8.94941
200 1 4.71525 1.57085 14.1536 -8.95003
201 1 6.2882 -1.1659e-09 12.5804 -8.95073
202 1 7.8612 1.57107 14.1533 -8.94972
203 1 9.43403 -7.53129e-10 12.5802 -8.95019
204 1 11.0069 1.57088 14.1534 -8.94987
205 1 12.5792 -4.57029e-10 12.5798 -8.95083
206 1 14.1526 1.57052 14.1531 -8.95106
207 1 15.7245 -2.94011e-11 12.5795 -8.94963
208 1 17.2973 1.57141 14.1525 -8.94969
209 1 18.8689 -3.50371e-12 12.5796 -8.94947
210 1 20.4412 1.57173 14.1525 -8.94945
211 1 22.0124 3.14354 12.5801 -8.9494
212 1 1.56976 4.7153 14.1538 -8.94975
213 1 3.1418 3.14259 12.5809 -8.94921
214 1 4.71146 4.71215 14.1572 -8.94451
215 1 6.28646 3.14047 12.5819 -8.95169
216 1 7.85992 4.71282 14.1559 -8.94938
217 1 9.43398 3.1417 12.5815 -8.95054
218 1 11.0077 4.71191 14.1569 -8.94797
219 1 12.5799 3.14111 12.5809 -8.95336
220 1 14.1567 4.70948 14.1574 -8.95016
221 1 15.7252 3.1428 12.58 -8.94953
222 1 17.2991 4.71441 14.1537 -8.95025
223 1 18.8692 3.14351 12.5798 -8.94934
224 1 20.4415 4.71573 14.1529 -8.94986
225 1 22.0118 6.28826 12.5804 -8.95025
226 1 1.57026 7.8612 14.1536 -8.94954
227 1 3.13837 6.28639 12.5825 -8.95108
228 1 4.71318 7.86091 14.155 -8.95094
229 1 6.2748 6.27582 12.5929 -8.9306
230 1 7.85554 7.85402 14.165 -8.95217
231 1 9.43396 6.28005 12.5874 -8.9517
232 1 11.01 7.8526 14.1677 -8.94688
233 1 12.5879 6.27449 12.5904 -8.95603
234 1 14.1714 7.84408 14.1726 -8.92296
235 1 15.7285 6.28581 12.5819 -8.95094
236 1 17.3034 7.85853 14.1565 -8.95199
237 1 18.8701 6.28804 12.5803 -8.94988
238 1 20.4426 7.86096 14.1535 -8.95052
239 1 22.012 9.43408 12.5805 -8.94997
240 1 3.13974 9.43383 12.5817 -8.94774
241 1 6.28447 9.4337 12.5826 -8.97927
242 1 9.42371 9.40837 12.5977 -8.95074
243 1 12.6302 9.38676 12.6321 -8.86342
244 1 15.7364 9.43142 12.5869 -8.96151
245 1 18.8713 9.43398 12.5811 -8.95234
246 1 -0.000575319 -4.18404e-13 15.7252 -8.94947
247 1 1.57167 1.57179 17.298 -8.94909
248 1 3.14349 -1.53276e-10 15.7258 -8.9495
249 1 4.71641 1.57178 17.298 -8.94959
250 1 6.28879 -5.34477e-11 15.7256 -8.94957
251 1 7.86147 1.57173 17.2981 -8.94936
252 1 9.43407 -7.36635e-11 15.7257 -8.94957
253 1 11.0068 1.57153 17.2983 -8.94947
254 1 12.5796 -6.8861e-11 15.7257 -8.94965
255 1 14.1524 1.57124 17.2984 -8.94951
256 1 15.7251 -4.7729e-11 15.7256 -8.95025
257 1 17.2979 1.57114 17.2984 -8.94942
258 1 18.8695 -1.62231e-12 15.7251 -8.94965
259 1 20.4418 1.57171 17.2978 -8.94948
260 1 22.0133 3.14364 15.7256 -8.94952
261 1 1.57192 4.71635 17.2982 -8.94983
262 1 3.14261 3.14293 15.7267 -8.94819
263 1 4.71555 4.71573 17.2993 -8.94945
264 1 6.28815 3.14292 15.7265 -8.94964
265 1 7.8611 4.71561 17.2993 -8.94887
266 1 9.43392 3.14264 15.7267 -8.94925
267 1 11.0071 4.71486 17.3 -8.94923
268 1 12.5802 3.14195 15.727 -8.94918
269 1 14.1538 4.71391 17.3007 -8.94942
270 1 15.7267 3.14122 15.7272 -8.94948
271 1 17.2999 4.71383 17.3002 -8.94751
272 1 18.8701 3.14316 15.7256 -8.9498
273 1 20.4427 4.71576 17.2984 -8.94951
274 1 22.0139 6.28852 15.7259 -8.94987
275 1 1.57244 7.86173 17.298 -8.94955
276 1 3.14282 6.2886 15.7265 -8.95023
277 1 4.71681 7.86228 17.298 -8.95002
278 1 6.28586 6.28628 15.7301 -8.94959
279 1 7.86193 7.86157 17.3 -8.95279
280 1 9.43376 6.28563 15.7302 -8.94657
281 1 11.0079 7.85971 17.3029 -8.95094
282 1 12.5827 6.28397 15.7322 -8.94836
283 1 14.1564 7.85833 17.305 -8.95189
284 1 15.7321 6.28206 15.7326 -8.9425
285 1 17.3006 7.85985 17.3008 -8.9489
286 1 18.8722 6.28717 15.727 -8.94992
287 1 20.4432 7.86111 17.2987 -8.94937
288 1 22.0143 9.43411 15.726 -8.94953
289 1 3.14384 9.4345 15.7258 -8.94932
290 1 6.28979 9.4355 15.7253 -8.94996
291 1 9.43722 9.4342 15.7288 -8.95396
292 1 12.5865 9.43115 15.7395 -8.96086
293 1 15.7319 9.43186 15.7326 -8.94681
294 1 18.8726 9.4335 15.7276 -8.9492
295 1 22.0139 -6.04368e-12 18.87 -8.94915
296 1 1.57225 1.57201 20.4419 -8.94932
297 1 3.14442 -2.57577e-12 18.87 -8.94954
298 1 4.71692 1.5721 20.4419 -8.94949
299 1 6.28922 -2.38725e-12 18.87 -8.94941
300 1 7.86172 1.57205 20.4421 -8.94946
301 1 9.43417 -4.2006e-12 18.8701 -8.94946
302 1 11.0067 1.57194 20.4423 -8.94947
303 1 12.5793 -4.0266e-12 18.8703 -8.94947
304 1 14.1519 1.57179 20.4425 -8.94945
305 1 15.7247 -2.27347e-12 18.8704 -8.94951
306 1 17.2973 1.57168 20.4424 -8.9495
307 1 18.8698 -2.37489e-12 18.8703 -8.94922
308 1 20.442 1.5719 20.4422 -8.94905
309 1 0.000301475 3.14406 18.8702 -8.94949
310 1 1.57256 4.71682 20.442 -8.94972
311 1 3.14422 3.14406 18.8703 -8.94948
312 1 4.71679 4.71677 20.442 -8.9501
313 1 6.28906 3.14411 18.8703 -8.94938
314 1 7.86155 4.71654 20.4423 -8.94948
315 1 9.4341 3.14384 18.8705 -8.94944
316 1 11.0067 4.71614 20.4428 -8.94953
317 1 12.5796 3.14345 18.8709 -8.94939
318 1 14.1524 4.7157 20.443 -8.94961
319 1 15.7253 3.14307 18.8711 -8.94953
320 1 17.2982 4.71545 20.4429 -8.94943
321 1 18.8704 3.14333 18.8707 -8.94884
322 1 20.4425 4.71633 20.4423 -8.94944
323 1 22.0146 6.28899 18.8702 -8.9495
324 1 1.57281 7.86187 20.442 -8.94954
325 1 3.14471 6.28947 18.87 -8.94988
326 1 4.71727 7.86224 20.4419 -8.94965
327 1 6.2891 6.28924 18.8708 -8.95074
328 1 7.86199 7.86213 20.4425 -8.95036
329 1 9.43411 6.28843 18.8716 -8.94962
330 1 11.0069 7.86139 20.4434 -8.95044
331 1 12.5802 6.28771 18.8726 -8.94973
332 1 14.1532 7.86083 20.4438 -8.95098
333 1 15.7269 6.28701 18.8729 -8.94999
334 1 17.2987 7.86086 20.4431 -8.94925
335 1 18.8711 6.28815 18.8711 -8.94933
336 1 20.4428 7.86145 20.4424 -8.94942
337 1 22.0148 9.43425 18.8703 -8.9495
338 1 3.14491 9.43451 18.8699 -8.94958
339 1 6.28975 9.4348 18.8698 -8.94936
45 1 6.28959 9.43475 22.0143 -8.94943
5 1 6.28933 -2.83365e-12 22.0139 -8.94945
9 1 12.5792 -3.97765e-12 22.0143 -8.94949
39 1 15.7258 6.28783 22.0139 -8.95009
15 1 22.0141 3.14423 22.0139 -8.94949
17 1 3.14431 3.14418 22.0135 -8.9495
33 1 6.28915 6.28936 22.0136 -8.95065
31 1 3.14471 6.2895 22.0137 -8.9498
27 1 18.87 3.14369 22.0142 -8.94905
29 1 0.000502548 6.28913 22.014 -8.94948
1 1 -8.1879e-05 -5.94474e-12 22.014 -8.94913
13 1 18.8695 -2.21513e-12 22.0142 -8.94927
21 1 9.43411 3.14413 22.0141 -8.94946
23 1 12.5793 3.14392 22.0143 -8.94944
43 1 22.0146 9.43431 22.014 -8.94951
49 1 18.8707 9.43405 22.0142 -8.9494
344 1 1.57231 11.007 1.57194 -8.94955
345 1 4.71671 11.007 1.57211 -8.94969
346 1 7.86193 11.007 1.57398 -8.94844
347 1 11.0068 11.007 1.57372 -8.94655
348 1 14.1547 11.007 1.56964 -8.94971
349 1 17.299 11.007 1.57152 -8.94939
350 1 20.4425 11.007 1.57202 -8.94945
538 1 17.2967 20.4422 11.0069 -8.94949
352 1 1.57223 14.1521 1.5719 -8.94942
353 1 3.14485 12.5794 -5.00392e-05 -8.94957
354 1 4.71669 14.1517 1.57196 -8.94974
688 3 10.2569 11.007 9.45182 2.20358
356 1 7.86148 14.152 1.57171 -8.95221
511 1 18.8686 18.8701 9.43435 -8.94949
358 1 11.0064 14.1529 1.57135 -8.95054
510 1 15.7244 18.8704 9.4346 -8.94944
360 1 14.1539 14.1539 1.56963 -8.95179
361 1 15.7263 12.5802 0.000147094 -8.9494
362 1 17.2988 14.1532 1.57151 -8.94911
532 1 20.4405 17.2981 11.0072 -8.94954
364 1 20.4424 14.1525 1.57203 -8.94938
509 1 12.5788 18.8693 9.4352 -8.94842
366 1 1.57189 17.2973 1.5717 -8.9498
508 1 9.43324 18.8695 9.43536 -8.94674
368 1 4.71585 17.2979 1.57082 -8.94952
507 1 6.28575 18.8732 9.43503 -8.94981
370 1 7.86126 17.2977 1.57169 -8.94911
371 1 9.43392 15.725 0.00024869 -8.94963
372 1 11.0065 17.2979 1.57201 -8.94936
373 1 12.5795 15.7254 0.000361363 -8.94979
374 1 14.1524 17.2984 1.57173 -8.94979
506 1 3.14152 18.8713 9.43458 -8.94944
376 1 17.2983 17.2988 1.57153 -8.94819
505 1 22.0121 18.8703 9.43434 -8.94946
378 1 20.442 17.2976 1.57206 -8.94949
504 1 18.8688 15.7256 9.43473 -8.94954
380 1 1.5717 20.442 1.57178 -8.94916
503 1 15.7258 15.7267 9.43541 -8.94543
382 1 4.7166 20.442 1.57176 -8.94959
502 1 12.5776 15.7228 9.43676 -8.94619
384 1 7.86165 20.4419 1.57211 -8.94943
531 1 17.2975 17.2985 11.0074 -8.94891
386 1 11.0066 20.442 1.57237 -8.94948
687 2 9.5522 11.007 10.2218 -0.0142258
388 1 14.1517 20.4421 1.57246 -8.94951
501 1 9.42916 15.7207 9.43762 -9.00612
390 1 17.2971 20.4423 1.57226 -8.94944
500 1 6.27661 15.7348 9.43614 -8.94346
392 1 20.4414 20.442 1.57227 -8.94945
393 1 1.57052 11.007 4.71612 -8.94951
394 1 4.714 11.007 4.71584 -8.9459
395 1 7.86294 11.007 4.72161 -8.94756
396 1 11.0116 11.007 4.72315 -9.00617
397 1 14.1629 11.007 4.70742 -8.94159
398 1 17.301 11.007 4.71494 -8.94902
399 1 20.4419 11.007 4.71636 -8.94999
400 1 -0.00016028 12.5797 3.14403 -8.94952
401 1 1.57041 14.1523 4.71622 -8.94987
402 1 3.14351 12.5796 3.14391 -8.94897
403 1 4.71331 14.1527 4.71561 -8.95123
404 1 6.28865 12.5788 3.1451 -8.94941
405 1 7.85505 14.1578 4.70981 -8.95333
406 1 9.43454 12.5794 3.14619 -8.95054
407 1 11.0065 14.1564 4.71081 -8.95194
408 1 12.5824 12.5809 3.13781 -8.95988
409 1 14.1651 14.1645 4.70469 -8.92898
410 1 15.7286 12.5811 3.1414 -8.94744
411 1 17.3008 14.1542 4.71526 -8.95079
412 1 18.8709 12.58 3.14375 -8.94925
413 1 20.4417 14.1525 4.71652 -8.95024
414 1 22.0135 15.725 3.14405 -8.94983
415 1 1.56978 17.2983 4.71566 -8.94952
416 1 3.14304 15.7251 3.14341 -8.95027
417 1 4.71212 17.301 4.71322 -8.94515
418 1 6.28629 15.7269 3.14113 -8.94997
419 1 7.85984 17.2999 4.71556 -8.94925
420 1 9.43317 15.7265 3.14312 -8.94764
421 1 11.0064 17.2995 4.71585 -8.94798
422 1 12.5801 15.727 3.1422 -8.94951
423 1 14.1543 17.3016 4.71474 -8.94992
424 1 15.7287 15.7291 3.14089 -8.94442
425 1 17.2975 17.2983 4.71673 -8.95026
426 1 18.8706 15.7258 3.14385 -8.94966
427 1 20.4407 17.2976 4.71665 -8.94987
428 1 22.013 18.8699 3.14406 -8.94948
429 1 1.57097 20.4422 4.71629 -8.94943
430 1 3.14291 18.8706 3.1431 -8.94838
431 1 4.71559 20.4428 4.71597 -8.95002
432 1 6.28844 18.8705 3.14364 -8.94966
433 1 7.86132 20.4424 4.71666 -8.9497
434 1 9.43385 18.8703 3.14423 -8.94937
435 1 11.0065 20.4423 4.71696 -8.94964
436 1 12.5792 18.8705 3.14433 -8.94923
437 1 14.1517 20.4425 4.71711 -8.95075
438 1 15.7252 18.8712 3.14391 -8.94948
439 1 17.2964 20.442 4.71715 -8.94975
440 1 18.8692 18.8701 3.14447 -8.94976
441 1 20.4408 20.4419 4.71679 -8.94945
442 1 1.56867 11.007 7.86157 -8.94773
443 1 4.71421 11.007 7.863 -8.94103
444 1 7.87446 11.007 7.8692 -8.94881
445 1 11.0891 11.007 7.62182 -8.16426
446 1 14.1595 11.007 7.85542 -8.97065
447 1 17.2975 11.007 7.86344 -8.95146
448 1 20.4399 11.007 7.86223 -8.94956
449 1 22.012 12.5796 6.28902 -8.94997
450 1 1.56698 14.1532 7.86132 -8.95144
451 1 3.14064 12.5792 6.28881 -8.9501
452 1 4.70323 14.1572 7.85958 -8.95656
453 1 6.28246 12.5777 6.28916 -8.95217
454 1 7.81967 14.1835 7.83452 -8.88821
455 1 9.41804 12.6006 6.28854 -8.94908
456 1 11.0232 14.1582 7.8406 -8.94623
457 1 12.6218 12.6142 6.25224 -8.8489
458 1 14.1562 14.1538 7.86497 -8.95194
459 1 15.7343 12.582 6.28644 -8.95794
460 1 17.297 14.1523 7.86372 -8.95079
461 1 18.8704 12.5798 6.28941 -8.9519
462 1 20.4396 14.1524 7.86212 -8.95005
463 1 22.0114 15.7254 6.28882 -8.95011
464 1 1.5689 17.2987 7.86136 -8.94935
465 1 3.13848 15.7273 6.28716 -8.95019
466 1 4.71135 17.3012 7.86089 -8.94796
467 1 6.27571 15.7361 6.27962 -8.93211
468 1 7.85748 17.3035 7.86214 -8.95805
469 1 9.43201 15.7315 6.28737 -8.95196
470 1 11.0055 17.2976 7.86318 -8.95135
471 1 12.5852 15.7349 6.28386 -8.95321
472 1 14.1518 17.2978 7.86332 -8.94918
473 1 15.7265 15.7265 6.28951 -8.95124
474 1 17.2968 17.2979 7.86211 -8.94873
475 1 18.8688 15.7251 6.28966 -8.95013
476 1 20.4402 17.2978 7.8617 -8.94951
477 1 -0.00163136 18.8701 6.28891 -8.94941
478 1 1.57049 20.4423 7.86155 -8.94946
479 1 3.14201 18.8711 6.28839 -8.94925
480 1 4.71485 20.443 7.86156 -8.94952
481 1 6.28681 18.8727 6.28832 -8.95152
482 1 7.86087 20.4429 7.86228 -8.95111
483 1 9.43361 18.8712 6.28937 -8.95047
484 1 11.0061 20.4418 7.86262 -8.94939
485 1 12.579 18.8712 6.2898 -8.95258
486 1 14.1514 20.4419 7.86238 -8.94947
487 1 15.7241 18.8701 6.28986 -8.94971
488 1 17.2963 20.442 7.86186 -8.94943
489 1 18.8686 18.8699 6.28934 -8.94934
490 1 20.4405 20.442 7.86167 -8.94947
491 1 22.0102 12.5798 9.43452 -8.94959
492 1 3.13695 12.5804 9.43419 -8.9505
493 1 6.2736 12.5889 9.43396 -9.01972
494 1 9.36006 12.8172 9.4333 -8.35484
495 1 12.5612 12.5729 9.43352 -8.9502
496 1 15.7198 12.578 9.43782 -8.94327
497 1 18.8673 12.5796 9.43545 -8.94778
498 1 22.0109 15.7257 9.43448 -8.94999
499 1 3.13762 15.7278 9.43489 -8.94919
526 1 1.56888 17.2988 11.0077 -8.94926
527 1 4.71113 17.3014 11.0092 -8.94743
534 1 4.71472 20.4431 11.0077 -8.94946
389 1 15.7248 18.8703 0.000407195 -8.94963
383 1 6.28919 18.8696 -0.000104099 -8.94945
377 1 18.8704 15.7254 0.000303486 -8.94937
512 1 1.56723 11.007 11.0078 -8.95064
513 1 4.70559 11.007 11.0081 -8.95571
514 1 7.83206 11.007 11.0165 -9.13188
515 1 11.139 11.007 11.2688 -8.33654
516 1 14.1496 11.007 11.0212 -8.985
517 1 17.2963 11.007 11.0088 -8.94754
518 1 20.4396 11.007 11.0075 -8.94924
519 1 1.5672 14.1531 11.0077 -8.95143
520 1 4.7038 14.1564 11.0107 -8.95803
521 1 7.82015 14.1883 11.0439 -8.91017
522 1 11.0253 14.1591 11.0367 -8.96183
523 1 14.1573 14.1552 11.0077 -8.95121
524 1 17.2981 14.1532 11.0077 -8.95024
525 1 20.4401 14.1527 11.0074 -8.95004
686 1 20.442 20.442 20.4422 -8.94905
391 1 18.87 18.8702 22.0142 -8.94905
528 1 7.85753 17.3048 11.0099 -8.95903
529 1 11.0062 17.2986 11.009 -8.95077
530 1 14.1529 17.299 11.0075 -8.94875
685 1 18.8704 18.8706 18.8707 -8.94884
684 1 17.2973 20.4422 20.4424 -8.9495
533 1 1.57047 20.4424 11.0073 -8.94945
381 1 3.14431 18.8697 22.0135 -8.9495
535 1 7.86084 20.4432 11.0076 -8.9514
536 1 11.0063 20.4421 11.0072 -8.94938
537 1 14.1518 20.4423 11.007 -8.94955
683 1 15.7253 18.8708 18.8711 -8.94953
539 1 20.4407 20.4421 11.007 -8.94948
540 1 1.57075 11.007 14.1535 -8.94897
541 1 4.7155 11.007 14.1532 -8.94704
542 1 7.86749 11.007 14.1485 -8.99036
543 1 11.019 11.007 14.1538 -9.05499
544 1 14.1673 11.007 14.1691 -8.94201
545 1 17.3034 11.007 14.1576 -8.94918
546 1 20.4428 11.007 14.1538 -8.95007
547 1 22.012 12.5798 12.5805 -8.94997
548 1 1.57026 14.1527 14.1536 -8.94954
549 1 3.13974 12.5801 12.5817 -8.94774
550 1 4.71318 14.153 14.155 -8.95094
551 1 6.28447 12.5802 12.5826 -8.97927
552 1 7.85554 14.1599 14.165 -8.95217
553 1 9.42371 12.6055 12.5977 -8.95074
554 1 11.01 14.1613 14.1677 -8.94688
555 1 12.6302 12.6271 12.6321 -8.86342
556 1 14.1714 14.1698 14.1726 -8.92296
557 1 15.7364 12.5825 12.5869 -8.96151
558 1 17.3034 14.1554 14.1565 -8.95199
559 1 18.8713 12.5799 12.5811 -8.95234
560 1 20.4426 14.1529 14.1535 -8.95052
561 1 22.0118 15.7256 12.5804 -8.95025
562 1 1.56976 17.2986 14.1538 -8.94975
563 1 3.13837 15.7275 12.5825 -8.95108
564 1 4.71146 17.3018 14.1572 -8.94451
565 1 6.2748 15.7381 12.5929 -8.9306
566 1 7.85992 17.3011 14.1559 -8.94938
567 1 9.43396 15.7339 12.5874 -8.9517
568 1 11.0077 17.302 14.1569 -8.94797
569 1 12.5879 15.7394 12.5904 -8.95603
570 1 14.1567 17.3044 14.1574 -8.95016
571 1 15.7285 15.7281 12.5819 -8.95094
572 1 17.2991 17.2995 14.1537 -8.95025
573 1 18.8701 15.7259 12.5803 -8.94988
574 1 20.4415 17.2982 14.1529 -8.94986
575 1 22.0124 18.8704 12.5801 -8.9494
576 1 1.57093 20.4423 14.1529 -8.94944
577 1 3.1418 18.8713 12.5809 -8.94921
578 1 4.71525 20.443 14.1536 -8.95003
579 1 6.28646 18.8734 12.5819 -8.95169
580 1 7.8612 20.4428 14.1533 -8.94972
581 1 9.43398 18.8722 12.5815 -8.95054
582 1 11.0069 20.443 14.1534 -8.94987
583 1 12.5799 18.8728 12.5809 -8.95336
584 1 14.1526 20.4434 14.1531 -8.95106
585 1 15.7252 18.8711 12.58 -8.94953
586 1 17.2973 20.4425 14.1525 -8.94969
587 1 18.8692 18.8704 12.5798 -8.94934
588 1 20.4412 20.4422 14.1525 -8.94945
589 1 1.57253 11.007 17.298 -8.94955
590 1 4.71695 11.007 17.2976 -8.94936
591 1 7.86279 11.007 17.2972 -8.94712
592 1 11.0092 11.007 17.3008 -8.94593
593 1 14.1575 11.007 17.3052 -8.9493
594 1 17.3009 11.007 17.3011 -8.94928
595 1 20.4433 11.007 17.2988 -8.94948
596 1 22.0143 12.5798 15.726 -8.94953
597 1 1.57244 14.1522 17.298 -8.94955
598 1 3.14384 12.5794 15.7258 -8.94932
599 1 4.71681 14.1516 17.298 -8.95002
600 1 6.28979 12.5784 15.7253 -8.94996
601 1 7.86193 14.1523 17.3 -8.95279
602 1 9.43722 12.5797 15.7288 -8.95396
603 1 11.0079 14.1542 17.3029 -8.95094
604 1 12.5865 12.5828 15.7395 -8.96086
605 1 14.1564 14.1556 17.305 -8.95189
606 1 15.7319 12.582 15.7326 -8.94681
607 1 17.3006 14.1541 17.3008 -8.9489
608 1 18.8726 12.5804 15.7276 -8.9492
609 1 20.4432 14.1528 17.2987 -8.94937
610 1 22.0139 15.7254 15.7259 -8.94987
611 1 1.57192 17.2975 17.2982 -8.94983
612 1 3.14282 15.7253 15.7265 -8.95023
613 1 4.71555 17.2982 17.2993 -8.94945
614 1 6.28586 15.7276 15.7301 -8.94959
615 1 7.8611 17.2983 17.2993 -8.94887
616 1 9.43376 15.7283 15.7302 -8.94657
617 1 11.0071 17.299 17.3 -8.94923
618 1 12.5827 15.7299 15.7322 -8.94836
619 1 14.1538 17.3 17.3007 -8.94942
620 1 15.7321 15.7318 15.7326 -8.9425
621 1 17.2999 17.3001 17.3002 -8.94751
622 1 18.8722 15.7267 15.727 -8.94992
623 1 20.4427 17.2981 17.2984 -8.94951
624 1 22.0133 18.8703 15.7256 -8.94952
625 1 1.57167 20.4421 17.298 -8.94909
626 1 3.14261 18.871 15.7267 -8.94819
627 1 4.71641 20.4421 17.298 -8.94959
628 1 6.28815 18.871 15.7265 -8.94964
629 1 7.86147 20.4422 17.2981 -8.94936
630 1 9.43392 18.8713 15.7267 -8.94925
631 1 11.0068 20.4424 17.2983 -8.94947
632 1 12.5802 18.872 15.727 -8.94918
633 1 14.1524 20.4427 17.2984 -8.94951
634 1 15.7267 18.8727 15.7272 -8.94948
635 1 17.2979 20.4428 17.2984 -8.94942
636 1 18.8701 18.8707 15.7256 -8.9498
637 1 20.4418 20.4422 17.2978 -8.94948
638 1 1.57287 11.007 20.442 -8.94956
639 1 4.71731 11.007 20.4419 -8.94967
640 1 7.86212 11.007 20.4424 -8.94896
641 1 11.0071 11.007 20.4436 -8.94854
642 1 14.1538 11.007 20.4439 -8.95057
643 1 17.299 11.007 20.4432 -8.9494
644 1 20.4429 11.007 20.4424 -8.94945
645 1 22.0148 12.5796 18.8703 -8.9495
646 1 1.57281 14.152 20.442 -8.94954
647 1 3.14491 12.5794 18.8699 -8.94958
648 1 4.71727 14.1517 20.4419 -8.94965
649 1 6.28975 12.5791 18.8698 -8.94936
650 1 7.86199 14.1518 20.4425 -8.95036
651 1 9.43499 12.5793 18.8712 -8.94958
652 1 11.0069 14.1525 20.4434 -8.95044
653 1 12.581 12.58 18.874 -8.9521
654 1 14.1532 14.1531 20.4438 -8.95098
655 1 15.7275 12.5805 18.8733 -8.94922
656 1 17.2987 14.153 20.4431 -8.94925
657 1 18.8714 12.58 18.8713 -8.94934
658 1 20.4428 14.1525 20.4424 -8.94942
659 1 22.0146 15.7249 18.8702 -8.9495
660 1 1.57256 17.2971 20.442 -8.94972
661 1 3.14471 15.7244 18.87 -8.94988
662 1 4.71679 17.2971 20.442 -8.9501
663 1 6.2891 15.7247 18.8708 -8.95074
664 1 7.86155 17.2974 20.4423 -8.94948
665 1 9.43411 15.7255 18.8716 -8.94962
666 1 11.0067 17.2978 20.4428 -8.94953
667 1 12.5802 15.7262 18.8726 -8.94973
668 1 14.1524 17.2982 20.443 -8.94961
669 1 15.7269 15.7269 18.8729 -8.94999
670 1 17.2982 17.2984 20.4429 -8.94943
671 1 18.8711 15.7257 18.8711 -8.94933
672 1 20.4425 17.2976 20.4423 -8.94944
673 1 0.000301475 18.8698 18.8702 -8.94949
674 1 1.57225 20.4419 20.4419 -8.94932
675 1 3.14422 18.8698 18.8703 -8.94948
676 1 4.71692 20.4418 20.4419 -8.94949
677 1 6.28906 18.8698 18.8703 -8.94938
678 1 7.86172 20.4418 20.4421 -8.94946
679 1 9.4341 18.8701 18.8705 -8.94944
680 1 11.0067 20.442 20.4423 -8.94947
681 1 12.5796 18.8704 18.8709 -8.94939
682 1 14.1519 20.4421 20.4425 -8.94945
355 1 6.28959 12.5792 22.0143 -8.94943
357 1 9.43438 12.5792 22.0151 -8.94917
359 1 12.5798 12.5796 22.0141 -8.9518
365 1 0.000502548 15.7248 22.014 -8.94948
367 1 3.14471 15.7244 22.0137 -8.9498
369 1 6.28915 15.7245 22.0136 -8.95065
375 1 15.7258 15.7261 22.0139 -8.95009
379 1 22.0141 18.8697 22.0139 -8.94949
351 1 22.0146 12.5796 22.014 -8.94951
363 1 18.8707 12.5798 22.0142 -8.9494
385 1 9.43411 18.8698 22.0141 -8.94946
387 1 12.5793 18.87 22.0143 -8.94944
