ITEM: TIMESTEP
98
ITEM: NUMBER OF ATOMS
688
ITEM: BOX BOUNDS pp pp pp
0.0000000000000000e+00 2.2013900999999997e+01
0.0000000000000000e+00 2.2013900999999997e+01
0.0000000000000000e+00 2.2013900999999997e+01
ITEM: ATOMS id type x y z c_pot
189 1 20.4405 4.71578 11.0071 -8.94954
2 1 1.57173 1.57193 1.57173 -8.94916
175 1 18.8671 9.43434 9.43536 -8.94782
4 1 4.71665 1.57192 1.5717 -8.94959
174 1 15.7196 9.43604 9.43811 -8.94401
6 1 7.86172 1.57198 1.57204 -8.94944
7 1 9.43426 7.0376e-14 0.000152339 -8.94948
8 1 11.0067 1.57196 1.57231 -8.94948
173 1 12.562 9.44002 9.43343 -8.94899
10 1 14.1518 1.57182 1.5724 -8.94951
172 1 9.35954 9.19716 9.43437 -8.35302
12 1 17.297 1.57163 1.57222 -8.94945
188 1 17.2976 4.71533 11.0073 -8.94892
14 1 20.4414 1.57192 1.57222 -8.94944
171 1 6.2726 9.42476 9.43388 -9.01917
16 1 1.5719 4.71657 1.57164 -8.9498
170 1 3.13646 9.43338 9.43404 -8.95058
18 1 4.71593 4.71605 1.57077 -8.94955
169 1 22.01 9.43411 9.43439 -8.94963
20 1 7.86133 4.71623 1.57164 -8.94912
183 1 1.56888 4.71507 11.0076 -8.94926
22 1 11.0066 4.71608 1.57198 -8.94937
181 1 17.2967 1.57168 11.0068 -8.94949
24 1 14.1523 4.71559 1.57172 -8.94982
168 1 18.8688 6.28827 9.43458 -8.94954
26 1 17.2982 4.71518 1.57152 -8.94825
167 1 15.7259 6.28716 9.43522 -8.94531
28 1 20.442 4.71627 1.57201 -8.9495
166 1 12.5777 6.29086 9.43675 -8.94641
30 1 1.57222 7.86178 1.57183 -8.94943
165 1 9.42905 6.29326 9.43784 -9.00606
32 1 4.71675 7.8622 1.57188 -8.94977
164 1 6.27645 6.27909 9.43612 -8.94358
34 1 7.86153 7.86193 1.5717 -8.95213
35 1 9.43393 6.2889 0.000176302 -8.94962
36 1 11.0063 7.86107 1.57141 -8.95049
37 1 12.5794 6.28853 0.000328966 -8.94979
38 1 14.1538 7.86012 1.5697 -8.95179
163 1 3.13752 6.28599 9.43479 -8.94919
40 1 17.2987 7.86077 1.57151 -8.94913
162 1 22.0108 6.28813 9.43437 -8.94998
42 1 20.4423 7.86145 1.57198 -8.94938
158 1 9.43325 3.14447 9.43529 -8.94675
44 1 3.14484 9.43449 -0.000107833 -8.94958
161 1 18.8687 3.14377 9.43425 -8.94948
160 1 15.7245 3.14351 9.43446 -8.94942
159 1 12.5788 3.14458 9.4351 -8.94851
48 1 15.7262 9.43376 0.000147557 -8.9494
157 1 6.28581 3.14076 9.43497 -8.94985
50 1 22.0132 6.32501e-14 3.14425 -8.94944
51 1 1.57102 1.57172 4.71623 -8.94943
52 1 3.14376 8.57842e-13 3.14373 -8.94952
53 1 4.71568 1.57113 4.71591 -8.95002
54 1 6.2891 5.72262e-13 3.14407 -8.94956
55 1 7.86141 1.57149 4.7166 -8.94967
56 1 9.43421 5.14847e-13 3.14443 -8.94954
57 1 11.0066 1.57167 4.7169 -8.94961
58 1 12.5792 4.64636e-13 3.14465 -8.94953
59 1 14.1517 1.57141 4.71705 -8.95072
60 1 15.7243 2.8208e-13 3.14461 -8.95008
61 1 17.2964 1.57187 4.71708 -8.94975
62 1 18.8689 -5.21385e-14 3.14464 -8.94966
63 1 20.4408 1.57195 4.71673 -8.94944
64 1 22.013 3.14396 3.144 -8.94947
65 1 1.56981 4.71558 4.71556 -8.94949
66 1 3.14297 3.14328 3.14303 -8.94839
67 1 4.71223 4.71295 4.71315 -8.94519
68 1 6.28854 3.14342 3.14359 -8.94965
69 1 7.85995 4.71414 4.71557 -8.94923
70 1 9.43392 3.14366 3.14418 -8.94938
71 1 11.0064 4.71463 4.7159 -8.94801
72 1 12.5792 3.14353 3.14431 -8.94924
73 1 14.1542 4.71249 4.71475 -8.94994
74 1 15.7251 3.14276 3.14388 -8.94949
75 1 17.2975 4.71562 4.71665 -8.95023
76 1 18.8692 3.1438 3.14441 -8.94975
77 1 20.4407 4.71625 4.71657 -8.94987
78 1 22.0135 6.28892 3.14397 -8.94981
79 1 1.5704 7.86154 4.71609 -8.94985
80 1 3.1431 6.28881 3.14331 -8.95027
81 1 4.71337 7.86124 4.71551 -8.95123
82 1 6.28645 6.2871 3.14115 -8.95004
83 1 7.85521 7.85641 4.71012 -8.95352
84 1 9.4332 6.28751 3.14319 -8.94769
85 1 11.0063 7.85786 4.71123 -8.95207
86 1 12.58 6.28714 3.14231 -8.94958
87 1 14.1647 7.84977 4.70497 -8.92947
88 1 15.7285 6.28502 3.14094 -8.94457
89 1 17.3006 7.85979 4.71525 -8.95075
90 1 18.8705 6.28817 3.14381 -8.94966
91 1 20.4416 7.86137 4.71642 -8.9502
92 1 -0.00018892 9.43422 3.14394 -8.94952
93 1 3.14354 9.43434 3.1438 -8.94898
94 1 6.28872 9.43516 3.14509 -8.94948
95 1 9.43447 9.43453 3.1464 -8.95027
96 1 12.5822 9.43313 3.13804 -8.95984
97 1 15.7283 9.4329 3.14147 -8.94747
98 1 18.8708 9.43392 3.1437 -8.94925
99 1 22.0127 7.53498e-14 6.289 -8.94946
100 1 1.57057 1.57158 7.8615 -8.94946
101 1 3.14313 7.50562e-13 6.28873 -8.94944
102 1 4.71495 1.5709 7.8615 -8.94954
103 1 6.28853 3.69663e-12 6.28906 -8.95057
104 1 7.86095 1.57108 7.8622 -8.95108
105 1 9.43405 2.81433e-12 6.2895 -8.95013
106 1 11.0062 1.57218 7.86253 -8.94939
107 1 12.5788 1.3004e-12 6.28985 -8.95045
108 1 14.1514 1.57202 7.86228 -8.94948
109 1 15.7239 -3.82529e-13 6.28965 -8.94961
110 1 17.2964 1.57189 7.86178 -8.94942
111 1 18.8685 3.64694e-14 6.28927 -8.94943
112 1 20.4406 1.57187 7.86162 -8.94947
113 1 -0.00158418 3.14374 6.28884 -8.94941
114 1 1.56893 4.71518 7.86126 -8.94935
115 1 3.14208 3.14278 6.2883 -8.94926
116 1 4.71138 4.71266 7.86079 -8.948
117 1 6.28691 3.14126 6.28825 -8.95152
118 1 7.85751 4.71054 7.86213 -8.95801
119 1 9.43365 3.14279 6.28932 -8.95042
120 1 11.0054 4.71639 7.86317 -8.95136
121 1 12.579 3.14284 6.28974 -8.95252
122 1 14.1518 4.71609 7.86317 -8.9492
123 1 15.7241 3.14381 6.28976 -8.94971
124 1 17.2968 4.71597 7.86197 -8.9487
125 1 18.8686 3.14399 6.28926 -8.94933
126 1 20.4402 4.71603 7.86159 -8.9495
127 1 22.0113 6.28846 6.28869 -8.9501
128 1 1.56684 7.86058 7.86114 -8.95142
129 1 3.13847 6.28647 6.287 -8.95011
130 1 4.70297 7.85661 7.8594 -8.95637
131 1 6.27581 6.27793 6.27966 -8.93229
132 1 7.81962 7.83073 7.83502 -8.88799
133 1 9.43194 6.28274 6.2876 -8.9519
134 1 11.0228 7.85582 7.84135 -8.94635
135 1 12.5849 6.27934 6.28403 -8.95318
136 1 14.1562 7.85999 7.86481 -8.95178
137 1 15.7264 6.28742 6.28938 -8.95118
138 1 17.2969 7.86174 7.86365 -8.95094
139 1 18.8688 6.28882 6.28955 -8.95017
140 1 20.4395 7.86145 7.86199 -8.95006
141 1 22.012 9.43425 6.28887 -8.94994
142 1 3.14053 9.43461 6.28863 -8.95005
143 1 6.28235 9.4362 6.28922 -8.95219
144 1 9.41809 9.41383 6.28974 -8.94921
145 1 12.6209 9.40046 6.25306 -8.85101
146 1 15.734 9.432 6.28654 -8.9577
147 1 18.8703 9.43415 6.28931 -8.95183
148 1 -0.00129217 6.78432e-14 9.43427 -8.94948
149 1 3.14281 8.99748e-13 9.43443 -8.94949
150 1 6.28793 4.39749e-12 9.43463 -8.9504
151 1 9.43384 2.54833e-12 9.43469 -8.94843
152 1 12.5789 2.86486e-13 9.43459 -8.94923
153 1 15.7241 -2.47341e-13 9.43429 -8.94965
154 1 18.8686 2.51315e-14 9.4342 -8.94949
155 1 22.0121 3.14357 9.43429 -8.94945
156 1 3.14158 3.14258 9.43452 -8.94944
177 1 4.71481 1.5708 11.0077 -8.94947
184 1 4.71109 4.71244 11.0091 -8.94744
3 1 3.14451 5.43606e-14 -0.000185833 -8.94953
11 1 15.7243 3.52845e-14 0.000389146 -8.94955
41 1 18.8704 6.28855 0.000275633 -8.94938
19 1 6.28924 3.14427 -0.000171454 -8.94945
25 1 15.7247 3.14364 0.000361334 -8.94965
176 1 1.57054 1.57153 11.0072 -8.94945
47 1 12.5797 9.43428 22.0141 -8.9518
178 1 7.8609 1.57077 11.0075 -8.95139
179 1 11.0063 1.57182 11.0071 -8.94937
180 1 14.1519 1.57159 11.0069 -8.94958
343 1 18.8714 9.43388 18.8713 -8.94933
182 1 20.4407 1.57178 11.0069 -8.94948
342 1 15.7275 9.43338 18.8733 -8.94919
46 1 9.43435 9.43467 22.015 -8.9491
185 1 7.85748 4.70916 11.0099 -8.95904
186 1 11.0062 4.71537 11.0089 -8.95067
187 1 14.153 4.71474 11.0074 -8.94874
341 1 12.5809 9.43388 18.8741 -8.95223
340 1 9.43492 9.43461 18.8709 -8.94946
190 1 1.567 7.86073 11.0077 -8.95143
191 1 4.70339 7.85738 11.0108 -8.95796
192 1 7.81976 7.82577 11.044 -8.90997
193 1 11.0258 7.85494 11.0368 -8.96204
194 1 14.1578 7.85828 11.0078 -8.95084
195 1 17.2982 7.86061 11.0076 -8.95031
196 1 20.44 7.86117 11.0073 -8.95009
197 1 22.0128 7.49783e-14 12.5798 -8.94947
198 1 1.57097 1.57157 14.1529 -8.94945
199 1 3.14298 7.53946e-13 12.5803 -8.94942
200 1 4.71532 1.57085 14.1536 -8.95004
201 1 6.28829 3.55747e-12 12.5804 -8.95074
202 1 7.86126 1.57113 14.1532 -8.94967
203 1 9.43406 2.87865e-12 12.5801 -8.95013
204 1 11.0068 1.5709 14.1533 -8.94986
205 1 12.5792 1.42462e-12 12.5797 -8.95088
206 1 14.1526 1.57047 14.153 -8.95111
207 1 15.7245 -2.29204e-13 12.5795 -8.94964
208 1 17.2973 1.57138 14.1524 -8.94968
209 1 18.869 1.27324e-14 12.5795 -8.94947
210 1 20.4412 1.57171 14.1524 -8.94944
211 1 22.0125 3.14351 12.58 -8.9494
212 1 1.56975 4.71524 14.1538 -8.94974
213 1 3.14184 3.14255 12.5809 -8.94922
214 1 4.71145 4.71214 14.1572 -8.9445
215 1 6.2865 3.1405 12.5819 -8.95169
216 1 7.85997 4.71306 14.1557 -8.94934
217 1 9.43399 3.14184 12.5814 -8.95041
218 1 11.0076 4.71196 14.1567 -8.94798
219 1 12.5799 3.14102 12.5808 -8.95347
220 1 14.1568 4.70924 14.1574 -8.95024
221 1 15.7252 3.14271 12.5799 -8.94951
222 1 17.2992 4.71431 14.1536 -8.9502
223 1 18.8693 3.14348 12.5797 -8.94934
224 1 20.4415 4.71568 14.1529 -8.94984
225 1 22.0118 6.28819 12.5803 -8.95025
226 1 1.57012 7.86112 14.1536 -8.94951
227 1 3.13824 6.2863 12.5825 -8.95105
228 1 4.71301 7.86089 14.155 -8.9508
229 1 6.27466 6.27588 12.5929 -8.93054
230 1 7.85578 7.85457 14.1644 -8.95281
231 1 9.43401 6.28053 12.5871 -8.95142
232 1 11.0099 7.8526 14.1677 -8.94673
233 1 12.5881 6.27403 12.5904 -8.95643
234 1 14.1722 7.84334 14.1732 -8.92182
235 1 15.7288 6.2856 12.5818 -8.95074
236 1 17.3036 7.85845 14.1565 -8.95218
237 1 18.8702 6.28797 12.5802 -8.94986
238 1 20.4425 7.86092 14.1534 -8.95056
239 1 22.0119 9.43405 12.5805 -8.94999
240 1 3.13936 9.43376 12.5817 -8.94765
241 1 6.28406 9.43374 12.5827 -8.97897
242 1 9.42463 9.4098 12.5964 -8.95218
243 1 12.6317 9.38494 12.6339 -8.85956
244 1 15.7366 9.43145 12.5868 -8.96217
245 1 18.8713 9.43399 12.581 -8.95242
246 1 -0.000558667 6.1182e-14 15.7252 -8.94947
247 1 1.57169 1.57178 17.298 -8.94909
248 1 3.14354 8.18347e-13 15.7257 -8.94951
249 1 4.71647 1.57179 17.298 -8.9496
250 1 6.28886 6.06448e-13 15.7256 -8.94955
251 1 7.8615 1.57176 17.298 -8.94936
252 1 9.43408 5.63368e-13 15.7256 -8.94956
253 1 11.0068 1.57155 17.2981 -8.94946
254 1 12.5795 5.03126e-13 15.7256 -8.94966
255 1 14.1523 1.57124 17.2983 -8.94952
256 1 15.7251 3.50486e-13 15.7255 -8.95028
257 1 17.2979 1.57112 17.2983 -8.94942
258 1 18.8695 -4.12538e-14 15.7251 -8.94964
259 1 20.4418 1.5717 17.2978 -8.94948
260 1 22.0133 3.14361 15.7256 -8.94952
261 1 1.57192 4.71632 17.2982 -8.94982
262 1 3.14265 3.14291 15.7266 -8.94819
263 1 4.7156 4.71578 17.2992 -8.94952
264 1 6.28823 3.14301 15.7264 -8.94965
265 1 7.8611 4.71568 17.2991 -8.94883
266 1 9.43389 3.14272 15.7266 -8.94925
267 1 11.007 4.71491 17.2998 -8.94923
268 1 12.5801 3.14195 15.7269 -8.94919
269 1 14.1538 4.71386 17.3006 -8.94945
270 1 15.7267 3.14113 15.7271 -8.94949
271 1 17.2999 4.71373 17.3002 -8.9474
272 1 18.8702 3.14312 15.7256 -8.94978
273 1 20.4427 4.71572 17.2984 -8.9495
274 1 22.0138 6.28847 15.7259 -8.94986
275 1 1.57236 7.86168 17.298 -8.94955
276 1 3.14278 6.28855 15.7265 -8.95019
277 1 4.71675 7.86227 17.298 -8.95002
278 1 6.28595 6.28647 15.7299 -8.94981
279 1 7.86193 7.86171 17.2997 -8.95275
280 1 9.43365 6.28577 15.73 -8.94649
281 1 11.0077 7.85975 17.3027 -8.95093
282 1 12.5827 6.28389 15.7321 -8.94841
283 1 14.1565 7.85817 17.3051 -8.95191
284 1 15.7323 6.28177 15.7328 -8.94216
285 1 17.3006 7.85979 17.3008 -8.94885
286 1 18.8722 6.2871 15.727 -8.94995
287 1 20.4431 7.86108 17.2986 -8.94936
288 1 22.0142 9.43408 15.726 -8.94954
289 1 3.14367 9.43446 15.7258 -8.94931
290 1 6.28965 9.43554 15.7252 -8.95
291 1 9.43732 9.43437 15.7283 -8.95358
292 1 12.5868 9.43091 15.74 -8.96104
293 1 15.7321 9.43176 15.7327 -8.94667
294 1 18.8727 9.43347 15.7275 -8.94919
295 1 22.0139 5.84951e-14 18.87 -8.94916
296 1 1.57226 1.57201 20.4419 -8.94934
297 1 3.14445 5.61556e-14 18.8699 -8.94956
298 1 4.71695 1.5721 20.4418 -8.94949
299 1 6.28926 4.67163e-14 18.8699 -8.94941
300 1 7.86175 1.57206 20.442 -8.94946
301 1 9.43418 6.12291e-14 18.87 -8.94946
302 1 11.0067 1.57196 20.4422 -8.94947
303 1 12.5793 5.50931e-14 18.8702 -8.94947
304 1 14.1519 1.5718 20.4424 -8.94946
305 1 15.7247 3.10572e-14 18.8703 -8.94952
306 1 17.2972 1.57169 20.4424 -8.94951
307 1 18.8698 3.1093e-14 18.8703 -8.94922
308 1 20.442 1.57189 20.4422 -8.94905
309 1 0.000292216 3.14405 18.8701 -8.94948
310 1 1.57255 4.7168 20.4419 -8.94972
311 1 3.14425 3.14407 18.8702 -8.94951
312 1 4.71683 4.71678 20.4419 -8.9501
313 1 6.2891 3.14414 18.8702 -8.94937
314 1 7.86157 4.71656 20.4422 -8.94948
315 1 9.43409 3.14388 18.8704 -8.94944
316 1 11.0067 4.71618 20.4427 -8.94953
317 1 12.5795 3.14348 18.8708 -8.94939
318 1 14.1524 4.71573 20.443 -8.94962
319 1 15.7253 3.14307 18.871 -8.94955
320 1 17.2982 4.71545 20.4429 -8.94942
321 1 18.8704 3.14331 18.8707 -8.9488
322 1 20.4424 4.71632 20.4423 -8.94944
323 1 22.0146 6.28896 18.8702 -8.9495
324 1 1.57277 7.86185 20.442 -8.94955
325 1 3.1447 6.28944 18.87 -8.94987
326 1 4.71727 7.86223 20.4418 -8.94967
327 1 6.28913 6.2893 18.8706 -8.95074
328 1 7.86198 7.86216 20.4423 -8.95031
329 1 9.43405 6.28848 18.8714 -8.94962
330 1 11.0068 7.86141 20.4433 -8.95042
331 1 12.5801 6.28773 18.8725 -8.94972
332 1 14.1531 7.86084 20.4438 -8.95101
333 1 15.7269 6.28695 18.8729 -8.94998
334 1 17.2987 7.86086 20.4431 -8.94924
335 1 18.871 6.28813 18.8711 -8.94932
336 1 20.4427 7.86144 20.4424 -8.94942
337 1 22.0147 9.43424 18.8703 -8.94949
338 1 3.14485 9.4345 18.8699 -8.94959
339 1 6.28972 9.43481 18.8697 -8.9494
45 1 6.28962 9.43475 22.0142 -8.94944
5 1 6.28938 5.60896e-14 22.0138 -8.94945
9 1 12.5792 5.4306e-14 22.0142 -8.94949
39 1 15.7258 6.28788 22.0139 -8.95011
15 1 22.014 3.14423 22.0139 -8.94949
17 1 3.14434 3.14419 22.0135 -8.94952
33 1 6.28921 6.28938 22.0135 -8.95063
31 1 3.14473 6.28949 22.0137 -8.94981
27 1 18.8699 3.14371 22.0141 -8.94906
29 1 0.000468431 6.28913 22.0139 -8.94948
1 1 -8.274e-05 5.69371e-14 22.014 -8.94913
13 1 18.8694 2.56258e-14 22.0142 -8.94928
21 1 9.43414 3.14416 22.0141 -8.94947
23 1 12.5793 3.14396 22.0143 -8.94944
43 1 22.0145 9.43431 22.014 -8.94951
49 1 18.8706 9.43406 22.0142 -8.94941
344 1 1.5723 11.007 1.57187 -8.94956
345 1 4.71675 11.007 1.57203 -8.94971
346 1 7.86197 11.007 1.57397 -8.9484
347 1 11.0067 11.007 1.57375 -8.94654
348 1 14.1545 11.007 1.56971 -8.94973
349 1 17.2988 11.007 1.57151 -8.9494
350 1 20.4424 11.007 1.57197 -8.94945
538 1 17.2967 20.4422 11.0068 -8.94949
352 1 1.57222 14.1521 1.57183 -8.94943
353 1 3.14484 12.5794 -0.000107833 -8.94958
354 1 4.71675 14.1517 1.57188 -8.94977
688 3 10.2569 11.0069 9.45609 2.20238
356 1 7.86153 14.152 1.5717 -8.95213
511 1 18.8687 18.8701 9.43425 -8.94948
358 1 11.0063 14.1528 1.57141 -8.95049
510 1 15.7245 18.8704 9.43446 -8.94942
360 1 14.1538 14.1538 1.5697 -8.95179
361 1 15.7262 12.5801 0.000147557 -8.9494
362 1 17.2987 14.1531 1.57151 -8.94913
532 1 20.4405 17.2981 11.0071 -8.94954
364 1 20.4423 14.1525 1.57198 -8.94938
509 1 12.5788 18.8693 9.4351 -8.94851
366 1 1.5719 17.2973 1.57164 -8.9498
508 1 9.43325 18.8694 9.43529 -8.94675
368 1 4.71593 17.2979 1.57077 -8.94955
507 1 6.28581 18.8731 9.43497 -8.94985
370 1 7.86133 17.2977 1.57164 -8.94912
371 1 9.43393 15.725 0.000176302 -8.94962
372 1 11.0066 17.2978 1.57198 -8.94937
373 1 12.5794 15.7254 0.000328966 -8.94979
374 1 14.1523 17.2983 1.57172 -8.94982
506 1 3.14158 18.8713 9.43452 -8.94944
376 1 17.2982 17.2987 1.57152 -8.94825
505 1 22.0121 18.8703 9.43429 -8.94945
378 1 20.442 17.2976 1.57201 -8.9495
504 1 18.8688 15.7256 9.43458 -8.94954
380 1 1.57173 20.442 1.57173 -8.94916
503 1 15.7259 15.7267 9.43522 -8.94531
382 1 4.71665 20.442 1.5717 -8.94959
502 1 12.5777 15.723 9.43675 -8.94641
384 1 7.86172 20.4419 1.57204 -8.94944
531 1 17.2976 17.2986 11.0073 -8.94892
386 1 11.0067 20.4419 1.57231 -8.94948
687 2 9.5569 11.007 10.2314 -0.0197227
388 1 14.1518 20.4421 1.5724 -8.94951
501 1 9.42905 15.7206 9.43784 -9.00606
390 1 17.297 20.4423 1.57222 -8.94945
500 1 6.27645 15.7348 9.43612 -8.94358
392 1 20.4414 20.442 1.57222 -8.94944
393 1 1.5705 11.007 4.71598 -8.9495
394 1 4.714 11.007 4.71575 -8.94592
395 1 7.86296 11.007 4.72193 -8.94775
396 1 11.0112 11.007 4.72357 -9.00552
397 1 14.1625 11.007 4.70769 -8.94168
398 1 17.3008 11.007 4.71494 -8.94905
399 1 20.4418 11.007 4.71626 -8.94997
400 1 -0.00018892 12.5797 3.14394 -8.94952
401 1 1.5704 14.1524 4.71609 -8.94985
402 1 3.14354 12.5796 3.1438 -8.94898
403 1 4.71337 14.1527 4.71551 -8.95123
404 1 6.28872 12.5787 3.14509 -8.94948
405 1 7.85521 14.1575 4.71012 -8.95352
406 1 9.43447 12.5794 3.1464 -8.95027
407 1 11.0063 14.156 4.71123 -8.95207
408 1 12.5822 12.5808 3.13804 -8.95984
409 1 14.1647 14.1641 4.70497 -8.92947
410 1 15.7283 12.581 3.14147 -8.94747
411 1 17.3006 14.1541 4.71525 -8.95075
412 1 18.8708 12.58 3.1437 -8.94925
413 1 20.4416 14.1525 4.71642 -8.9502
414 1 22.0135 15.725 3.14397 -8.94981
415 1 1.56981 17.2983 4.71556 -8.94949
416 1 3.1431 15.7251 3.14331 -8.95027
417 1 4.71223 17.301 4.71315 -8.94519
418 1 6.28645 15.7268 3.14115 -8.95004
419 1 7.85995 17.2998 4.71557 -8.94923
420 1 9.4332 15.7264 3.14319 -8.94769
421 1 11.0064 17.2993 4.7159 -8.94801
422 1 12.58 15.7268 3.14231 -8.94958
423 1 14.1542 17.3014 4.71475 -8.94994
424 1 15.7285 15.7289 3.14094 -8.94457
425 1 17.2975 17.2983 4.71665 -8.95023
426 1 18.8705 15.7257 3.14381 -8.94966
427 1 20.4407 17.2976 4.71657 -8.94987
428 1 22.013 18.8699 3.144 -8.94947
429 1 1.57102 20.4422 4.71623 -8.94943
430 1 3.14297 18.8706 3.14303 -8.94839
431 1 4.71568 20.4428 4.71591 -8.95002
432 1 6.28854 18.8705 3.14359 -8.94965
433 1 7.86141 20.4424 4.7166 -8.94967
434 1 9.43392 18.8702 3.14418 -8.94938
435 1 11.0066 20.4422 4.7169 -8.94961
436 1 12.5792 18.8704 3.14431 -8.94924
437 1 14.1517 20.4425 4.71705 -8.95072
438 1 15.7251 18.8711 3.14388 -8.94949
439 1 17.2964 20.442 4.71708 -8.94975
440 1 18.8692 18.8701 3.14441 -8.94975
441 1 20.4408 20.442 4.71673 -8.94944
442 1 1.56844 11.007 7.86138 -8.94773
443 1 4.71372 11.007 7.86287 -8.941
444 1 7.87377 11.007 7.86979 -8.95103
445 1 11.088 11.007 7.62584 -8.16712
446 1 14.1594 11.007 7.85581 -8.97007
447 1 17.2974 11.007 7.86337 -8.95154
448 1 20.4397 11.007 7.86208 -8.94959
449 1 22.012 12.5796 6.28887 -8.94994
450 1 1.56684 14.1533 7.86114 -8.95142
451 1 3.14053 12.5793 6.28863 -8.95005
452 1 4.70297 14.1573 7.8594 -8.95637
453 1 6.28235 12.5777 6.28922 -8.95219
454 1 7.81962 14.1832 7.83502 -8.88798
455 1 9.41809 12.6001 6.28974 -8.94921
456 1 11.0228 14.1581 7.84135 -8.94634
457 1 12.6209 12.6134 6.25306 -8.85101
458 1 14.1562 14.1539 7.86481 -8.95178
459 1 15.734 12.5819 6.28654 -8.9577
460 1 17.2969 14.1522 7.86365 -8.95094
461 1 18.8703 12.5797 6.28931 -8.95183
462 1 20.4395 14.1525 7.86199 -8.95006
463 1 22.0113 15.7254 6.28869 -8.9501
464 1 1.56893 17.2987 7.86126 -8.94935
465 1 3.13847 15.7274 6.287 -8.95011
466 1 4.71138 17.3012 7.86079 -8.948
467 1 6.27581 15.736 6.27966 -8.93229
468 1 7.85751 17.3034 7.86213 -8.95801
469 1 9.43194 15.7312 6.2876 -8.9519
470 1 11.0054 17.2975 7.86317 -8.95136
471 1 12.5849 15.7346 6.28403 -8.95318
472 1 14.1518 17.2978 7.86317 -8.9492
473 1 15.7264 15.7265 6.28938 -8.95118
474 1 17.2968 17.2979 7.86197 -8.9487
475 1 18.8688 15.7251 6.28955 -8.95017
476 1 20.4402 17.2979 7.86159 -8.9495
477 1 -0.00158418 18.8702 6.28884 -8.94941
478 1 1.57057 20.4423 7.8615 -8.94946
479 1 3.14208 18.8711 6.2883 -8.94926
480 1 4.71495 20.443 7.8615 -8.94954
481 1 6.28691 18.8726 6.28825 -8.95152
482 1 7.86095 20.4428 7.8622 -8.95108
483 1 9.43365 18.8711 6.28932 -8.95042
484 1 11.0062 20.4417 7.86253 -8.94939
485 1 12.579 18.8711 6.28974 -8.95252
486 1 14.1514 20.4419 7.86228 -8.94948
487 1 15.7241 18.8701 6.28976 -8.94971
488 1 17.2964 20.442 7.86178 -8.94942
489 1 18.8686 18.8699 6.28926 -8.94933
490 1 20.4406 20.442 7.86162 -8.94947
491 1 22.01 12.5798 9.43439 -8.94963
492 1 3.13646 12.5805 9.43404 -8.95058
493 1 6.2726 12.5891 9.43388 -9.01917
494 1 9.35954 12.8167 9.43437 -8.35303
495 1 12.562 12.5739 9.43343 -8.94899
496 1 15.7196 12.5779 9.43811 -8.94401
497 1 18.8671 12.5796 9.43536 -8.94782
498 1 22.0108 15.7258 9.43437 -8.94998
499 1 3.13752 15.7279 9.43479 -8.94919
526 1 1.56888 17.2988 11.0076 -8.94926
527 1 4.71109 17.3015 11.0091 -8.94744
534 1 4.71481 20.4431 11.0077 -8.94947
389 1 15.7247 18.8703 0.000361334 -8.94965
383 1 6.28924 18.8696 -0.000171454 -8.94945
377 1 18.8704 15.7254 0.000275633 -8.94938
512 1 1.56686 11.007 11.0077 -8.95071
513 1 4.70471 11.007 11.0081 -8.95596
514 1 7.83046 11.007 11.016 -9.12748
515 1 11.1463 11.007 11.2702 -8.33256
516 1 14.1471 11.007 11.0219 -8.98656
517 1 17.2959 11.007 11.0088 -8.9466
518 1 20.4395 11.007 11.0074 -8.94914
519 1 1.567 14.1532 11.0077 -8.95143
520 1 4.70339 14.1565 11.0108 -8.95796
521 1 7.81976 14.1881 11.044 -8.90997
522 1 11.0258 14.159 11.0368 -8.96204
523 1 14.1578 14.1556 11.0078 -8.95084
524 1 17.2982 14.1533 11.0076 -8.95031
525 1 20.44 14.1527 11.0073 -8.95009
686 1 20.442 20.442 20.4422 -8.94905
391 1 18.8699 18.8702 22.0141 -8.94906
528 1 7.85748 17.3047 11.0099 -8.95904
529 1 11.0062 17.2985 11.0089 -8.95067
530 1 14.153 17.2992 11.0074 -8.94874
685 1 18.8704 18.8706 18.8707 -8.9488
684 1 17.2972 20.4422 20.4424 -8.94951
533 1 1.57054 20.4424 11.0072 -8.94945
381 1 3.14434 18.8697 22.0135 -8.94952
535 1 7.8609 20.4431 11.0075 -8.95139
536 1 11.0063 20.4421 11.0071 -8.94937
537 1 14.1519 20.4423 11.0069 -8.94958
683 1 15.7253 18.8708 18.871 -8.94955
539 1 20.4407 20.4421 11.0069 -8.94948
540 1 1.57054 11.007 14.1535 -8.94897
541 1 4.71516 11.007 14.1532 -8.94696
542 1 7.86743 11.007 14.1483 -8.99075
543 1 11.0202 11.007 14.1543 -9.05562
544 1 14.1679 11.007 14.1696 -8.94193
545 1 17.3036 11.007 14.1576 -8.94923
546 1 20.4428 11.007 14.1538 -8.95011
547 1 22.0119 12.5799 12.5805 -8.94999
548 1 1.57012 14.1528 14.1536 -8.94951
549 1 3.13936 12.5801 12.5817 -8.94765
550 1 4.71301 14.153 14.155 -8.9508
551 1 6.28406 12.5802 12.5827 -8.97897
552 1 7.85578 14.1593 14.1644 -8.95281
553 1 9.42463 12.6041 12.5964 -8.95218
554 1 11.0099 14.1613 14.1677 -8.94673
555 1 12.6317 12.629 12.6339 -8.85956
556 1 14.1722 14.1706 14.1732 -8.92182
557 1 15.7366 12.5825 12.5868 -8.96217
558 1 17.3036 14.1555 14.1565 -8.95218
559 1 18.8713 12.5799 12.581 -8.95242
560 1 20.4425 14.153 14.1534 -8.95056
561 1 22.0118 15.7257 12.5803 -8.95025
562 1 1.56975 17.2987 14.1538 -8.94974
563 1 3.13824 15.7276 12.5825 -8.95105
564 1 4.71145 17.3018 14.1572 -8.9445
565 1 6.27466 15.738 12.5929 -8.93054
566 1 7.85997 17.3008 14.1557 -8.94934
567 1 9.43401 15.7334 12.5871 -8.95142
568 1 11.0076 17.3019 14.1567 -8.94798
569 1 12.5881 15.7399 12.5904 -8.95643
570 1 14.1568 17.3047 14.1574 -8.95024
571 1 15.7288 15.7283 12.5818 -8.95074
572 1 17.2992 17.2996 14.1536 -8.9502
573 1 18.8702 15.7259 12.5802 -8.94986
574 1 20.4415 17.2982 14.1529 -8.94984
575 1 22.0125 18.8704 12.58 -8.9494
576 1 1.57097 20.4423 14.1529 -8.94945
577 1 3.14184 18.8714 12.5809 -8.94922
578 1 4.71532 20.443 14.1536 -8.95004
579 1 6.2865 18.8734 12.5819 -8.95169
580 1 7.86126 20.4428 14.1532 -8.94967
581 1 9.43399 18.8721 12.5814 -8.95041
582 1 11.0068 20.443 14.1533 -8.94986
583 1 12.5799 18.8729 12.5808 -8.95347
584 1 14.1526 20.4434 14.153 -8.95111
585 1 15.7252 18.8712 12.5799 -8.94951
586 1 17.2973 20.4425 14.1524 -8.94968
587 1 18.8693 18.8704 12.5797 -8.94934
588 1 20.4412 20.4422 14.1524 -8.94944
589 1 1.57242 11.007 17.298 -8.94955
590 1 4.71683 11.007 17.2976 -8.94935
591 1 7.86276 11.007 17.297 -8.94725
592 1 11.0092 11.007 17.3007 -8.94612
593 1 14.1576 11.007 17.3054 -8.94925
594 1 17.3009 11.007 17.3011 -8.94925
595 1 20.4433 11.007 17.2988 -8.94947
596 1 22.0142 12.5798 15.726 -8.94954
597 1 1.57236 14.1522 17.298 -8.94955
598 1 3.14367 12.5794 15.7258 -8.94931
599 1 4.71675 14.1516 17.298 -8.95002
600 1 6.28965 12.5784 15.7252 -8.95
601 1 7.86193 14.1522 17.2997 -8.95275
602 1 9.43732 12.5795 15.7283 -8.95358
603 1 11.0077 14.1542 17.3027 -8.95093
604 1 12.5868 12.583 15.74 -8.96104
605 1 14.1565 14.1557 17.3051 -8.95191
606 1 15.7321 12.5821 15.7327 -8.94667
607 1 17.3006 14.1541 17.3008 -8.94885
608 1 18.8727 12.5804 15.7275 -8.94919
609 1 20.4431 14.1528 17.2986 -8.94936
610 1 22.0138 15.7254 15.7259 -8.94986
611 1 1.57192 17.2976 17.2982 -8.94982
612 1 3.14278 15.7253 15.7265 -8.95019
613 1 4.7156 17.2981 17.2992 -8.94952
614 1 6.28595 15.7274 15.7299 -8.94981
615 1 7.8611 17.2982 17.2991 -8.94883
616 1 9.43365 15.7281 15.73 -8.94649
617 1 11.007 17.299 17.2998 -8.94923
618 1 12.5827 15.73 15.7321 -8.94841
619 1 14.1538 17.3 17.3006 -8.94945
620 1 15.7323 15.7321 15.7328 -8.94216
621 1 17.2999 17.3002 17.3002 -8.9474
622 1 18.8722 15.7268 15.727 -8.94995
623 1 20.4427 17.2982 17.2984 -8.9495
624 1 22.0133 18.8703 15.7256 -8.94952
625 1 1.57169 20.4421 17.298 -8.94909
626 1 3.14265 18.871 15.7266 -8.94819
627 1 4.71647 20.4421 17.298 -8.9496
628 1 6.28823 18.8709 15.7264 -8.94965
629 1 7.8615 20.4421 17.298 -8.94936
630 1 9.43389 18.8712 15.7266 -8.94925
631 1 11.0068 20.4423 17.2981 -8.94946
632 1 12.5801 18.872 15.7269 -8.94919
633 1 14.1523 20.4427 17.2983 -8.94952
634 1 15.7267 18.8728 15.7271 -8.94949
635 1 17.2979 20.4428 17.2983 -8.94942
636 1 18.8702 18.8708 15.7256 -8.94978
637 1 20.4418 20.4422 17.2978 -8.94948
638 1 1.57282 11.007 20.442 -8.94957
639 1 4.7173 11.007 20.4418 -8.94969
640 1 7.86211 11.007 20.4423 -8.94894
641 1 11.007 11.007 20.4435 -8.94855
642 1 14.1537 11.007 20.4439 -8.95058
643 1 17.2989 11.007 20.4432 -8.9494
644 1 20.4428 11.007 20.4424 -8.94945
645 1 22.0147 12.5797 18.8703 -8.94949
646 1 1.57277 14.1521 20.442 -8.94955
647 1 3.14485 12.5794 18.8699 -8.94959
648 1 4.71727 14.1517 20.4418 -8.94967
649 1 6.28972 12.5791 18.8697 -8.9494
650 1 7.86198 14.1517 20.4423 -8.95031
651 1 9.43492 12.5793 18.8709 -8.94946
652 1 11.0068 14.1525 20.4433 -8.95042
653 1 12.5809 12.58 18.8741 -8.95223
654 1 14.1531 14.1531 20.4438 -8.95101
655 1 15.7275 12.5805 18.8733 -8.94919
656 1 17.2987 14.153 20.4431 -8.94924
657 1 18.8714 12.58 18.8713 -8.94933
658 1 20.4427 14.1525 20.4424 -8.94942
659 1 22.0146 15.7249 18.8702 -8.9495
660 1 1.57255 17.2971 20.4419 -8.94972
661 1 3.1447 15.7245 18.87 -8.94987
662 1 4.71683 17.2971 20.4419 -8.9501
663 1 6.28913 15.7246 18.8706 -8.95074
664 1 7.86157 17.2973 20.4422 -8.94948
665 1 9.43405 15.7254 18.8714 -8.94962
666 1 11.0067 17.2977 20.4427 -8.94953
667 1 12.5801 15.7262 18.8725 -8.94972
668 1 14.1524 17.2982 20.443 -8.94962
669 1 15.7269 15.727 18.8729 -8.94998
670 1 17.2982 17.2985 20.4429 -8.94942
671 1 18.871 15.7258 18.8711 -8.94932
672 1 20.4424 17.2976 20.4423 -8.94944
673 1 0.000292216 18.8699 18.8701 -8.94948
674 1 1.57226 20.4419 20.4419 -8.94934
675 1 3.14425 18.8698 18.8702 -8.94951
676 1 4.71695 20.4418 20.4418 -8.94949
677 1 6.2891 18.8698 18.8702 -8.94937
678 1 7.86175 20.4418 20.442 -8.94946
679 1 9.43409 18.87 18.8704 -8.94944
680 1 11.0067 20.4419 20.4422 -8.94947
681 1 12.5795 18.8704 18.8708 -8.94939
682 1 14.1519 20.4421 20.4424 -8.94946
355 1 6.28962 12.5791 22.0142 -8.94944
357 1 9.43435 12.5792 22.015 -8.9491
359 1 12.5797 12.5796 22.0141 -8.9518
365 1 0.000468431 15.7248 22.0139 -8.94948
367 1 3.14473 15.7244 22.0137 -8.94981
369 1 6.28921 15.7245 22.0135 -8.95063
375 1 15.7258 15.726 22.0139 -8.95011
379 1 22.014 18.8697 22.0139 -8.94949
351 1 22.0145 12.5796 22.014 -8.94951
363 1 18.8706 12.5798 22.0142 -8.94941
385 1 9.43414 18.8697 22.0141 -8.94947
387 1 12.5793 18.8699 22.0143 -8.94944
