ITEM: TIMESTEP
62
ITEM: NUMBER OF ATOMS
688
ITEM: BOX BOUNDS pp pp pp
0.0000000000000000e+00 2.2013900999999997e+01
0.0000000000000000e+00 2.2013900999999997e+01
0.0000000000000000e+00 2.2013900999999997e+01
ITEM: ATOMS id type x y z c_pot
189 1 20.4415 4.71684 11.007 -8.94954
2 1 1.57222 1.57229 1.57222 -8.94933
175 1 18.8694 9.43432 9.43457 -8.94861
4 1 4.71717 1.57225 1.5722 -8.9497
174 1 15.7233 9.43569 9.43562 -8.94893
6 1 7.86208 1.57223 1.57218 -8.94956
7 1 9.43452 3.90035e-16 -8.86251e-05 -8.94962
8 1 11.007 1.57222 1.57217 -8.94959
173 1 12.5747 9.42915 9.42057 -8.92529
10 1 14.1519 1.57223 1.57223 -8.94954
172 1 9.34773 9.21965 9.44331 -8.21103
12 1 17.2968 1.5722 1.57222 -8.94956
188 1 17.2974 4.71639 11.0068 -8.94914
14 1 20.4415 1.57234 1.57236 -8.94958
171 1 6.26038 9.41609 9.4231 -8.99876
16 1 1.57223 4.71713 1.57215 -8.9498
170 1 3.13597 9.43285 9.43234 -8.9525
18 1 4.71658 4.71658 1.5713 -8.94945
169 1 22.0119 9.43424 9.43417 -8.95037
20 1 7.86196 4.71666 1.5716 -8.94923
183 1 1.57121 4.71635 11.0072 -8.94931
22 1 11.007 4.71659 1.57166 -8.94943
181 1 17.2969 1.57217 11.0069 -8.94957
24 1 14.152 4.71658 1.57173 -8.94969
168 1 18.8698 6.28889 9.43437 -8.94933
26 1 17.2974 4.71643 1.57168 -8.94852
167 1 15.7262 6.28759 9.43389 -8.9452
28 1 20.4417 4.71709 1.57223 -8.94959
166 1 12.5777 6.2894 9.43399 -8.95024
30 1 1.57224 7.86206 1.57214 -8.94948
165 1 9.42917 6.29215 9.43629 -9.00113
32 1 4.71698 7.86226 1.5718 -8.94984
164 1 6.27979 6.27907 9.43435 -8.9468
34 1 7.86178 7.86184 1.57051 -8.95196
35 1 9.43432 6.28918 -0.000629721 -8.94955
36 1 11.0066 7.86132 1.5704 -8.95001
37 1 12.5794 6.28922 -0.000589135 -8.94953
38 1 14.153 7.86088 1.56969 -8.95137
163 1 3.1406 6.287 9.43422 -8.94882
40 1 17.2975 7.8617 1.57166 -8.94935
162 1 22.0129 6.289 9.43443 -8.94976
42 1 20.4417 7.86202 1.57219 -8.94954
158 1 9.43463 3.14378 9.43453 -8.94712
44 1 3.14461 9.4345 -0.000202047 -8.94963
161 1 18.8693 3.14451 9.43449 -8.9496
160 1 15.7248 3.14397 9.43439 -8.94946
159 1 12.5795 3.14421 9.43448 -8.94914
48 1 15.7249 9.43429 -0.000665518 -8.94943
157 1 6.28816 3.14146 9.43456 -8.95007
50 1 22.0138 1.37798e-15 3.14477 -8.94963
51 1 1.57214 1.57219 4.71708 -8.94961
52 1 3.14455 -2.20981e-16 3.14453 -8.94955
53 1 4.71672 1.57166 4.71664 -8.94989
54 1 6.28963 9.18829e-16 3.14457 -8.94959
55 1 7.86212 1.57177 4.71679 -8.94956
56 1 9.43456 9.38328e-16 3.14453 -8.94958
57 1 11.0072 1.5718 4.71678 -8.94956
58 1 12.5795 1.13887e-16 3.14457 -8.94952
59 1 14.1521 1.57183 4.71704 -8.95032
60 1 15.7244 1.30364e-15 3.14466 -8.94988
61 1 17.2968 1.57224 4.71724 -8.94969
62 1 18.8691 1.91465e-15 3.14482 -8.94967
63 1 20.4415 1.57234 4.71722 -8.9496
64 1 22.0136 3.1446 3.1446 -8.94946
65 1 1.57118 4.7164 4.71637 -8.94916
66 1 3.14403 3.14406 3.14398 -8.94845
67 1 4.71412 4.71406 4.71394 -8.94504
68 1 6.28944 3.14409 3.14412 -8.94974
69 1 7.86163 4.71485 4.71544 -8.94941
70 1 9.43455 3.14406 3.14417 -8.94944
71 1 11.0074 4.71506 4.71567 -8.94811
72 1 12.5796 3.14405 3.14427 -8.94921
73 1 14.1535 4.7141 4.71559 -8.95054
74 1 15.7248 3.14384 3.14423 -8.94963
75 1 17.2974 4.71647 4.71693 -8.94977
76 1 18.8692 3.14459 3.14471 -8.94968
77 1 20.4414 4.71697 4.71707 -8.94973
78 1 22.0139 6.28955 3.14456 -8.94976
79 1 1.57169 7.86203 4.71658 -8.94966
80 1 3.1441 6.28942 3.14394 -8.95037
81 1 4.71537 7.86197 4.71512 -8.9522
82 1 6.28767 6.28769 3.14117 -8.94991
83 1 7.85715 7.8569 4.70828 -8.95358
84 1 9.43424 6.28801 3.14257 -8.94794
85 1 11.0069 7.85862 4.71108 -8.94966
86 1 12.5799 6.28799 3.14264 -8.94911
87 1 14.1623 7.85205 4.70658 -8.93458
88 1 15.7273 6.28659 3.14179 -8.94546
89 1 17.2997 7.86063 4.7158 -8.9506
90 1 18.87 6.28911 3.14427 -8.94967
91 1 20.442 7.86185 4.71689 -8.94997
92 1 -5.65027e-05 9.43447 3.14446 -8.94957
93 1 3.14415 9.4345 3.14391 -8.94907
94 1 6.28939 9.43527 3.14375 -8.94961
95 1 9.43471 9.43452 3.14321 -8.95106
96 1 12.5815 9.43337 3.13774 -8.95818
97 1 15.7268 9.43354 3.14221 -8.94787
98 1 18.87 9.43433 3.14421 -8.94938
99 1 22.0138 1.53924e-15 6.28965 -8.94962
100 1 1.57211 1.57216 7.86204 -8.94959
101 1 3.14448 4.68799e-16 6.2895 -8.94957
102 1 4.71661 1.57149 7.86185 -8.94963
103 1 6.28943 1.73766e-15 6.28933 -8.95048
104 1 7.86209 1.57101 7.86196 -8.9512
105 1 9.43475 1.68784e-15 6.28936 -8.95002
106 1 11.0071 1.57192 7.8621 -8.94929
107 1 12.5795 1.6111e-15 6.2896 -8.9501
108 1 14.152 1.57203 7.86214 -8.94964
109 1 15.7244 1.34484e-15 6.28967 -8.94964
110 1 17.2969 1.57219 7.86205 -8.94954
111 1 18.8691 1.45099e-15 6.28965 -8.94957
112 1 20.4415 1.57231 7.86208 -8.94962
113 1 -0.000269302 3.14454 6.28956 -8.94953
114 1 1.57122 4.71632 7.86178 -8.94934
115 1 3.1439 3.14376 6.28912 -8.94946
116 1 4.71428 4.71358 7.86072 -8.94869
117 1 6.28853 3.14188 6.28838 -8.95123
118 1 7.85994 4.71007 7.86085 -8.95818
119 1 9.4349 3.14275 6.28887 -8.95008
120 1 11.0062 4.71625 7.86225 -8.94988
121 1 12.5796 3.14327 6.28953 -8.95169
122 1 14.1523 4.71589 7.8624 -8.9499
123 1 15.7246 3.14419 6.28973 -8.94972
124 1 17.2973 4.7165 7.86198 -8.94889
125 1 18.8692 3.14459 6.28963 -8.94947
126 1 20.4414 4.71685 7.86199 -8.94949
127 1 22.0129 6.28911 6.28916 -8.94999
128 1 1.56886 7.86092 7.8609 -8.95132
129 1 3.14045 6.28694 6.28686 -8.94882
130 1 4.70385 7.85473 7.85552 -8.95094
131 1 6.27878 6.27874 6.27891 -8.93144
132 1 7.82376 7.82911 7.83212 -8.86355
133 1 9.43424 6.28322 6.28639 -8.95106
134 1 11.0146 7.86036 7.84721 -8.91963
135 1 12.583 6.28226 6.28566 -8.95506
136 1 14.1575 7.85809 7.86079 -8.94664
137 1 15.7265 6.28769 6.28889 -8.94955
138 1 17.2982 7.86161 7.86262 -8.95097
139 1 18.8696 6.28924 6.28961 -8.94996
140 1 20.4412 7.86173 7.86195 -8.9501
141 1 22.0134 9.43445 6.28914 -8.94971
142 1 3.14258 9.43478 6.28804 -8.94921
143 1 6.28599 9.43688 6.28718 -8.95608
144 1 9.42126 9.41584 6.28394 -8.9106
145 1 12.6129 9.40724 6.2573 -8.87726
146 1 15.7328 9.43237 6.28663 -8.95593
147 1 18.8709 9.43426 6.28932 -8.95118
148 1 -0.000110801 8.50833e-16 9.43453 -8.94962
149 1 3.14444 1.28972e-15 9.43452 -8.94957
150 1 6.28927 1.98346e-15 9.43454 -8.95033
151 1 9.43477 1.2251e-15 9.43449 -8.94888
152 1 12.5796 2.04908e-15 9.43451 -8.94947
153 1 15.7245 2.1729e-15 9.43449 -8.9497
154 1 18.8692 1.63854e-15 9.43452 -8.94962
155 1 22.0136 3.14452 9.43452 -8.94957
156 1 3.14387 3.14375 9.4345 -8.94949
177 1 4.71658 1.57149 11.0072 -8.9495
184 1 4.71415 4.71373 11.008 -8.94773
3 1 3.1448 2.85184e-16 -6.9564e-05 -8.94968
11 1 15.7242 1.98442e-15 -5.86941e-05 -8.94961
41 1 18.8693 6.28955 -0.000148066 -8.94959
19 1 6.28962 3.14464 -0.000195362 -8.94954
25 1 15.7243 3.14463 -0.000155925 -8.9497
176 1 1.5721 1.57216 11.007 -8.94958
47 1 12.5794 9.43441 22.0127 -8.9514
178 1 7.86214 1.57103 11.0071 -8.95117
179 1 11.007 1.57184 11.0069 -8.94933
180 1 14.1521 1.57192 11.0068 -8.94961
343 1 18.8694 9.43446 18.8694 -8.94955
182 1 20.4415 1.57231 11.007 -8.94962
342 1 15.7251 9.43423 18.8703 -8.94923
46 1 9.43433 9.43453 22.0133 -8.94933
185 1 7.85973 4.71023 11.0085 -8.95781
186 1 11.0064 4.71583 11.0069 -8.94975
187 1 14.1527 4.71541 11.006 -8.94912
341 1 12.5793 9.4344 18.8712 -8.9525
340 1 9.43427 9.43463 18.8691 -8.9485
190 1 1.56888 7.86115 11.0072 -8.95125
191 1 4.70382 7.85681 11.0096 -8.95496
192 1 7.81847 7.83018 11.0407 -8.91529
193 1 11.0252 7.85892 11.0278 -8.97298
194 1 14.1588 7.85755 11.004 -8.94848
195 1 17.299 7.86095 11.0062 -8.94996
196 1 20.4414 7.86164 11.0069 -8.9501
197 1 22.0138 7.28388e-16 12.5794 -8.94962
198 1 1.57214 1.57218 14.1519 -8.94961
199 1 3.14447 4.08847e-16 12.5795 -8.94952
200 1 4.71669 1.57154 14.1525 -8.95013
201 1 6.28945 5.31632e-16 12.5797 -8.95068
202 1 7.86217 1.57187 14.1523 -8.94939
203 1 9.43472 5.93161e-16 12.5797 -8.94975
204 1 11.007 1.57177 14.1523 -8.94948
205 1 12.5795 2.82086e-15 12.5794 -8.95059
206 1 14.1521 1.5715 14.1521 -8.95077
207 1 15.7244 2.74321e-15 12.5793 -8.94959
208 1 17.2968 1.57221 14.1518 -8.94966
209 1 18.8691 1.70352e-15 12.5794 -8.94959
210 1 20.4415 1.57233 14.1518 -8.94959
211 1 22.0136 3.14453 12.5795 -8.94952
212 1 1.57124 4.71637 14.1526 -8.94966
213 1 3.1439 3.14377 12.5798 -8.94933
214 1 4.71376 4.71322 14.1555 -8.9453
215 1 6.28851 3.1416 12.5807 -8.95188
216 1 7.86201 4.71553 14.1534 -8.94901
217 1 9.43486 3.14318 12.5801 -8.94923
218 1 11.0066 4.71499 14.1535 -8.94758
219 1 12.5796 3.14226 12.5796 -8.95339
220 1 14.1545 4.71199 14.1544 -8.95106
221 1 15.7247 3.14401 12.5792 -8.94953
222 1 17.2976 4.71633 14.152 -8.95005
223 1 18.8692 3.14455 12.5794 -8.94949
224 1 20.4415 4.71693 14.1519 -8.9497
225 1 22.013 6.28911 12.5797 -8.95
226 1 1.57059 7.86125 14.1531 -8.94939
227 1 3.14068 6.2872 12.5814 -8.95052
228 1 4.71217 7.85862 14.1568 -8.94465
229 1 6.27738 6.27677 12.591 -8.93376
230 1 7.85974 7.86027 14.158 -8.96051
231 1 9.43447 6.28618 12.5818 -8.94672
232 1 11.0034 7.85909 14.1581 -8.9494
233 1 12.5854 6.27583 12.5855 -8.96033
234 1 14.1703 7.84372 14.1703 -8.91252
235 1 15.7271 6.2873 12.5794 -8.94998
236 1 17.3012 7.86011 14.1537 -8.95254
237 1 18.8699 6.28909 12.5793 -8.94956
238 1 20.442 7.86169 14.1522 -8.95045
239 1 22.0125 9.43419 12.58 -8.9505
240 1 3.13785 9.43302 12.5822 -8.94989
241 1 6.2697 9.42624 12.591 -8.97476
242 1 9.42697 9.43414 12.5672 -9.0437
243 1 12.6394 9.37521 12.6386 -8.8234
244 1 15.7361 9.43242 12.5823 -8.96498
245 1 18.8712 9.43439 12.5795 -8.95257
246 1 -8.67565e-05 1.54864e-15 15.7243 -8.94964
247 1 1.57218 1.57223 17.2969 -8.9493
248 1 3.14452 3.94716e-16 15.7246 -8.94964
249 1 4.71722 1.57228 17.2968 -8.9497
250 1 6.28967 1.32813e-15 15.7245 -8.94953
251 1 7.86207 1.57223 17.2969 -8.94952
252 1 9.43453 1.48866e-15 15.7245 -8.94956
253 1 11.0069 1.5722 17.2969 -8.94957
254 1 12.5794 1.66843e-15 15.7245 -8.94948
255 1 14.1518 1.57221 17.2968 -8.94954
256 1 15.7245 1.97016e-16 15.7245 -8.95004
257 1 17.2969 1.57209 17.2969 -8.94952
258 1 18.8691 1.1886e-15 15.7242 -8.94968
259 1 20.4415 1.57233 17.2967 -8.94965
260 1 22.0136 3.14458 15.7244 -8.94958
261 1 1.57211 4.71694 17.2971 -8.94939
262 1 3.14391 3.14382 15.7252 -8.9484
263 1 4.7168 4.7167 17.2976 -8.94996
264 1 6.2896 3.14423 15.7249 -8.94966
265 1 7.86194 4.7167 17.2974 -8.94897
266 1 9.43444 3.14404 15.7249 -8.94934
267 1 11.0068 4.71653 17.2975 -8.94933
268 1 12.5793 3.14396 15.7248 -8.94915
269 1 14.1519 4.71646 17.2975 -8.95013
270 1 15.7251 3.14326 15.7251 -8.94962
271 1 17.2979 4.71595 17.2979 -8.94748
272 1 18.8693 3.14455 15.7243 -8.9498
273 1 20.4417 4.71696 17.2969 -8.94952
274 1 22.0137 6.28929 15.7247 -8.94966
275 1 1.57214 7.86196 17.2971 -8.94951
276 1 3.14344 6.28856 15.7259 -8.94852
277 1 4.71686 7.86199 17.2979 -8.95035
278 1 6.28851 6.28837 15.7273 -8.95151
279 1 7.86228 7.86231 17.2978 -8.95194
280 1 9.43375 6.28812 15.7265 -8.94665
281 1 11.0059 7.86137 17.2987 -8.94994
282 1 12.579 6.2877 15.7268 -8.95039
283 1 14.1536 7.86011 17.3012 -8.95242
284 1 15.7293 6.2844 15.7293 -8.94091
285 1 17.2978 7.86153 17.2978 -8.94911
286 1 18.8704 6.28883 15.725 -8.94994
287 1 20.4417 7.86197 17.297 -8.94945
288 1 22.0137 9.43438 15.7248 -8.94947
289 1 3.14364 9.43422 15.7257 -8.94891
290 1 6.28893 9.43515 15.7264 -8.95286
291 1 9.43513 9.43659 15.7221 -8.94759
292 1 12.5826 9.43221 15.7361 -8.96393
293 1 15.7283 9.43308 15.7283 -8.94631
294 1 18.8704 9.43424 15.7251 -8.94917
295 1 22.0138 1.78946e-15 18.8691 -8.94947
296 1 1.57237 1.57235 20.4415 -8.94957
297 1 3.14482 2.25271e-16 18.8691 -8.9497
298 1 4.71724 1.57236 20.4415 -8.94961
299 1 6.28966 7.89899e-16 18.8691 -8.94959
300 1 7.86209 1.57233 20.4415 -8.94961
301 1 9.43452 6.10767e-16 18.8692 -8.94962
302 1 11.007 1.57233 20.4415 -8.94962
303 1 12.5794 9.79846e-16 18.8692 -8.9496
304 1 14.1518 1.57234 20.4415 -8.9496
305 1 15.7242 2.20721e-15 18.8691 -8.94963
306 1 17.2967 1.57235 20.4415 -8.94972
307 1 18.8691 1.91741e-15 18.8692 -8.94951
308 1 20.4415 1.57236 20.4415 -8.94942
309 1 -8.02998e-06 3.14474 18.8692 -8.94953
310 1 1.57236 4.71721 20.4415 -8.94968
311 1 3.14469 3.14465 18.8693 -8.94966
312 1 4.7171 4.71708 20.4414 -8.94989
313 1 6.28963 3.14465 18.8692 -8.94949
314 1 7.86198 4.71697 20.4415 -8.9495
315 1 9.43448 3.14457 18.8693 -8.94958
316 1 11.0069 4.71694 20.4415 -8.94956
317 1 12.5794 3.14459 18.8693 -8.94951
318 1 14.1518 4.71699 20.4415 -8.94959
319 1 15.7243 3.1446 18.8693 -8.94982
320 1 17.297 4.71688 20.4416 -8.94955
321 1 18.8693 3.14455 18.8693 -8.9491
322 1 20.4416 4.7172 20.4415 -8.94965
323 1 22.0139 6.28962 18.8692 -8.9496
324 1 1.57232 7.86207 20.4415 -8.94959
325 1 3.14465 6.28957 18.8694 -8.94978
326 1 4.71712 7.8621 20.4416 -8.94978
327 1 6.28956 6.28952 18.8696 -8.95038
328 1 7.86199 7.86202 20.4414 -8.95009
329 1 9.43423 6.28915 18.8697 -8.94951
330 1 11.0066 7.86178 20.4415 -8.94995
331 1 12.5792 6.28922 18.8698 -8.94951
332 1 14.1521 7.8617 20.4418 -8.95079
333 1 15.725 6.28882 18.8703 -8.95004
334 1 17.297 7.86193 20.4416 -8.94943
335 1 18.8694 6.28951 18.8693 -8.94959
336 1 20.4416 7.86207 20.4415 -8.94962
337 1 22.0139 9.4345 18.8692 -8.94961
338 1 3.14456 9.43447 18.8695 -8.94956
339 1 6.28957 9.43464 18.8695 -8.95004
45 1 6.28947 9.43461 22.0136 -8.94957
5 1 6.28966 9.1505e-17 22.0138 -8.9496
9 1 12.5794 2.90632e-16 22.0138 -8.94961
39 1 15.7248 6.28906 22.0133 -8.95
15 1 22.0139 3.14477 22.0138 -8.94963
17 1 3.14465 3.14464 22.0137 -8.94953
33 1 6.2894 6.28941 22.0132 -8.95035
31 1 3.1447 6.28967 22.0138 -8.94978
27 1 18.8693 3.14463 22.0138 -8.94932
29 1 -1.99392e-06 6.28965 22.0138 -8.94959
1 1 -4.12612e-05 6.88737e-16 22.0139 -8.94949
13 1 18.8691 1.38505e-15 22.0138 -8.94956
21 1 9.43451 3.14459 22.0137 -8.94958
23 1 12.5794 3.1446 22.0137 -8.94955
43 1 22.0139 9.43451 22.0138 -8.94962
49 1 18.8693 9.43448 22.0137 -8.94958
344 1 1.5722 11.007 1.57209 -8.94961
345 1 4.71677 11.007 1.57161 -8.9498
346 1 7.86192 11.007 1.57202 -8.94822
347 1 11.0068 11.007 1.57118 -8.94725
348 1 14.1534 11.007 1.56953 -8.94958
349 1 17.2975 11.007 1.57165 -8.94953
350 1 20.4417 11.007 1.57218 -8.94958
538 1 17.2969 20.4417 11.0069 -8.94957
352 1 1.57224 14.1518 1.57214 -8.94948
353 1 3.14461 12.5794 -0.000202047 -8.94963
354 1 4.71698 14.1516 1.5718 -8.94984
688 3 10.2263 11.007 9.5067 2.24489
356 1 7.86178 14.1521 1.57051 -8.95196
511 1 18.8693 18.8694 9.43449 -8.9496
358 1 11.0066 14.1526 1.5704 -8.95001
510 1 15.7248 18.8699 9.43439 -8.94946
360 1 14.153 14.153 1.56969 -8.95137
361 1 15.7249 12.5796 -0.000665518 -8.94943
362 1 17.2975 14.1522 1.57166 -8.94935
532 1 20.4415 17.2971 11.007 -8.94954
364 1 20.4417 14.1519 1.57219 -8.94954
509 1 12.5795 18.8697 9.43448 -8.94914
366 1 1.57223 17.2968 1.57215 -8.9498
508 1 9.43463 18.8701 9.43453 -8.94712
368 1 4.71658 17.2973 1.5713 -8.94945
507 1 6.28816 18.8724 9.43456 -8.95007
370 1 7.86196 17.2972 1.5716 -8.94923
371 1 9.43432 15.7247 -0.000629721 -8.94955
372 1 11.007 17.2973 1.57166 -8.94943
373 1 12.5794 15.7247 -0.000589135 -8.94953
374 1 14.152 17.2973 1.57173 -8.94969
506 1 3.14387 18.8702 9.4345 -8.94949
376 1 17.2974 17.2975 1.57168 -8.94852
505 1 22.0136 18.8694 9.43452 -8.94957
378 1 20.4417 17.2968 1.57223 -8.94959
504 1 18.8698 15.725 9.43437 -8.94933
380 1 1.57222 20.4416 1.57222 -8.94933
503 1 15.7262 15.7263 9.43389 -8.9452
382 1 4.71717 20.4417 1.5722 -8.9497
502 1 12.5777 15.7245 9.43399 -8.95024
384 1 7.86208 20.4417 1.57218 -8.94956
531 1 17.2974 17.2975 11.0068 -8.94914
386 1 11.007 20.4417 1.57217 -8.94959
687 2 9.5304 11.007 10.8573 0.356866
388 1 14.1519 20.4417 1.57223 -8.94954
501 1 9.42917 15.7217 9.43629 -9.00113
390 1 17.2968 20.4417 1.57222 -8.94956
500 1 6.27979 15.7348 9.43435 -8.9468
392 1 20.4415 20.4416 1.57236 -8.94958
393 1 1.57161 11.007 4.71635 -8.94948
394 1 4.71544 11.007 4.71481 -8.9468
395 1 7.86386 11.007 4.71923 -8.94406
396 1 11.0107 11.007 4.71878 -8.99483
397 1 14.1602 11.007 4.7088 -8.94334
398 1 17.2998 11.007 4.71562 -8.94926
399 1 20.4421 11.007 4.71679 -8.94982
400 1 -5.65027e-05 12.5794 3.14446 -8.94957
401 1 1.57169 14.1519 4.71658 -8.94966
402 1 3.14415 12.5794 3.14391 -8.94907
403 1 4.71537 14.1519 4.71512 -8.9522
404 1 6.28939 12.5786 3.14375 -8.94961
405 1 7.85715 14.157 4.70828 -8.95358
406 1 9.43471 12.5794 3.14321 -8.95106
407 1 11.0069 14.1553 4.71108 -8.94966
408 1 12.5815 12.5805 3.13774 -8.95818
409 1 14.1623 14.1619 4.70658 -8.93458
410 1 15.7268 12.5804 3.14221 -8.94787
411 1 17.2997 14.1533 4.7158 -8.9506
412 1 18.87 12.5796 3.14421 -8.94938
413 1 20.442 14.152 4.71689 -8.94997
414 1 22.0139 15.7243 3.14456 -8.94976
415 1 1.57118 17.2975 4.71637 -8.94916
416 1 3.1441 15.7245 3.14394 -8.95037
417 1 4.71412 17.2998 4.71394 -8.94504
418 1 6.28767 15.7262 3.14117 -8.94991
419 1 7.86163 17.2991 4.71544 -8.94941
420 1 9.43424 15.7259 3.14257 -8.94794
421 1 11.0074 17.2988 4.71567 -8.94811
422 1 12.5799 15.7259 3.14264 -8.94911
423 1 14.1535 17.2998 4.71559 -8.95054
424 1 15.7273 15.7273 3.14179 -8.94546
425 1 17.2974 17.2974 4.71693 -8.94977
426 1 18.87 15.7248 3.14427 -8.94967
427 1 20.4414 17.2969 4.71707 -8.94973
428 1 22.0136 18.8693 3.1446 -8.94946
429 1 1.57214 20.4417 4.71708 -8.94961
430 1 3.14403 18.8698 3.14398 -8.94845
431 1 4.71672 20.4422 4.71664 -8.94989
432 1 6.28944 18.8698 3.14412 -8.94974
433 1 7.86212 20.4421 4.71679 -8.94956
434 1 9.43455 18.8698 3.14417 -8.94944
435 1 11.0072 20.4421 4.71678 -8.94956
436 1 12.5796 18.8698 3.14427 -8.94921
437 1 14.1521 20.4421 4.71704 -8.95032
438 1 15.7248 18.8701 3.14423 -8.94963
439 1 17.2968 20.4417 4.71724 -8.94969
440 1 18.8692 18.8693 3.14471 -8.94968
441 1 20.4415 20.4416 4.71722 -8.9496
442 1 1.57019 11.007 7.86094 -8.94763
443 1 4.71414 11.007 7.85964 -8.93712
444 1 7.87758 11.007 7.87468 -8.98669
445 1 11.0754 11.007 7.66469 -8.2571
446 1 14.1608 11.007 7.8546 -8.96484
447 1 17.2995 11.007 7.8621 -8.95119
448 1 20.4416 11.007 7.86192 -8.9498
449 1 22.0134 12.5794 6.28914 -8.94971
450 1 1.56886 14.153 7.8609 -8.95132
451 1 3.14258 12.5791 6.28804 -8.94921
452 1 4.70385 14.1592 7.85552 -8.95094
453 1 6.28599 12.577 6.28718 -8.95608
454 1 7.82376 14.1848 7.83212 -8.86355
455 1 9.42126 12.5981 6.28394 -8.9106
456 1 11.0146 14.1535 7.84721 -8.91963
457 1 12.6129 12.6067 6.2573 -8.87726
458 1 14.1575 14.1558 7.86079 -8.94664
459 1 15.7328 12.5815 6.28663 -8.95593
460 1 17.2982 14.1523 7.86262 -8.95097
461 1 18.8709 12.5796 6.28932 -8.95118
462 1 20.4412 14.1522 7.86195 -8.9501
463 1 22.0129 15.7248 6.28916 -8.94999
464 1 1.57122 17.2976 7.86178 -8.94934
465 1 3.14045 15.727 6.28686 -8.94882
466 1 4.71428 17.3003 7.86072 -8.94869
467 1 6.27878 15.7352 6.27891 -8.93144
468 1 7.85994 17.3038 7.86085 -8.95818
469 1 9.43424 15.7307 6.28639 -8.95106
470 1 11.0062 17.2977 7.86225 -8.94988
471 1 12.583 15.7316 6.28566 -8.95506
472 1 14.1523 17.298 7.8624 -8.9499
473 1 15.7265 15.7262 6.28889 -8.94955
474 1 17.2973 17.2974 7.86198 -8.94889
475 1 18.8696 15.7247 6.28961 -8.94996
476 1 20.4414 17.297 7.86199 -8.94949
477 1 -0.000269302 18.8694 6.28956 -8.94953
478 1 1.57211 20.4417 7.86204 -8.94959
479 1 3.1439 18.8701 6.28912 -8.94946
480 1 4.71661 20.4424 7.86185 -8.94963
481 1 6.28853 18.872 6.28838 -8.95123
482 1 7.86209 20.4429 7.86196 -8.9512
483 1 9.4349 18.8711 6.28887 -8.95008
484 1 11.0071 20.442 7.8621 -8.94929
485 1 12.5796 18.8706 6.28953 -8.95169
486 1 14.152 20.4419 7.86214 -8.94964
487 1 15.7246 18.8697 6.28973 -8.94972
488 1 17.2969 20.4417 7.86205 -8.94954
489 1 18.8692 18.8693 6.28963 -8.94947
490 1 20.4415 20.4416 7.86208 -8.94962
491 1 22.0119 12.5797 9.43417 -8.95037
492 1 3.13597 12.581 9.43234 -8.9525
493 1 6.26038 12.5978 9.4231 -8.99876
494 1 9.34773 12.7943 9.44331 -8.21103
495 1 12.5747 12.5848 9.42057 -8.92529
496 1 15.7233 12.5782 9.43562 -8.94893
497 1 18.8694 12.5796 9.43457 -8.94861
498 1 22.0129 15.7249 9.43443 -8.94976
499 1 3.1406 15.7269 9.43422 -8.94882
526 1 1.57121 17.2976 11.0072 -8.94931
527 1 4.71415 17.3002 11.008 -8.94773
534 1 4.71658 20.4424 11.0072 -8.9495
389 1 15.7243 18.8693 -0.000155925 -8.9497
383 1 6.28962 18.8693 -0.000195362 -8.94954
377 1 18.8693 15.7244 -0.000148066 -8.94959
512 1 1.56684 11.007 11.0074 -8.95326
513 1 4.69442 11.007 11.007 -8.97066
514 1 7.75384 11.007 10.9978 -9.10148
515 1 11.2482 11.007 11.2298 -8.30051
516 1 14.1424 11.007 11.0174 -9.01124
517 1 17.2972 11.007 11.0064 -8.94423
518 1 20.4409 11.007 11.0068 -8.94968
519 1 1.56888 14.1528 11.0072 -8.95125
520 1 4.70382 14.1571 11.0096 -8.95496
521 1 7.81847 14.1837 11.0407 -8.91529
522 1 11.0252 14.155 11.0278 -8.97298
523 1 14.1588 14.1564 11.004 -8.94848
524 1 17.299 14.153 11.0062 -8.94996
525 1 20.4414 14.1523 11.0069 -8.9501
686 1 20.4415 20.4415 20.4415 -8.94942
391 1 18.8693 18.8693 22.0138 -8.94932
528 1 7.85973 17.3037 11.0085 -8.95781
529 1 11.0064 17.2981 11.0069 -8.94975
530 1 14.1527 17.2985 11.006 -8.94912
685 1 18.8693 18.8694 18.8693 -8.9491
684 1 17.2967 20.4416 20.4415 -8.94972
533 1 1.5721 20.4417 11.007 -8.94958
381 1 3.14465 18.8693 22.0137 -8.94953
535 1 7.86214 20.4429 11.0071 -8.95117
536 1 11.007 20.4421 11.0069 -8.94933
537 1 14.1521 20.442 11.0068 -8.94961
683 1 15.7243 18.8693 18.8693 -8.94982
539 1 20.4415 20.4416 11.007 -8.94962
540 1 1.57048 11.007 14.1531 -8.94916
541 1 4.71225 11.007 14.1553 -8.944
542 1 7.861 11.007 14.1453 -9.00043
543 1 11.0187 11.007 14.1463 -9.05906
544 1 14.1651 11.007 14.165 -8.93976
545 1 17.3013 11.007 14.1542 -8.9491
546 1 20.4421 11.007 14.1524 -8.95007
547 1 22.0125 12.5797 12.58 -8.9505
548 1 1.57059 14.1526 14.1531 -8.94939
549 1 3.13785 12.5809 12.5822 -8.94989
550 1 4.71217 14.1553 14.1568 -8.94465
551 1 6.2697 12.5877 12.591 -8.97476
552 1 7.85974 14.1536 14.158 -8.96051
553 1 9.42697 12.5798 12.5672 -9.0437
554 1 11.0034 14.1548 14.1581 -8.9494
555 1 12.6394 12.6387 12.6386 -8.8234
556 1 14.1703 14.1702 14.1703 -8.91252
557 1 15.7361 12.5815 12.5823 -8.96498
558 1 17.3012 14.1538 14.1537 -8.95254
559 1 18.8712 12.5795 12.5795 -8.95257
560 1 20.442 14.1522 14.1522 -8.95045
561 1 22.013 15.7248 12.5797 -8.95
562 1 1.57124 17.2975 14.1526 -8.94966
563 1 3.14068 15.7267 12.5814 -8.95052
564 1 4.71376 17.3007 14.1555 -8.9453
565 1 6.27738 15.7371 12.591 -8.93376
566 1 7.86201 17.2984 14.1534 -8.94901
567 1 9.43447 15.7277 12.5818 -8.94672
568 1 11.0066 17.2989 14.1535 -8.94758
569 1 12.5854 15.7381 12.5855 -8.96033
570 1 14.1545 17.3019 14.1544 -8.95106
571 1 15.7271 15.7266 12.5794 -8.94998
572 1 17.2976 17.2976 14.152 -8.95005
573 1 18.8699 15.7248 12.5793 -8.94956
574 1 20.4415 17.297 14.1519 -8.9497
575 1 22.0136 18.8694 12.5795 -8.94952
576 1 1.57214 20.4417 14.1519 -8.94961
577 1 3.1439 18.8701 12.5798 -8.94933
578 1 4.71669 20.4424 14.1525 -8.95013
579 1 6.28851 18.8723 12.5807 -8.95188
580 1 7.86217 20.442 14.1523 -8.94939
581 1 9.43486 18.8707 12.5801 -8.94923
582 1 11.007 20.4421 14.1523 -8.94948
583 1 12.5796 18.8716 12.5796 -8.95339
584 1 14.1521 20.4424 14.1521 -8.95077
585 1 15.7247 18.8699 12.5792 -8.94953
586 1 17.2968 20.4417 14.1518 -8.94966
587 1 18.8692 18.8694 12.5794 -8.94949
588 1 20.4415 20.4416 14.1518 -8.94959
589 1 1.57209 11.007 17.2972 -8.94962
590 1 4.71651 11.007 17.298 -8.9495
591 1 7.86213 11.007 17.2961 -8.94744
592 1 11.0065 11.007 17.2976 -8.9456
593 1 14.1541 11.007 17.3012 -8.94918
594 1 17.2979 11.007 17.2979 -8.94938
595 1 20.4418 11.007 17.297 -8.94953
596 1 22.0137 12.5795 15.7248 -8.94947
597 1 1.57214 14.1519 17.2971 -8.94951
598 1 3.14364 12.5797 15.7257 -8.94891
599 1 4.71686 14.1519 17.2979 -8.95035
600 1 6.28893 12.5788 15.7264 -8.95286
601 1 7.86228 14.1516 17.2978 -8.95194
602 1 9.43513 12.5773 15.7221 -8.94759
603 1 11.0059 14.1525 17.2987 -8.94994
604 1 12.5826 12.5817 15.7361 -8.96393
605 1 14.1536 14.1538 17.3012 -8.95242
606 1 15.7283 12.5808 15.7283 -8.94631
607 1 17.2978 14.1524 17.2978 -8.94911
608 1 18.8704 12.5797 15.7251 -8.94917
609 1 20.4417 14.1519 17.297 -8.94945
610 1 22.0137 15.7246 15.7247 -8.94966
611 1 1.57211 17.297 17.2971 -8.94939
612 1 3.14344 15.7253 15.7259 -8.94852
613 1 4.7168 17.2972 17.2976 -8.94996
614 1 6.28851 15.7255 15.7273 -8.95151
615 1 7.86194 17.2972 17.2974 -8.94897
616 1 9.43375 15.7258 15.7265 -8.94665
617 1 11.0068 17.2974 17.2975 -8.94933
618 1 12.579 15.7262 15.7268 -8.95039
619 1 14.1519 17.2974 17.2975 -8.95013
620 1 15.7293 15.7295 15.7293 -8.94091
621 1 17.2979 17.298 17.2979 -8.94748
622 1 18.8704 15.7251 15.725 -8.94994
623 1 20.4417 17.2969 17.2969 -8.94952
624 1 22.0136 18.8693 15.7244 -8.94958
625 1 1.57218 20.4417 17.2969 -8.9493
626 1 3.14391 18.8701 15.7252 -8.9484
627 1 4.71722 20.4416 17.2968 -8.9497
628 1 6.2896 18.8697 15.7249 -8.94966
629 1 7.86207 20.4417 17.2969 -8.94952
630 1 9.43444 18.8699 15.7249 -8.94934
631 1 11.0069 20.4417 17.2969 -8.94957
632 1 12.5793 18.8699 15.7248 -8.94915
633 1 14.1518 20.4417 17.2968 -8.94954
634 1 15.7251 18.8706 15.7251 -8.94962
635 1 17.2969 20.4418 17.2969 -8.94952
636 1 18.8693 18.8694 15.7243 -8.9498
637 1 20.4415 20.4416 17.2967 -8.94965
638 1 1.57231 11.007 20.4415 -8.94962
639 1 4.71703 11.007 20.4416 -8.94982
640 1 7.86194 11.007 20.4414 -8.94914
641 1 11.0065 11.007 20.4415 -8.94885
642 1 14.1523 11.007 20.4418 -8.95031
643 1 17.2971 11.007 20.4416 -8.94952
644 1 20.4416 11.007 20.4415 -8.94962
645 1 22.0139 12.5794 18.8692 -8.94961
646 1 1.57232 14.1518 20.4415 -8.94959
647 1 3.14456 12.5794 18.8695 -8.94956
648 1 4.71712 14.1518 20.4416 -8.94978
649 1 6.28957 12.5793 18.8695 -8.95004
650 1 7.86199 14.1519 20.4414 -8.95009
651 1 9.43427 12.5793 18.8691 -8.9485
652 1 11.0066 14.1521 20.4415 -8.94995
653 1 12.5793 12.5795 18.8712 -8.9525
654 1 14.1521 14.1522 20.4418 -8.95079
655 1 15.7251 12.5797 18.8703 -8.94923
656 1 17.297 14.152 20.4416 -8.94943
657 1 18.8694 12.5794 18.8694 -8.94955
658 1 20.4416 14.1518 20.4415 -8.94962
659 1 22.0139 15.7243 18.8692 -8.9496
660 1 1.57236 17.2967 20.4415 -8.94968
661 1 3.14465 15.7243 18.8694 -8.94978
662 1 4.7171 17.2968 20.4414 -8.94989
663 1 6.28956 15.7244 18.8696 -8.95038
664 1 7.86198 17.2969 20.4415 -8.9495
665 1 9.43423 15.7247 18.8697 -8.94951
666 1 11.0069 17.297 20.4415 -8.94956
667 1 12.5792 15.7247 18.8698 -8.94951
668 1 14.1518 17.2969 20.4415 -8.94959
669 1 15.725 15.7251 18.8703 -8.95004
670 1 17.297 17.297 20.4416 -8.94955
671 1 18.8694 15.7244 18.8693 -8.94959
672 1 20.4416 17.2967 20.4415 -8.94965
673 1 -8.02998e-06 18.8692 18.8692 -8.94953
674 1 1.57237 20.4416 20.4415 -8.94957
675 1 3.14469 18.8693 18.8693 -8.94966
676 1 4.71724 20.4415 20.4415 -8.94961
677 1 6.28963 18.8692 18.8692 -8.94949
678 1 7.86209 20.4416 20.4415 -8.94961
679 1 9.43448 18.8693 18.8693 -8.94958
680 1 11.007 20.4416 20.4415 -8.94962
681 1 12.5794 18.8693 18.8693 -8.94951
682 1 14.1518 20.4416 20.4415 -8.9496
355 1 6.28947 12.5793 22.0136 -8.94957
357 1 9.43433 12.5794 22.0133 -8.94933
359 1 12.5794 12.5795 22.0127 -8.9514
365 1 -1.99392e-06 15.7243 22.0138 -8.94959
367 1 3.1447 15.7242 22.0138 -8.94978
369 1 6.2894 15.7245 22.0132 -8.95035
375 1 15.7248 15.7248 22.0133 -8.95
379 1 22.0139 18.8691 22.0138 -8.94963
351 1 22.0139 12.5794 22.0138 -8.94962
363 1 18.8693 12.5794 22.0137 -8.94958
385 1 9.43451 18.8693 22.0137 -8.94958
387 1 12.5794 18.8693 22.0137 -8.94955
