ITEM: TIMESTEP
90
ITEM: NUMBER OF ATOMS
688
ITEM: BOX BOUNDS pp pp pp
0.0000000000000000e+00 2.2013900999999997e+01
0.0000000000000000e+00 2.2013900999999997e+01
0.0000000000000000e+00 2.2013900999999997e+01
ITEM: ATOMS id type x y z c_pot
189 1 20.4405 4.71576 11.0071 -8.94954
2 1 1.57174 1.57193 1.5717 -8.94916
175 1 18.8671 9.43435 9.4353 -8.94785
4 1 4.71668 1.57192 1.57167 -8.94959
174 1 15.7195 9.43613 9.43826 -8.94444
6 1 7.86175 1.57198 1.57201 -8.94944
7 1 9.43428 8.88694e-15 0.000110337 -8.94948
8 1 11.0067 1.57198 1.57227 -8.94949
173 1 12.5625 9.43944 9.43331 -8.94817
10 1 14.1518 1.57184 1.57238 -8.94952
172 1 9.35914 9.19732 9.43498 -8.35151
12 1 17.297 1.57164 1.57219 -8.94946
188 1 17.2976 4.71529 11.0072 -8.94892
14 1 20.4414 1.57192 1.5722 -8.94944
171 1 6.27196 9.42461 9.4338 -9.01881
16 1 1.5719 4.71656 1.57161 -8.94979
170 1 3.13616 9.43332 9.43394 -8.95063
18 1 4.71598 4.71606 1.57074 -8.94956
169 1 22.0099 9.43409 9.43431 -8.94966
20 1 7.86137 4.71625 1.57162 -8.94913
183 1 1.56888 4.71503 11.0076 -8.94926
22 1 11.0066 4.71612 1.57196 -8.94937
181 1 17.2968 1.57167 11.0068 -8.94949
24 1 14.1523 4.71564 1.57172 -8.94984
168 1 18.8688 6.28825 9.43449 -8.94953
26 1 17.2982 4.71522 1.57151 -8.94828
167 1 15.726 6.28713 9.4351 -8.94524
28 1 20.442 4.71628 1.57199 -8.9495
166 1 12.5778 6.29073 9.43673 -8.94653
30 1 1.57222 7.86178 1.57179 -8.94943
165 1 9.42898 6.29332 9.43795 -9.00605
32 1 4.71678 7.8622 1.57184 -8.94978
164 1 6.27636 6.27908 9.4361 -8.94365
34 1 7.86156 7.86194 1.57168 -8.95209
35 1 9.43394 6.28891 0.000128523 -8.94962
36 1 11.0063 7.86112 1.57143 -8.95045
37 1 12.5794 6.28857 0.000301477 -8.94979
38 1 14.1537 7.86017 1.56973 -8.95178
163 1 3.13746 6.28594 9.43474 -8.94918
40 1 17.2986 7.8608 1.5715 -8.94914
162 1 22.0108 6.2881 9.43431 -8.94998
42 1 20.4423 7.86146 1.57195 -8.94939
158 1 9.43327 3.14449 9.43525 -8.94675
44 1 3.14484 9.43448 -0.000138712 -8.94959
161 1 18.8687 3.14376 9.43421 -8.94948
160 1 15.7245 3.14349 9.43438 -8.94941
159 1 12.5788 3.14457 9.43505 -8.94856
48 1 15.7262 9.43378 0.000137391 -8.94941
157 1 6.28585 3.14076 9.43493 -8.94987
50 1 22.0132 6.57222e-15 3.14423 -8.94943
51 1 1.57105 1.57171 4.7162 -8.94943
52 1 3.14378 9.41981e-14 3.14371 -8.94952
53 1 4.71572 1.57113 4.71588 -8.95002
54 1 6.28914 3.00895e-14 3.14404 -8.94956
55 1 7.86146 1.5715 4.71656 -8.94966
56 1 9.43425 3.38887e-14 3.1444 -8.94954
57 1 11.0066 1.5717 4.71686 -8.9496
58 1 12.5792 5.44393e-14 3.14462 -8.94952
59 1 14.1517 1.57144 4.71702 -8.9507
60 1 15.7243 3.21072e-14 3.14458 -8.95007
61 1 17.2965 1.57188 4.71705 -8.94975
62 1 18.8689 4.1658e-16 3.14461 -8.94966
63 1 20.4408 1.57194 4.71671 -8.94944
64 1 22.013 3.14395 3.14397 -8.94947
65 1 1.56983 4.71556 4.71551 -8.94948
66 1 3.14301 3.14328 3.143 -8.94839
67 1 4.7123 4.71296 4.71311 -8.94521
68 1 6.28859 3.14344 3.14356 -8.94965
69 1 7.86001 4.71422 4.71556 -8.94922
70 1 9.43396 3.14369 3.14416 -8.94939
71 1 11.0064 4.71475 4.71593 -8.94803
72 1 12.5792 3.14358 3.14429 -8.94924
73 1 14.1541 4.7126 4.71476 -8.94995
74 1 15.7251 3.14281 3.14386 -8.9495
75 1 17.2975 4.71564 4.7166 -8.95021
76 1 18.8692 3.14381 3.14438 -8.94974
77 1 20.4407 4.71625 4.71653 -8.94987
78 1 22.0135 6.28892 3.14393 -8.9498
79 1 1.5704 7.86152 4.71601 -8.94983
80 1 3.14314 6.2888 3.14326 -8.95027
81 1 4.71342 7.86124 4.71545 -8.95124
82 1 6.28654 6.28715 3.14115 -8.95008
83 1 7.85533 7.85658 4.71029 -8.95365
84 1 9.43323 6.28758 3.14321 -8.94772
85 1 11.0062 7.85806 4.71148 -8.95216
86 1 12.5799 6.28726 3.14237 -8.94962
87 1 14.1644 7.84999 4.70513 -8.92978
88 1 15.7284 6.28513 3.14098 -8.94466
89 1 17.3005 7.85985 4.71524 -8.95073
90 1 18.8705 6.28819 3.14379 -8.94965
91 1 20.4416 7.86137 4.71637 -8.95018
92 1 -0.000199245 9.43422 3.14389 -8.94952
93 1 3.14356 9.43433 3.14374 -8.94899
94 1 6.28877 9.43517 3.14507 -8.94952
95 1 9.43444 9.43455 3.1465 -8.9501
96 1 12.582 9.4332 3.13816 -8.9598
97 1 15.7282 9.43294 3.14151 -8.9475
98 1 18.8708 9.43393 3.14367 -8.94926
99 1 22.0128 7.20187e-15 6.28898 -8.94946
100 1 1.57061 1.57157 7.86149 -8.94947
101 1 3.14318 5.71115e-14 6.28871 -8.94945
102 1 4.71501 1.57089 7.86147 -8.94955
103 1 6.28858 1.10562e-12 6.28902 -8.95056
104 1 7.861 1.57109 7.86216 -8.95107
105 1 9.4341 6.6798e-13 6.28946 -8.95011
106 1 11.0062 1.57219 7.86247 -8.94939
107 1 12.5788 3.69069e-13 6.28981 -8.95042
108 1 14.1514 1.57202 7.86222 -8.94949
109 1 15.7239 -5.25236e-14 6.28962 -8.94962
110 1 17.2964 1.57189 7.86174 -8.94942
111 1 18.8686 1.06003e-14 6.28925 -8.94943
112 1 20.4406 1.57187 7.8616 -8.94947
113 1 -0.00155509 3.14372 6.28881 -8.9494
114 1 1.56895 4.71514 7.86121 -8.94935
115 1 3.14212 3.14275 6.28826 -8.94926
116 1 4.7114 4.71263 7.86073 -8.94802
117 1 6.28697 3.14128 6.28822 -8.95152
118 1 7.85753 4.71061 7.86212 -8.95799
119 1 9.43367 3.14284 6.28929 -8.95039
120 1 11.0054 4.71644 7.86316 -8.95137
121 1 12.579 3.14291 6.28971 -8.95247
122 1 14.1518 4.71609 7.86308 -8.94922
123 1 15.7241 3.14383 6.2897 -8.94972
124 1 17.2968 4.71597 7.86188 -8.94868
125 1 18.8686 3.14399 6.28922 -8.94932
126 1 20.4402 4.71601 7.86154 -8.94949
127 1 22.0113 6.28843 6.28863 -8.95009
128 1 1.56677 7.86052 7.86104 -8.9514
129 1 3.13847 6.28642 6.2869 -8.95007
130 1 4.70281 7.85651 7.85927 -8.95625
131 1 6.27588 6.278 6.27966 -8.93238
132 1 7.81958 7.83094 7.8353 -8.88772
133 1 9.4319 6.28292 6.28772 -8.95186
134 1 11.0225 7.85592 7.8418 -8.94636
135 1 12.5848 6.27956 6.28413 -8.95316
136 1 14.1562 7.85994 7.86469 -8.9517
137 1 15.7264 6.28745 6.28928 -8.95114
138 1 17.2968 7.86178 7.86359 -8.95103
139 1 18.8688 6.28883 6.28949 -8.9502
140 1 20.4395 7.86144 7.86191 -8.95007
141 1 22.0119 9.43424 6.28878 -8.94992
142 1 3.14048 9.43458 6.28852 -8.95002
143 1 6.28231 9.43624 6.28926 -8.95222
144 1 9.41814 9.41422 6.29046 -8.94929
145 1 12.6203 9.40094 6.25354 -8.85244
146 1 15.7338 9.43206 6.28659 -8.95754
147 1 18.8703 9.43416 6.28924 -8.95179
148 1 -0.00124997 4.07184e-15 9.43426 -8.94948
149 1 3.14287 9.26653e-14 9.43441 -8.9495
150 1 6.28799 1.09712e-12 9.4346 -8.9504
151 1 9.43387 2.61335e-12 9.43464 -8.94843
152 1 12.5789 -9.88575e-14 9.43455 -8.94925
153 1 15.7242 1.45528e-15 9.43424 -8.94966
154 1 18.8687 7.19803e-15 9.43418 -8.94949
155 1 22.0122 3.14356 9.43426 -8.94945
156 1 3.14162 3.14255 9.43449 -8.94945
177 1 4.71486 1.57079 11.0077 -8.94948
184 1 4.71107 4.71241 11.0091 -8.94744
3 1 3.14452 6.91925e-15 -0.000214017 -8.94953
11 1 15.7243 4.85587e-15 0.000351435 -8.94955
41 1 18.8703 6.28856 0.000254932 -8.94938
19 1 6.28926 3.14428 -0.00020928 -8.94945
25 1 15.7247 3.14367 0.000330585 -8.94966
176 1 1.57058 1.57152 11.0072 -8.94945
47 1 12.5797 9.43429 22.0141 -8.9518
178 1 7.86094 1.57079 11.0075 -8.95139
179 1 11.0063 1.57183 11.0071 -8.94936
180 1 14.1519 1.57157 11.0068 -8.9496
343 1 18.8713 9.43388 18.8713 -8.94932
182 1 20.4408 1.57177 11.0069 -8.94948
342 1 15.7275 9.43337 18.8733 -8.94917
46 1 9.43433 9.43467 22.015 -8.94905
185 1 7.85746 4.70922 11.0098 -8.95904
186 1 11.0062 4.7154 11.0089 -8.95061
187 1 14.1531 4.71463 11.0073 -8.94873
341 1 12.5809 9.43387 18.874 -8.95232
340 1 9.43488 9.43462 18.8708 -8.94939
190 1 1.56688 7.86067 11.0077 -8.95143
191 1 4.70314 7.85732 11.0108 -8.95791
192 1 7.81952 7.82591 11.0441 -8.90979
193 1 11.0262 7.85505 11.0369 -8.96217
194 1 14.158 7.85803 11.0078 -8.95062
195 1 17.2983 7.86055 11.0075 -8.95035
196 1 20.44 7.86114 11.0072 -8.95012
197 1 22.0129 6.56816e-15 12.5798 -8.94947
198 1 1.57099 1.57156 14.1529 -8.94945
199 1 3.14303 6.60008e-14 12.5803 -8.94943
200 1 4.71536 1.57085 14.1536 -8.95005
201 1 6.28834 1.05025e-12 12.5803 -8.95074
202 1 7.86129 1.57117 14.1532 -8.94964
203 1 9.43408 6.93305e-13 12.5801 -8.9501
204 1 11.0068 1.57092 14.1532 -8.94986
205 1 12.5792 3.85759e-13 12.5796 -8.95091
206 1 14.1526 1.57045 14.1529 -8.95114
207 1 15.7246 -2.99004e-14 12.5794 -8.94965
208 1 17.2973 1.57137 14.1524 -8.94968
209 1 18.869 8.67968e-15 12.5795 -8.94947
210 1 20.4412 1.57171 14.1524 -8.94945
211 1 22.0125 3.14349 12.58 -8.9494
212 1 1.56974 4.71521 14.1538 -8.94973
213 1 3.14186 3.14252 12.5809 -8.94922
214 1 4.71145 4.71213 14.1571 -8.94449
215 1 6.28652 3.14051 12.5818 -8.9517
216 1 7.86 4.71322 14.1556 -8.94932
217 1 9.43399 3.14192 12.5813 -8.95033
218 1 11.0075 4.71201 14.1566 -8.94798
219 1 12.5799 3.14098 12.5807 -8.95354
220 1 14.1568 4.70912 14.1574 -8.95028
221 1 15.7253 3.14266 12.5798 -8.9495
222 1 17.2992 4.71426 14.1536 -8.95016
223 1 18.8693 3.14346 12.5797 -8.94934
224 1 20.4415 4.71565 14.1529 -8.94983
225 1 22.0117 6.28815 12.5803 -8.95025
226 1 1.57004 7.86108 14.1536 -8.94949
227 1 3.13817 6.28624 12.5825 -8.95104
228 1 4.7129 7.86086 14.155 -8.95069
229 1 6.27457 6.2759 12.5929 -8.93053
230 1 7.85594 7.85494 14.164 -8.95324
231 1 9.43404 6.28085 12.5869 -8.95124
232 1 11.0097 7.85264 14.1676 -8.94665
233 1 12.5882 6.27377 12.5904 -8.9567
234 1 14.1726 7.8429 14.1736 -8.92105
235 1 15.7289 6.28547 12.5818 -8.95063
236 1 17.3037 7.8584 14.1564 -8.95229
237 1 18.8702 6.28793 12.5802 -8.94985
238 1 20.4425 7.86089 14.1534 -8.95058
239 1 22.0118 9.43402 12.5805 -8.95
240 1 3.13911 9.4337 12.5817 -8.94761
241 1 6.28374 9.43373 12.5828 -8.97876
242 1 9.42519 9.41077 12.5956 -8.9531
243 1 12.6327 9.38377 12.635 -8.85697
244 1 15.7367 9.43147 12.5868 -8.96258
245 1 18.8713 9.43399 12.5809 -8.95247
246 1 -0.000551824 6.38764e-15 15.7252 -8.94947
247 1 1.5717 1.57178 17.298 -8.94909
248 1 3.14357 8.79034e-14 15.7257 -8.94952
249 1 4.71651 1.5718 17.2979 -8.9496
250 1 6.28891 4.14225e-14 15.7255 -8.94954
251 1 7.86152 1.57177 17.2979 -8.94935
252 1 9.43409 4.71824e-14 15.7255 -8.94956
253 1 11.0068 1.57157 17.2981 -8.94946
254 1 12.5795 5.30805e-14 15.7255 -8.94966
255 1 14.1523 1.57124 17.2983 -8.94953
256 1 15.7251 3.85377e-14 15.7255 -8.95029
257 1 17.2979 1.57111 17.2983 -8.94942
258 1 18.8695 1.43806e-15 15.725 -8.94964
259 1 20.4418 1.5717 17.2977 -8.94948
260 1 22.0133 3.1436 15.7256 -8.94951
261 1 1.57191 4.7163 17.2982 -8.94982
262 1 3.14267 3.1429 15.7266 -8.94818
263 1 4.71564 4.7158 17.2992 -8.94957
264 1 6.28828 3.14306 15.7263 -8.94965
265 1 7.8611 4.71573 17.299 -8.94881
266 1 9.43388 3.14276 15.7265 -8.94925
267 1 11.007 4.71495 17.2997 -8.94923
268 1 12.5801 3.14195 15.7268 -8.9492
269 1 14.1537 4.71385 17.3006 -8.94947
270 1 15.7267 3.14109 15.7271 -8.9495
271 1 17.3 4.71368 17.3002 -8.94733
272 1 18.8702 3.1431 15.7256 -8.94977
273 1 20.4427 4.7157 17.2984 -8.9495
274 1 22.0138 6.28844 15.7259 -8.94986
275 1 1.57231 7.86166 17.2981 -8.94955
276 1 3.14276 6.28852 15.7265 -8.95016
277 1 4.71671 7.86226 17.2979 -8.95003
278 1 6.28601 6.28658 15.7297 -8.94996
279 1 7.86193 7.8618 17.2995 -8.95273
280 1 9.43358 6.28585 15.7298 -8.94645
281 1 11.0077 7.85977 17.3026 -8.95092
282 1 12.5826 6.28386 15.732 -8.94846
283 1 14.1566 7.85808 17.3052 -8.95192
284 1 15.7325 6.2816 15.7329 -8.94195
285 1 17.3007 7.85976 17.3008 -8.94882
286 1 18.8723 6.28707 15.727 -8.94996
287 1 20.4431 7.86106 17.2986 -8.94936
288 1 22.0142 9.43406 15.726 -8.94954
289 1 3.14356 9.43443 15.7258 -8.94931
290 1 6.28955 9.43555 15.7251 -8.95003
291 1 9.43737 9.43448 15.7279 -8.95333
292 1 12.587 9.43077 15.7402 -8.96115
293 1 15.7323 9.4317 15.7328 -8.94659
294 1 18.8727 9.43345 15.7275 -8.94918
295 1 22.0139 6.91106e-15 18.8699 -8.94916
296 1 1.57227 1.57201 20.4419 -8.94935
297 1 3.14447 7.91988e-15 18.8699 -8.94957
298 1 4.71697 1.57211 20.4418 -8.94949
299 1 6.28928 6.28021e-15 18.8698 -8.94941
300 1 7.86177 1.57207 20.4419 -8.94946
301 1 9.43419 7.48572e-15 18.87 -8.94946
302 1 11.0067 1.57197 20.4421 -8.94947
303 1 12.5793 6.49759e-15 18.8701 -8.94947
304 1 14.1519 1.57181 20.4423 -8.94946
305 1 15.7247 5.56698e-15 18.8703 -8.94953
306 1 17.2972 1.57169 20.4424 -8.94952
307 1 18.8698 5.5423e-15 18.8702 -8.94921
308 1 20.442 1.57189 20.4421 -8.94904
309 1 0.000283059 3.14404 18.8701 -8.94948
310 1 1.57254 4.71679 20.4419 -8.94972
311 1 3.14427 3.14407 18.8702 -8.94953
312 1 4.71686 4.71679 20.4418 -8.95011
313 1 6.28912 3.14416 18.8701 -8.94937
314 1 7.86158 4.71658 20.4421 -8.94948
315 1 9.43408 3.1439 18.8703 -8.94944
316 1 11.0067 4.7162 20.4426 -8.94953
317 1 12.5795 3.1435 18.8707 -8.94939
318 1 14.1523 4.71575 20.4429 -8.94962
319 1 15.7253 3.14307 18.871 -8.94956
320 1 17.2982 4.71545 20.4428 -8.94942
321 1 18.8704 3.1433 18.8706 -8.94878
322 1 20.4424 4.71632 20.4423 -8.94943
323 1 22.0146 6.28895 18.8702 -8.9495
324 1 1.57275 7.86184 20.4419 -8.94955
325 1 3.14468 6.28943 18.87 -8.94987
326 1 4.71727 7.86223 20.4418 -8.94969
327 1 6.28915 6.28933 18.8705 -8.95075
328 1 7.86198 7.86217 20.4422 -8.95027
329 1 9.43401 6.28851 18.8713 -8.94961
330 1 11.0067 7.86143 20.4432 -8.9504
331 1 12.5801 6.28775 18.8725 -8.94972
332 1 14.1531 7.86085 20.4438 -8.95103
333 1 15.7269 6.28692 18.8729 -8.94998
334 1 17.2987 7.86087 20.4431 -8.94924
335 1 18.871 6.28813 18.871 -8.94931
336 1 20.4427 7.86144 20.4424 -8.94942
337 1 22.0147 9.43423 18.8703 -8.94949
338 1 3.14481 9.43449 18.8699 -8.94959
339 1 6.28969 9.43482 18.8696 -8.94943
45 1 6.28964 9.43475 22.0142 -8.94945
5 1 6.2894 7.46775e-15 22.0138 -8.94946
9 1 12.5792 6.32328e-15 22.0142 -8.94949
39 1 15.7257 6.28791 22.0139 -8.95012
15 1 22.014 3.14423 22.0139 -8.94949
17 1 3.14435 3.14419 22.0135 -8.94953
33 1 6.28923 6.28938 22.0134 -8.95061
31 1 3.14473 6.28948 22.0137 -8.94982
27 1 18.8699 3.14372 22.0141 -8.94907
29 1 0.000447349 6.28913 22.0139 -8.94948
1 1 -8.59463e-05 6.28931e-15 22.0139 -8.94913
13 1 18.8694 3.65699e-15 22.0141 -8.94929
21 1 9.43416 3.14417 22.014 -8.94947
23 1 12.5793 3.14398 22.0142 -8.94944
43 1 22.0145 9.43431 22.0139 -8.94951
49 1 18.8706 9.43407 22.0142 -8.94941
344 1 1.5723 11.007 1.57183 -8.94956
345 1 4.71678 11.007 1.57198 -8.94972
346 1 7.862 11.007 1.57396 -8.94837
347 1 11.0066 11.007 1.57374 -8.94655
348 1 14.1544 11.007 1.56974 -8.94973
349 1 17.2988 11.007 1.5715 -8.94941
350 1 20.4424 11.007 1.57194 -8.94945
538 1 17.2968 20.4422 11.0068 -8.94949
352 1 1.57222 14.1521 1.57179 -8.94943
353 1 3.14484 12.5794 -0.000138712 -8.94959
354 1 4.71678 14.1517 1.57184 -8.94978
688 3 10.2569 11.007 9.45938 2.20112
356 1 7.86156 14.152 1.57168 -8.95209
511 1 18.8687 18.8701 9.43421 -8.94948
358 1 11.0063 14.1528 1.57143 -8.95045
510 1 15.7245 18.8704 9.43438 -8.94941
360 1 14.1537 14.1537 1.56973 -8.95178
361 1 15.7262 12.5801 0.000137391 -8.94941
362 1 17.2986 14.1531 1.5715 -8.94914
532 1 20.4405 17.2981 11.0071 -8.94954
364 1 20.4423 14.1524 1.57195 -8.94939
509 1 12.5788 18.8693 9.43505 -8.94856
366 1 1.5719 17.2973 1.57161 -8.94979
508 1 9.43327 18.8694 9.43525 -8.94675
368 1 4.71598 17.2978 1.57074 -8.94956
507 1 6.28585 18.8731 9.43493 -8.94987
370 1 7.86137 17.2977 1.57162 -8.94913
371 1 9.43394 15.725 0.000128523 -8.94962
372 1 11.0066 17.2978 1.57196 -8.94937
373 1 12.5794 15.7253 0.000301477 -8.94979
374 1 14.1523 17.2983 1.57172 -8.94984
506 1 3.14162 18.8713 9.43449 -8.94945
376 1 17.2982 17.2987 1.57151 -8.94828
505 1 22.0122 18.8703 9.43426 -8.94945
378 1 20.442 17.2976 1.57199 -8.9495
504 1 18.8688 15.7257 9.43449 -8.94953
380 1 1.57174 20.442 1.5717 -8.94916
503 1 15.726 15.7268 9.4351 -8.94524
382 1 4.71668 20.442 1.57167 -8.94959
502 1 12.5778 15.7232 9.43673 -8.94653
384 1 7.86175 20.4419 1.57201 -8.94944
531 1 17.2976 17.2986 11.0072 -8.94892
386 1 11.0067 20.4419 1.57227 -8.94949
687 2 9.55957 11.007 10.2379 -0.0237634
388 1 14.1518 20.4421 1.57238 -8.94952
501 1 9.42898 15.7206 9.43795 -9.00605
390 1 17.297 20.4423 1.57219 -8.94946
500 1 6.27636 15.7348 9.4361 -8.94365
392 1 20.4414 20.442 1.5722 -8.94944
393 1 1.57049 11.007 4.7159 -8.94949
394 1 4.714 11.007 4.71568 -8.94594
395 1 7.86298 11.007 4.72211 -8.94783
396 1 11.0109 11.007 4.72374 -9.00507
397 1 14.1622 11.007 4.70784 -8.94174
398 1 17.3007 11.007 4.71494 -8.94906
399 1 20.4418 11.007 4.71621 -8.94996
400 1 -0.000199245 12.5797 3.14389 -8.94952
401 1 1.5704 14.1524 4.71601 -8.94983
402 1 3.14356 12.5796 3.14374 -8.94899
403 1 4.71342 14.1527 4.71545 -8.95124
404 1 6.28877 12.5787 3.14507 -8.94952
405 1 7.85533 14.1573 4.71029 -8.95365
406 1 9.43444 12.5793 3.1465 -8.9501
407 1 11.0062 14.1558 4.71148 -8.95216
408 1 12.582 12.5807 3.13816 -8.9598
409 1 14.1644 14.1639 4.70513 -8.92978
410 1 15.7282 12.581 3.14151 -8.9475
411 1 17.3005 14.1541 4.71524 -8.95073
412 1 18.8708 12.58 3.14367 -8.94926
413 1 20.4416 14.1525 4.71637 -8.95018
414 1 22.0135 15.725 3.14393 -8.9498
415 1 1.56983 17.2983 4.71551 -8.94948
416 1 3.14314 15.7251 3.14326 -8.95027
417 1 4.7123 17.3009 4.71311 -8.94521
418 1 6.28654 15.7267 3.14115 -8.95008
419 1 7.86001 17.2997 4.71556 -8.94922
420 1 9.43323 15.7263 3.14321 -8.94772
421 1 11.0064 17.2991 4.71593 -8.94803
422 1 12.5799 15.7266 3.14237 -8.94962
423 1 14.1541 17.3013 4.71476 -8.94995
424 1 15.7284 15.7288 3.14098 -8.94466
425 1 17.2975 17.2983 4.7166 -8.95021
426 1 18.8705 15.7257 3.14379 -8.94965
427 1 20.4407 17.2977 4.71653 -8.94987
428 1 22.013 18.8699 3.14397 -8.94947
429 1 1.57105 20.4422 4.7162 -8.94943
430 1 3.14301 18.8706 3.143 -8.94839
431 1 4.71572 20.4428 4.71588 -8.95002
432 1 6.28859 18.8705 3.14356 -8.94965
433 1 7.86146 20.4424 4.71656 -8.94966
434 1 9.43396 18.8702 3.14416 -8.94939
435 1 11.0066 20.4422 4.71686 -8.9496
436 1 12.5792 18.8703 3.14429 -8.94924
437 1 14.1517 20.4425 4.71702 -8.9507
438 1 15.7251 18.8711 3.14386 -8.9495
439 1 17.2965 20.442 4.71705 -8.94975
440 1 18.8692 18.8701 3.14438 -8.94974
441 1 20.4408 20.442 4.71671 -8.94944
442 1 1.56832 11.007 7.86127 -8.94773
443 1 4.71345 11.007 7.86277 -8.94095
444 1 7.87343 11.007 7.8702 -8.95253
445 1 11.0873 11.007 7.62851 -8.16977
446 1 14.1593 11.007 7.85602 -8.96971
447 1 17.2973 11.007 7.86331 -8.95159
448 1 20.4397 11.007 7.86199 -8.94961
449 1 22.0119 12.5797 6.28878 -8.94992
450 1 1.56677 14.1534 7.86104 -8.9514
451 1 3.14048 12.5793 6.28852 -8.95002
452 1 4.70281 14.1574 7.85927 -8.95625
453 1 6.28231 12.5777 6.28926 -8.95222
454 1 7.81958 14.183 7.8353 -8.88772
455 1 9.41814 12.5997 6.29046 -8.94929
456 1 11.0225 14.158 7.8418 -8.94636
457 1 12.6203 12.613 6.25354 -8.85244
458 1 14.1562 14.154 7.86469 -8.9517
459 1 15.7338 12.5818 6.28659 -8.95754
460 1 17.2968 14.1521 7.86359 -8.95103
461 1 18.8703 12.5797 6.28924 -8.95179
462 1 20.4395 14.1525 7.86191 -8.95007
463 1 22.0113 15.7255 6.28863 -8.95009
464 1 1.56895 17.2988 7.86121 -8.94935
465 1 3.13847 15.7275 6.2869 -8.95007
466 1 4.7114 17.3013 7.86073 -8.94802
467 1 6.27588 15.7359 6.27966 -8.93238
468 1 7.85753 17.3033 7.86212 -8.95799
469 1 9.4319 15.731 6.28772 -8.95186
470 1 11.0054 17.2975 7.86316 -8.95137
471 1 12.5848 15.7343 6.28413 -8.95316
472 1 14.1518 17.2978 7.86308 -8.94922
473 1 15.7264 15.7265 6.28928 -8.95114
474 1 17.2968 17.2979 7.86188 -8.94868
475 1 18.8688 15.7251 6.28949 -8.9502
476 1 20.4402 17.2979 7.86154 -8.94949
477 1 -0.00155509 18.8702 6.28881 -8.9494
478 1 1.57061 20.4423 7.86149 -8.94947
479 1 3.14212 18.8711 6.28826 -8.94926
480 1 4.71501 20.443 7.86147 -8.94955
481 1 6.28697 18.8726 6.28822 -8.95152
482 1 7.861 20.4428 7.86216 -8.95107
483 1 9.43367 18.8711 6.28929 -8.95039
484 1 11.0062 20.4417 7.86247 -8.94939
485 1 12.579 18.871 6.28971 -8.95247
486 1 14.1514 20.4419 7.86222 -8.94949
487 1 15.7241 18.8701 6.2897 -8.94972
488 1 17.2964 20.442 7.86174 -8.94942
489 1 18.8686 18.8699 6.28922 -8.94932
490 1 20.4406 20.442 7.8616 -8.94947
491 1 22.0099 12.5798 9.43431 -8.94966
492 1 3.13616 12.5806 9.43394 -8.95063
493 1 6.27196 12.5893 9.4338 -9.01881
494 1 9.35914 12.8166 9.43498 -8.35151
495 1 12.5625 12.5745 9.43331 -8.94817
496 1 15.7195 12.5778 9.43826 -8.94444
497 1 18.8671 12.5796 9.4353 -8.94785
498 1 22.0108 15.7258 9.43431 -8.94998
499 1 3.13746 15.728 9.43474 -8.94918
526 1 1.56888 17.2989 11.0076 -8.94926
527 1 4.71107 17.3015 11.0091 -8.94744
534 1 4.71486 20.4431 11.0077 -8.94948
389 1 15.7247 18.8702 0.000330585 -8.94966
383 1 6.28926 18.8696 -0.00020928 -8.94945
377 1 18.8703 15.7253 0.000254932 -8.94938
512 1 1.56663 11.007 11.0077 -8.95077
513 1 4.70411 11.007 11.0081 -8.95618
514 1 7.82918 11.007 11.0157 -9.12451
515 1 11.1511 11.007 11.271 -8.32899
516 1 14.1456 11.007 11.0222 -8.98764
517 1 17.2957 11.007 11.0087 -8.94603
518 1 20.4394 11.007 11.0073 -8.94909
519 1 1.56688 14.1532 11.0077 -8.95143
520 1 4.70314 14.1566 11.0108 -8.95791
521 1 7.81952 14.188 11.0441 -8.90979
522 1 11.0262 14.1589 11.0369 -8.96217
523 1 14.158 14.1559 11.0078 -8.95062
524 1 17.2983 14.1534 11.0075 -8.95035
525 1 20.44 14.1528 11.0072 -8.95012
686 1 20.442 20.442 20.4421 -8.94904
391 1 18.8699 18.8702 22.0141 -8.94907
528 1 7.85746 17.3047 11.0098 -8.95904
529 1 11.0062 17.2985 11.0089 -8.95061
530 1 14.1531 17.2993 11.0073 -8.94873
685 1 18.8704 18.8706 18.8706 -8.94878
684 1 17.2972 20.4422 20.4424 -8.94952
533 1 1.57058 20.4424 11.0072 -8.94945
381 1 3.14435 18.8697 22.0135 -8.94953
535 1 7.86094 20.4431 11.0075 -8.95139
536 1 11.0063 20.4421 11.0071 -8.94936
537 1 14.1519 20.4423 11.0068 -8.9496
683 1 15.7253 18.8708 18.871 -8.94956
539 1 20.4408 20.4421 11.0069 -8.94948
540 1 1.5704 11.007 14.1535 -8.94897
541 1 4.71493 11.007 14.1532 -8.9469
542 1 7.86735 11.007 14.1483 -8.99106
543 1 11.0209 11.007 14.1546 -9.05604
544 1 14.1682 11.007 14.1699 -8.94187
545 1 17.3037 11.007 14.1576 -8.94925
546 1 20.4427 11.007 14.1538 -8.95013
547 1 22.0118 12.5799 12.5805 -8.95
548 1 1.57004 14.1528 14.1536 -8.94949
549 1 3.13911 12.5802 12.5817 -8.94761
550 1 4.7129 14.153 14.155 -8.95069
551 1 6.28374 12.5802 12.5828 -8.97876
552 1 7.85594 14.159 14.164 -8.95324
553 1 9.42519 12.6031 12.5956 -8.9531
554 1 11.0097 14.1613 14.1676 -8.94665
555 1 12.6327 12.6301 12.635 -8.85697
556 1 14.1726 14.171 14.1736 -8.92105
557 1 15.7367 12.5824 12.5868 -8.96258
558 1 17.3037 14.1555 14.1564 -8.95229
559 1 18.8713 12.5799 12.5809 -8.95247
560 1 20.4425 14.153 14.1534 -8.95058
561 1 22.0117 15.7257 12.5803 -8.95025
562 1 1.56974 17.2987 14.1538 -8.94973
563 1 3.13817 15.7277 12.5825 -8.95104
564 1 4.71145 17.3018 14.1571 -8.94449
565 1 6.27457 15.738 12.5929 -8.93053
566 1 7.86 17.3007 14.1556 -8.94932
567 1 9.43404 15.7331 12.5869 -8.95124
568 1 11.0075 17.3019 14.1566 -8.94798
569 1 12.5882 15.7401 12.5904 -8.9567
570 1 14.1568 17.3048 14.1574 -8.95028
571 1 15.7289 15.7284 12.5818 -8.95063
572 1 17.2992 17.2996 14.1536 -8.95016
573 1 18.8702 15.726 12.5802 -8.94985
574 1 20.4415 17.2982 14.1529 -8.94983
575 1 22.0125 18.8704 12.58 -8.9494
576 1 1.57099 20.4423 14.1529 -8.94945
577 1 3.14186 18.8714 12.5809 -8.94922
578 1 4.71536 20.443 14.1536 -8.95005
579 1 6.28652 18.8734 12.5818 -8.9517
580 1 7.86129 20.4427 14.1532 -8.94964
581 1 9.43399 18.872 12.5813 -8.95033
582 1 11.0068 20.443 14.1532 -8.94986
583 1 12.5799 18.8729 12.5807 -8.95354
584 1 14.1526 20.4434 14.1529 -8.95114
585 1 15.7253 18.8712 12.5798 -8.9495
586 1 17.2973 20.4425 14.1524 -8.94968
587 1 18.8693 18.8704 12.5797 -8.94934
588 1 20.4412 20.4422 14.1524 -8.94945
589 1 1.57235 11.007 17.298 -8.94954
590 1 4.71676 11.007 17.2976 -8.94935
591 1 7.86273 11.007 17.2968 -8.94734
592 1 11.0092 11.007 17.3006 -8.94623
593 1 14.1576 11.007 17.3054 -8.94921
594 1 17.3009 11.007 17.3011 -8.94924
595 1 20.4432 11.007 17.2987 -8.94947
596 1 22.0142 12.5798 15.726 -8.94954
597 1 1.57231 14.1522 17.2981 -8.94955
598 1 3.14356 12.5795 15.7258 -8.94931
599 1 4.71671 14.1516 17.2979 -8.95003
600 1 6.28955 12.5783 15.7251 -8.95003
601 1 7.86193 14.1521 17.2995 -8.95273
602 1 9.43737 12.5794 15.7279 -8.95333
603 1 11.0077 14.1541 17.3026 -8.95092
604 1 12.587 12.5831 15.7402 -8.96115
605 1 14.1566 14.1558 17.3052 -8.95192
606 1 15.7323 12.5822 15.7328 -8.94659
607 1 17.3007 14.1541 17.3008 -8.94882
608 1 18.8727 12.5804 15.7275 -8.94918
609 1 20.4431 14.1528 17.2986 -8.94936
610 1 22.0138 15.7255 15.7259 -8.94986
611 1 1.57191 17.2976 17.2982 -8.94982
612 1 3.14276 15.7254 15.7265 -8.95016
613 1 4.71564 17.2981 17.2992 -8.94957
614 1 6.28601 15.7273 15.7297 -8.94996
615 1 7.8611 17.2982 17.299 -8.94881
616 1 9.43358 15.728 15.7298 -8.94645
617 1 11.007 17.299 17.2997 -8.94923
618 1 12.5826 15.73 15.732 -8.94846
619 1 14.1537 17.3 17.3006 -8.94947
620 1 15.7325 15.7323 15.7329 -8.94195
621 1 17.3 17.3002 17.3002 -8.94733
622 1 18.8723 15.7268 15.727 -8.94996
623 1 20.4427 17.2982 17.2984 -8.9495
624 1 22.0133 18.8703 15.7256 -8.94951
625 1 1.5717 20.4421 17.298 -8.94909
626 1 3.14267 18.871 15.7266 -8.94818
627 1 4.71651 20.4421 17.2979 -8.9496
628 1 6.28828 18.8708 15.7263 -8.94965
629 1 7.86152 20.4421 17.2979 -8.94935
630 1 9.43388 18.8711 15.7265 -8.94925
631 1 11.0068 20.4423 17.2981 -8.94946
632 1 12.5801 18.8719 15.7268 -8.9492
633 1 14.1523 20.4427 17.2983 -8.94953
634 1 15.7267 18.8728 15.7271 -8.9495
635 1 17.2979 20.4428 17.2983 -8.94942
636 1 18.8702 18.8708 15.7256 -8.94977
637 1 20.4418 20.4422 17.2977 -8.94948
638 1 1.57279 11.007 20.442 -8.94957
639 1 4.71729 11.007 20.4418 -8.9497
640 1 7.86211 11.007 20.4422 -8.94894
641 1 11.007 11.007 20.4434 -8.94857
642 1 14.1537 11.007 20.4439 -8.95059
643 1 17.2988 11.007 20.4432 -8.9494
644 1 20.4428 11.007 20.4424 -8.94945
645 1 22.0147 12.5797 18.8703 -8.94949
646 1 1.57275 14.1521 20.4419 -8.94955
647 1 3.14481 12.5794 18.8699 -8.94959
648 1 4.71727 14.1517 20.4418 -8.94969
649 1 6.28969 12.5791 18.8696 -8.94943
650 1 7.86198 14.1517 20.4422 -8.95027
651 1 9.43488 12.5793 18.8708 -8.94939
652 1 11.0067 14.1525 20.4432 -8.9504
653 1 12.5809 12.58 18.874 -8.95232
654 1 14.1531 14.1531 20.4438 -8.95103
655 1 15.7275 12.5805 18.8733 -8.94917
656 1 17.2987 14.153 20.4431 -8.94924
657 1 18.8713 12.58 18.8713 -8.94932
658 1 20.4427 14.1525 20.4424 -8.94942
659 1 22.0146 15.725 18.8702 -8.9495
660 1 1.57254 17.2971 20.4419 -8.94972
661 1 3.14468 15.7245 18.87 -8.94987
662 1 4.71686 17.2971 20.4418 -8.95011
663 1 6.28915 15.7246 18.8705 -8.95075
664 1 7.86158 17.2973 20.4421 -8.94948
665 1 9.43401 15.7254 18.8713 -8.94961
666 1 11.0067 17.2977 20.4426 -8.94953
667 1 12.5801 15.7262 18.8725 -8.94972
668 1 14.1523 17.2981 20.4429 -8.94962
669 1 15.7269 15.727 18.8729 -8.94998
670 1 17.2982 17.2984 20.4428 -8.94942
671 1 18.871 15.7258 18.871 -8.94931
672 1 20.4424 17.2976 20.4423 -8.94943
673 1 0.000283059 18.8699 18.8701 -8.94948
674 1 1.57227 20.4419 20.4419 -8.94935
675 1 3.14427 18.8698 18.8702 -8.94953
676 1 4.71697 20.4418 20.4418 -8.94949
677 1 6.28912 18.8697 18.8701 -8.94937
678 1 7.86177 20.4418 20.4419 -8.94946
679 1 9.43408 18.87 18.8703 -8.94944
680 1 11.0067 20.4419 20.4421 -8.94947
681 1 12.5795 18.8704 18.8707 -8.94939
682 1 14.1519 20.4421 20.4423 -8.94946
355 1 6.28964 12.5791 22.0142 -8.94945
357 1 9.43433 12.5792 22.015 -8.94905
359 1 12.5797 12.5796 22.0141 -8.9518
365 1 0.000447349 15.7248 22.0139 -8.94948
367 1 3.14473 15.7244 22.0137 -8.94982
369 1 6.28923 15.7245 22.0134 -8.95061
375 1 15.7257 15.726 22.0139 -8.95012
379 1 22.014 18.8697 22.0139 -8.94949
351 1 22.0145 12.5796 22.0139 -8.94951
363 1 18.8706 12.5798 22.0142 -8.94941
385 1 9.43416 18.8697 22.014 -8.94947
387 1 12.5793 18.8699 22.0142 -8.94944
