ITEM: TIMESTEP
79
ITEM: NUMBER OF ATOMS
688
ITEM: BOX BOUNDS pp pp pp
0.0000000000000000e+00 2.2013900999999997e+01
0.0000000000000000e+00 2.2013900999999997e+01
0.0000000000000000e+00 2.2013900999999997e+01
ITEM: ATOMS id type x y z c_pot
189 1 20.4407 4.71572 11.007 -8.94953
2 1 1.57175 1.57193 1.57161 -8.94918
175 1 18.8671 9.43439 9.43497 -8.94802
4 1 4.71674 1.57192 1.57157 -8.94959
174 1 15.7196 9.43646 9.43851 -8.94665
6 1 7.86186 1.57198 1.57186 -8.94946
7 1 9.43439 1.36879e-15 -6.57532e-05 -8.94949
8 1 11.0069 1.57199 1.5721 -8.9495
173 1 12.5656 9.43619 9.43277 -8.94464
10 1 14.1519 1.5719 1.57223 -8.94953
172 1 9.3566 9.19867 9.43749 -8.33878
12 1 17.297 1.5717 1.57209 -8.9495
188 1 17.2978 4.71521 11.0069 -8.94897
14 1 20.4414 1.57193 1.57209 -8.94942
171 1 6.26831 9.42354 9.43306 -9.01643
16 1 1.57189 4.71655 1.5715 -8.9498
170 1 3.13477 9.43294 9.43339 -8.95092
18 1 4.71611 4.71609 1.57063 -8.94964
169 1 22.0096 9.43399 9.434 -8.94983
20 1 7.86152 4.71625 1.57144 -8.94917
183 1 1.56896 4.71489 11.0076 -8.94925
22 1 11.0067 4.7162 1.57179 -8.94939
181 1 17.2969 1.57166 11.0067 -8.94949
24 1 14.1523 4.71581 1.57163 -8.94991
168 1 18.869 6.28818 9.43415 -8.94948
26 1 17.2981 4.71537 1.57146 -8.94847
167 1 15.7262 6.28701 9.43437 -8.94492
28 1 20.4419 4.71632 1.57189 -8.94951
166 1 12.578 6.29007 9.43647 -8.94738
30 1 1.57219 7.86176 1.57165 -8.94946
165 1 9.42863 6.29347 9.43834 -9.00586
32 1 4.71687 7.86216 1.57163 -8.94987
164 1 6.27608 6.27894 9.43586 -8.94419
34 1 7.86169 7.86193 1.5715 -8.9518
35 1 9.434 6.28894 -0.000146697 -8.9496
36 1 11.0063 7.86125 1.57139 -8.95024
37 1 12.5793 6.28867 7.76988e-05 -8.94976
38 1 14.1535 7.86033 1.56978 -8.95163
163 1 3.13733 6.28564 9.43445 -8.94916
40 1 17.2985 7.86089 1.5714 -8.94921
162 1 22.0109 6.28796 9.43412 -8.94995
42 1 20.4422 7.86149 1.57183 -8.94941
158 1 9.43335 3.14461 9.43505 -8.94684
44 1 3.14478 9.43446 -0.000256232 -8.94962
161 1 18.8689 3.14373 9.43411 -8.94947
160 1 15.7247 3.14344 9.4341 -8.94936
159 1 12.5789 3.14452 9.4348 -8.94885
48 1 15.726 9.43382 -2.62062e-05 -8.94945
157 1 6.28611 3.14076 9.43479 -8.95
50 1 22.0132 1.00582e-15 3.14416 -8.94943
51 1 1.57115 1.57167 4.71614 -8.94943
52 1 3.14385 2.99245e-15 3.14364 -8.94951
53 1 4.71589 1.57112 4.71579 -8.95001
54 1 6.28926 1.14495e-15 3.14393 -8.94954
55 1 7.86167 1.57153 4.71641 -8.94961
56 1 9.43444 9.11366e-16 3.14426 -8.94954
57 1 11.0068 1.57179 4.71674 -8.94954
58 1 12.5794 1.06645e-15 3.14449 -8.94951
59 1 14.1518 1.57157 4.71694 -8.95059
60 1 15.7244 1.39425e-16 3.14451 -8.95004
61 1 17.2966 1.57189 4.71695 -8.94975
62 1 18.8689 9.28444e-16 3.14452 -8.94965
63 1 20.4409 1.57193 4.71666 -8.94944
64 1 22.0131 3.14393 3.14387 -8.94944
65 1 1.5699 4.71546 4.71533 -8.94939
66 1 3.14311 3.14327 3.1429 -8.94843
67 1 4.71259 4.71298 4.71297 -8.94534
68 1 6.28878 3.14348 3.14344 -8.94965
69 1 7.86035 4.71447 4.71548 -8.94917
70 1 9.43416 3.14376 3.14401 -8.94944
71 1 11.0064 4.71521 4.71596 -8.94813
72 1 12.5793 3.14375 3.1442 -8.94927
73 1 14.1538 4.71318 4.71485 -8.95001
74 1 15.7251 3.14301 3.14383 -8.94955
75 1 17.2975 4.71568 4.71641 -8.95009
76 1 18.8693 3.14383 3.14427 -8.9497
77 1 20.4408 4.71621 4.7164 -8.94985
78 1 22.0135 6.2889 3.14379 -8.94976
79 1 1.57049 7.86143 4.71573 -8.94975
80 1 3.14326 6.28875 3.14306 -8.95027
81 1 4.71373 7.86119 4.7151 -8.95121
82 1 6.28697 6.28734 3.14114 -8.95033
83 1 7.85613 7.8574 4.71101 -8.95444
84 1 9.43343 6.28779 3.14322 -8.94793
85 1 11.0057 7.85908 4.71255 -8.95261
86 1 12.5797 6.28771 3.14257 -8.94986
87 1 14.1629 7.85137 4.7061 -8.93196
88 1 15.728 6.28559 3.14116 -8.94533
89 1 17.3001 7.86006 4.71519 -8.95055
90 1 18.8704 6.28829 3.1437 -8.94964
91 1 20.4416 7.86136 4.71619 -8.95006
92 1 -0.000193528 9.43422 3.14373 -8.94951
93 1 3.14367 9.4343 3.14348 -8.94904
94 1 6.28901 9.43519 3.14485 -8.94974
95 1 9.43433 9.43455 3.14666 -8.94892
96 1 12.5816 9.4334 3.13854 -8.95925
97 1 15.7278 9.43308 3.1416 -8.94773
98 1 18.8706 9.43396 3.14356 -8.94929
99 1 22.0129 1.09785e-15 6.28898 -8.94947
100 1 1.5708 1.57153 7.86147 -8.94948
101 1 3.14335 8.61365e-16 6.28867 -8.94949
102 1 4.71526 1.57085 7.86139 -8.94961
103 1 6.28881 1.63341e-14 6.28891 -8.95053
104 1 7.86125 1.57113 7.862 -8.95101
105 1 9.43432 1.0797e-14 6.2893 -8.95002
106 1 11.0063 1.57227 7.86228 -8.94935
107 1 12.579 4.90908e-15 6.28968 -8.95028
108 1 14.1515 1.57205 7.86206 -8.94955
109 1 15.724 3.00048e-16 6.28952 -8.94965
110 1 17.2966 1.57188 7.86165 -8.9494
111 1 18.8687 3.57858e-16 6.28922 -8.94943
112 1 20.4408 1.57185 7.8616 -8.94947
113 1 -0.00141273 3.14366 6.28875 -8.94939
114 1 1.56909 4.71498 7.86103 -8.94934
115 1 3.14229 3.14264 6.28811 -8.94929
116 1 4.71157 4.71244 7.86043 -8.94815
117 1 6.28725 3.14131 6.28805 -8.95148
118 1 7.85771 4.71089 7.86195 -8.95785
119 1 9.43384 3.14306 6.28911 -8.95021
120 1 11.0052 4.71675 7.863 -8.95131
121 1 12.579 3.14324 6.28957 -8.95217
122 1 14.1518 4.71611 7.8626 -8.94938
123 1 15.7243 3.14386 6.28949 -8.94975
124 1 17.297 4.71595 7.86157 -8.94859
125 1 18.8688 3.14397 6.28912 -8.94931
126 1 20.4404 4.71594 7.86141 -8.94945
127 1 22.0114 6.2883 6.28839 -8.95003
128 1 1.56655 7.86024 7.86059 -8.9513
129 1 3.13852 6.28614 6.28645 -8.94978
130 1 4.70223 7.85592 7.85847 -8.95545
131 1 6.27637 6.27828 6.27963 -8.93289
132 1 7.81968 7.83198 7.8364 -8.88579
133 1 9.43186 6.28388 6.28813 -8.95159
134 1 11.0209 7.85668 7.84431 -8.94643
135 1 12.584 6.28092 6.28459 -8.9529
136 1 14.1562 7.85973 7.86361 -8.95135
137 1 15.7263 6.28753 6.28878 -8.95087
138 1 17.2967 7.86192 7.8632 -8.95139
139 1 18.8688 6.28883 6.28926 -8.95026
140 1 20.4395 7.86138 7.86163 -8.95007
141 1 22.0119 9.43417 6.28848 -8.94982
142 1 3.1404 9.43443 6.28799 -8.94986
143 1 6.28231 9.43622 6.28908 -8.95225
144 1 9.41891 9.41674 6.29409 -8.95012
145 1 12.6164 9.40431 6.25633 -8.86082
146 1 15.7327 9.43234 6.28663 -8.95659
147 1 18.8702 9.43415 6.28896 -8.9515
148 1 -0.0010636 2.0099e-16 9.43429 -8.94948
149 1 3.1431 2.18909e-15 9.4344 -8.94953
150 1 6.28828 1.39442e-14 9.43453 -8.95043
151 1 9.43407 1.88817e-14 9.43449 -8.94843
152 1 12.579 5.69432e-15 9.4344 -8.94934
153 1 15.7243 4.63564e-16 9.43413 -8.94967
154 1 18.8688 1.04341e-15 9.43417 -8.94949
155 1 22.0123 3.14351 9.43423 -8.94944
156 1 3.14182 3.14245 9.4344 -8.94946
177 1 4.71511 1.57076 11.0076 -8.94953
184 1 4.7111 4.71227 11.009 -8.94748
3 1 3.14453 9.74893e-16 -0.000322306 -8.94954
11 1 15.7244 -2.38556e-16 0.00016372 -8.94956
41 1 18.8702 6.28863 0.000108169 -8.9494
19 1 6.28932 3.14427 -0.000369958 -8.94945
25 1 15.7247 3.14377 0.000148368 -8.94968
176 1 1.57077 1.57149 11.0072 -8.94947
47 1 12.5796 9.43431 22.0139 -8.95175
178 1 7.86117 1.57087 11.0073 -8.95136
179 1 11.0063 1.57189 11.0069 -8.94931
180 1 14.152 1.57151 11.0067 -8.94971
343 1 18.8711 9.43391 18.8711 -8.94929
182 1 20.4409 1.57178 11.0069 -8.94948
342 1 15.7273 9.43338 18.8731 -8.94911
46 1 9.43429 9.43462 22.0145 -8.94881
185 1 7.85743 4.70956 11.0097 -8.95897
186 1 11.006 4.71565 11.0086 -8.95024
187 1 14.1534 4.7142 11.0069 -8.94873
341 1 12.5806 9.4339 18.8738 -8.95275
340 1 9.43467 9.43466 18.8699 -8.94896
190 1 1.56643 7.8604 11.0076 -8.95142
191 1 4.70197 7.85695 11.0108 -8.95752
192 1 7.81823 7.82676 11.044 -8.90914
193 1 11.0275 7.85594 11.0365 -8.96335
194 1 14.1595 7.85664 11.0076 -8.94919
195 1 17.2988 7.86028 11.0071 -8.95051
196 1 20.4401 7.86104 11.007 -8.95026
197 1 22.013 1.20416e-15 12.5798 -8.94948
198 1 1.57109 1.57153 14.1529 -8.94946
199 1 3.14323 6.96106e-16 12.5803 -8.94947
200 1 4.71556 1.57085 14.1535 -8.95009
201 1 6.2886 1.61427e-14 12.5803 -8.95076
202 1 7.86149 1.57135 14.153 -8.94949
203 1 9.43421 9.81946e-15 12.58 -8.9499
204 1 11.0068 1.57104 14.153 -8.94981
205 1 12.5792 5.56969e-15 12.5795 -8.95103
206 1 14.1525 1.57041 14.1528 -8.95128
207 1 15.7246 1.0208e-15 12.5793 -8.9497
208 1 17.2973 1.57136 14.1522 -8.94967
209 1 18.8691 1.57091e-15 12.5794 -8.94948
210 1 20.4412 1.57172 14.1523 -8.94945
211 1 22.0126 3.14346 12.58 -8.94939
212 1 1.56974 4.71507 14.1538 -8.94969
213 1 3.142 3.14243 12.5809 -8.94925
214 1 4.71153 4.71205 14.1571 -8.94454
215 1 6.2867 3.14059 12.5817 -8.95173
216 1 7.86024 4.71398 14.1549 -8.9492
217 1 9.43404 3.14239 12.581 -8.94987
218 1 11.0071 4.71239 14.156 -8.94798
219 1 12.5798 3.14086 12.5804 -8.95391
220 1 14.1569 4.70865 14.1573 -8.95059
221 1 15.7254 3.14252 12.5796 -8.94949
222 1 17.2993 4.71414 14.1534 -8.95002
223 1 18.8694 3.14346 12.5796 -8.94935
224 1 20.4415 4.71562 14.1528 -8.94979
225 1 22.0117 6.28802 12.5803 -8.95024
226 1 1.56964 7.8608 14.1538 -8.94936
227 1 3.1379 6.28594 12.5825 -8.95091
228 1 4.71231 7.86051 14.1552 -8.94995
229 1 6.2743 6.27606 12.5926 -8.93058
230 1 7.85672 7.85691 14.1619 -8.95562
231 1 9.43407 6.28268 12.5858 -8.95012
232 1 11.0088 7.85314 14.1666 -8.94639
233 1 12.5885 6.2726 12.5902 -8.95816
234 1 14.1747 7.84068 14.1752 -8.91691
235 1 15.7295 6.28495 12.5815 -8.94998
236 1 17.3041 7.85822 14.1562 -8.95278
237 1 18.8704 6.28783 12.5799 -8.9498
238 1 20.4424 7.86083 14.1533 -8.95068
239 1 22.0114 9.43391 12.5804 -8.95012
240 1 3.13784 9.43334 12.582 -8.94744
241 1 6.28161 9.43343 12.5833 -8.97757
242 1 9.42776 9.41659 12.5898 -8.95859
243 1 12.6378 9.37782 12.6403 -8.8443
244 1 15.7376 9.43146 12.5863 -8.96442
245 1 18.8714 9.43401 12.5805 -8.95278
246 1 -0.000539677 7.06924e-16 15.7251 -8.94948
247 1 1.5717 1.57176 17.2979 -8.9491
248 1 3.14368 2.67484e-15 15.7257 -8.94955
249 1 4.71666 1.57185 17.2978 -8.94964
250 1 6.28911 4.58342e-16 15.7254 -8.9495
251 1 7.86161 1.57184 17.2977 -8.94935
252 1 9.43416 1.4547e-15 15.7253 -8.94954
253 1 11.0067 1.57165 17.2978 -8.94946
254 1 12.5795 1.26412e-15 15.7253 -8.94965
255 1 14.1522 1.57131 17.298 -8.94955
256 1 15.7251 1.48793e-15 15.7253 -8.95037
257 1 17.2978 1.57111 17.2982 -8.94943
258 1 18.8695 1.35574e-15 15.7249 -8.94963
259 1 20.4417 1.57171 17.2976 -8.94947
260 1 22.0132 3.14357 15.7255 -8.94949
261 1 1.57186 4.71622 17.2981 -8.94975
262 1 3.14276 3.14284 15.7266 -8.94819
263 1 4.71583 4.7159 17.2989 -8.94983
264 1 6.28854 3.14329 15.7261 -8.94968
265 1 7.86114 4.71595 17.2986 -8.9487
266 1 9.43384 3.14301 15.7261 -8.94925
267 1 11.0067 4.71516 17.2992 -8.94922
268 1 12.5799 3.1421 15.7264 -8.94922
269 1 14.1535 4.71394 17.3002 -8.94962
270 1 15.7267 3.14098 15.727 -8.94956
271 1 17.3 4.71356 17.3002 -8.94698
272 1 18.8701 3.1431 15.7254 -8.94974
273 1 20.4426 4.71568 17.2983 -8.94947
274 1 22.0137 6.28834 15.7259 -8.94981
275 1 1.57208 7.86153 17.2981 -8.94953
276 1 3.14265 6.28831 15.7266 -8.94993
277 1 4.71652 7.8621 17.298 -8.95001
278 1 6.28639 6.28712 15.729 -8.95075
279 1 7.86196 7.86221 17.2985 -8.95257
280 1 9.43322 6.28633 15.7289 -8.94629
281 1 11.0071 7.85998 17.3018 -8.95081
282 1 12.5821 6.28393 15.7315 -8.94876
283 1 14.1566 7.85782 17.3054 -8.95207
284 1 15.733 6.28092 15.7332 -8.94075
285 1 17.3006 7.85974 17.3007 -8.9487
286 1 18.8723 6.287 15.7269 -8.95004
287 1 20.4429 7.86106 17.2985 -8.94932
288 1 22.0139 9.43399 15.726 -8.94954
289 1 3.14302 9.43425 15.7261 -8.9493
290 1 6.28887 9.43546 15.7251 -8.95014
291 1 9.43734 9.43509 15.7258 -8.95179
292 1 12.5876 9.43018 15.7412 -8.9618
293 1 15.7327 9.43153 15.7328 -8.94615
294 1 18.8727 9.43343 15.7274 -8.94914
295 1 22.0138 9.67904e-16 18.8698 -8.94916
296 1 1.57224 1.57201 20.4418 -8.94938
297 1 3.14451 4.97079e-16 18.8697 -8.94961
298 1 4.717 1.57211 20.4417 -8.94948
299 1 6.28935 9.17475e-16 18.8697 -8.9494
300 1 7.86183 1.57208 20.4418 -8.94947
301 1 9.43425 7.23153e-16 18.8698 -8.94946
302 1 11.0068 1.572 20.4419 -8.94947
303 1 12.5793 5.12977e-16 18.8699 -8.94947
304 1 14.1519 1.57187 20.4421 -8.94946
305 1 15.7246 8.67134e-16 18.87 -8.94955
306 1 17.2972 1.57174 20.4422 -8.94955
307 1 18.8697 5.76397e-16 18.8701 -8.94921
308 1 20.4419 1.57191 20.442 -8.94903
309 1 0.000208533 3.14403 18.87 -8.94946
310 1 1.57246 4.71676 20.4418 -8.9497
311 1 3.14431 3.14407 18.87 -8.94961
312 1 4.71691 4.71681 20.4417 -8.95012
313 1 6.2892 3.14421 18.8699 -8.94935
314 1 7.86163 4.71661 20.4419 -8.94948
315 1 9.43409 3.14398 18.8701 -8.94944
316 1 11.0066 4.71628 20.4423 -8.94953
317 1 12.5794 3.14362 18.8704 -8.94938
318 1 14.1522 4.71587 20.4426 -8.94964
319 1 15.7251 3.14315 18.8707 -8.94961
320 1 17.2981 4.71552 20.4427 -8.94941
321 1 18.8703 3.14331 18.8705 -8.94868
322 1 20.4423 4.71636 20.4421 -8.94943
323 1 22.0144 6.28893 18.8701 -8.94947
324 1 1.5726 7.86181 20.4419 -8.94956
325 1 3.1446 6.28933 18.87 -8.94984
326 1 4.71723 7.86218 20.4417 -8.94977
327 1 6.28927 6.28944 18.8701 -8.95074
328 1 7.86199 7.86219 20.4418 -8.9501
329 1 9.43388 6.28865 18.8708 -8.94962
330 1 11.0066 7.86149 20.4428 -8.95028
331 1 12.5797 6.28791 18.872 -8.94969
332 1 14.1529 7.86089 20.4436 -8.95111
333 1 15.7268 6.2869 18.8728 -8.94997
334 1 17.2985 7.86094 20.4429 -8.94924
335 1 18.8709 6.28818 18.8709 -8.94929
336 1 20.4425 7.86148 20.4422 -8.94941
337 1 22.0145 9.43423 18.8702 -8.94948
338 1 3.14462 9.43443 18.8699 -8.9496
339 1 6.28961 9.43481 18.8694 -8.9496
45 1 6.28971 9.43474 22.0139 -8.94952
5 1 6.28944 6.52985e-16 22.0137 -8.94947
9 1 12.5793 5.62297e-16 22.014 -8.94949
39 1 15.7256 6.28801 22.0138 -8.95014
15 1 22.014 3.14424 22.0138 -8.9495
17 1 3.14436 3.1442 22.0134 -8.94957
33 1 6.28932 6.28937 22.0132 -8.95053
31 1 3.14469 6.28944 22.0135 -8.94985
27 1 18.8698 3.14377 22.014 -8.94912
29 1 0.000341808 6.28914 22.0138 -8.94949
1 1 -0.000118524 6.91535e-16 22.0138 -8.94913
13 1 18.8694 1.44821e-15 22.014 -8.94933
21 1 9.43426 3.14418 22.0138 -8.94948
23 1 12.5793 3.14404 22.014 -8.94944
43 1 22.0144 9.43431 22.0138 -8.94952
49 1 18.8704 9.4341 22.014 -8.94942
344 1 1.57226 11.007 1.57167 -8.94958
345 1 4.71687 11.007 1.57176 -8.94976
346 1 7.86216 11.007 1.57373 -8.94827
347 1 11.0065 11.007 1.57334 -8.9469
348 1 14.1542 11.007 1.56973 -8.94976
349 1 17.2986 11.007 1.57138 -8.94946
350 1 20.4423 11.007 1.5718 -8.94946
538 1 17.2969 20.4422 11.0067 -8.94949
352 1 1.57219 14.1521 1.57165 -8.94946
353 1 3.14478 12.5794 -0.000256232 -8.94962
354 1 4.71687 14.1517 1.57163 -8.94987
688 3 10.2517 11.007 9.48274 2.19915
356 1 7.86169 14.152 1.5715 -8.9518
511 1 18.8689 18.8702 9.43411 -8.94947
358 1 11.0063 14.1527 1.57139 -8.95024
510 1 15.7247 18.8705 9.4341 -8.94936
360 1 14.1535 14.1536 1.56978 -8.95163
361 1 15.726 12.5801 -2.62062e-05 -8.94945
362 1 17.2985 14.153 1.5714 -8.94921
532 1 20.4407 17.2982 11.007 -8.94953
364 1 20.4422 14.1524 1.57183 -8.94941
509 1 12.5789 18.8694 9.4348 -8.94885
366 1 1.57189 17.2974 1.5715 -8.9498
508 1 9.43335 18.8693 9.43505 -8.94684
368 1 4.71611 17.2978 1.57063 -8.94964
507 1 6.28611 18.8731 9.43479 -8.95
370 1 7.86152 17.2976 1.57144 -8.94917
371 1 9.434 15.725 -0.000146697 -8.9496
372 1 11.0067 17.2977 1.57179 -8.94939
373 1 12.5793 15.7252 7.76988e-05 -8.94976
374 1 14.1523 17.2981 1.57163 -8.94991
506 1 3.14182 18.8715 9.4344 -8.94946
376 1 17.2981 17.2985 1.57146 -8.94847
505 1 22.0123 18.8704 9.43423 -8.94944
378 1 20.4419 17.2976 1.57189 -8.94951
504 1 18.869 15.7257 9.43415 -8.94948
380 1 1.57175 20.442 1.57161 -8.94918
503 1 15.7262 15.7269 9.43437 -8.94492
382 1 4.71674 20.442 1.57157 -8.94959
502 1 12.578 15.7238 9.43647 -8.94738
384 1 7.86186 20.4419 1.57186 -8.94946
531 1 17.2978 17.2987 11.0069 -8.94897
386 1 11.0069 20.4419 1.5721 -8.9495
687 2 9.5736 11.007 10.2793 -0.040013
388 1 14.1519 20.442 1.57223 -8.94953
501 1 9.42863 15.7204 9.43834 -9.00586
390 1 17.297 20.4422 1.57209 -8.9495
500 1 6.27608 15.735 9.43586 -8.94419
392 1 20.4414 20.442 1.57209 -8.94942
393 1 1.57057 11.007 4.71561 -8.94945
394 1 4.71418 11.007 4.71533 -8.94604
395 1 7.86321 11.007 4.72254 -8.94837
396 1 11.0097 11.007 4.72333 -9.00186
397 1 14.1611 11.007 4.70845 -8.94229
398 1 17.3003 11.007 4.71488 -8.94916
399 1 20.4418 11.007 4.71603 -8.94988
400 1 -0.000193528 12.5797 3.14373 -8.94951
401 1 1.57049 14.1525 4.71573 -8.94975
402 1 3.14367 12.5796 3.14348 -8.94904
403 1 4.71373 14.1527 4.7151 -8.95121
404 1 6.28901 12.5787 3.14485 -8.94974
405 1 7.85613 14.1565 4.71101 -8.95444
406 1 9.43433 12.5794 3.14666 -8.94892
407 1 11.0057 14.1548 4.71255 -8.95261
408 1 12.5816 12.5805 3.13854 -8.95925
409 1 14.1629 14.1625 4.7061 -8.93196
410 1 15.7278 12.5808 3.1416 -8.94773
411 1 17.3001 14.1538 4.71519 -8.95055
412 1 18.8706 12.5799 3.14356 -8.94929
413 1 20.4416 14.1525 4.71619 -8.95006
414 1 22.0135 15.725 3.14379 -8.94976
415 1 1.5699 17.2984 4.71533 -8.94939
416 1 3.14326 15.7251 3.14306 -8.95027
417 1 4.71259 17.3009 4.71297 -8.94534
418 1 6.28697 15.7266 3.14114 -8.95033
419 1 7.86035 17.2994 4.71548 -8.94917
420 1 9.43343 15.7261 3.14322 -8.94793
421 1 11.0064 17.2987 4.71596 -8.94813
422 1 12.5797 15.7262 3.14257 -8.94986
423 1 14.1538 17.3007 4.71485 -8.95001
424 1 15.728 15.7283 3.14116 -8.94533
425 1 17.2975 17.2982 4.71641 -8.95009
426 1 18.8704 15.7256 3.1437 -8.94964
427 1 20.4408 17.2977 4.7164 -8.94985
428 1 22.0131 18.87 3.14387 -8.94944
429 1 1.57115 20.4422 4.71614 -8.94943
430 1 3.14311 18.8706 3.1429 -8.94843
431 1 4.71589 20.4428 4.71579 -8.95001
432 1 6.28878 18.8704 3.14344 -8.94965
433 1 7.86167 20.4424 4.71641 -8.94961
434 1 9.43416 18.8701 3.14401 -8.94944
435 1 11.0068 20.4421 4.71674 -8.94954
436 1 12.5793 18.8702 3.1442 -8.94927
437 1 14.1518 20.4423 4.71694 -8.95059
438 1 15.7251 18.8709 3.14383 -8.94955
439 1 17.2966 20.442 4.71695 -8.94975
440 1 18.8693 18.8701 3.14427 -8.9497
441 1 20.4409 20.442 4.71666 -8.94944
442 1 1.56792 11.007 7.86077 -8.94774
443 1 4.71213 11.007 7.86211 -8.94086
444 1 7.8711 11.007 7.87194 -8.96106
445 1 11.0836 11.007 7.64432 -8.19382
446 1 14.159 11.007 7.85689 -8.96786
447 1 17.2973 11.007 7.86283 -8.95172
448 1 20.4397 11.007 7.86164 -8.94965
449 1 22.0119 12.5797 6.28848 -8.94982
450 1 1.56655 14.1537 7.86059 -8.9513
451 1 3.1404 12.5795 6.28799 -8.94986
452 1 4.70223 14.158 7.85847 -8.95545
453 1 6.28231 12.5777 6.28908 -8.95225
454 1 7.81968 14.1819 7.8364 -8.88579
455 1 9.41891 12.5972 6.29409 -8.95012
456 1 11.0209 14.1572 7.84431 -8.94643
457 1 12.6164 12.6096 6.25633 -8.86082
458 1 14.1562 14.1542 7.86361 -8.95135
459 1 15.7327 12.5816 6.28663 -8.95659
460 1 17.2967 14.152 7.8632 -8.95139
461 1 18.8702 12.5798 6.28896 -8.9515
462 1 20.4395 14.1525 7.86163 -8.95007
463 1 22.0114 15.7256 6.28839 -8.95003
464 1 1.56909 17.2989 7.86103 -8.94934
465 1 3.13852 15.7278 6.28645 -8.94978
466 1 4.71157 17.3015 7.86043 -8.94815
467 1 6.27637 15.7356 6.27963 -8.93289
468 1 7.85771 17.303 7.86195 -8.95785
469 1 9.43186 15.73 6.28813 -8.95159
470 1 11.0052 17.2971 7.863 -8.95131
471 1 12.584 15.733 6.28459 -8.9529
472 1 14.1518 17.2978 7.8626 -8.94938
473 1 15.7263 15.7264 6.28878 -8.95087
474 1 17.297 17.298 7.86157 -8.94859
475 1 18.8688 15.7251 6.28926 -8.95026
476 1 20.4404 17.298 7.86141 -8.94945
477 1 -0.00141273 18.8702 6.28875 -8.94939
478 1 1.5708 20.4424 7.86147 -8.94948
479 1 3.14229 18.8713 6.28811 -8.94929
480 1 4.71526 20.4431 7.86139 -8.94961
481 1 6.28725 18.8726 6.28805 -8.95148
482 1 7.86125 20.4428 7.862 -8.95101
483 1 9.43384 18.8708 6.28911 -8.95021
484 1 11.0063 20.4416 7.86228 -8.94935
485 1 12.579 18.8707 6.28957 -8.95217
486 1 14.1515 20.4419 7.86206 -8.94955
487 1 15.7243 18.87 6.28949 -8.94975
488 1 17.2966 20.442 7.86165 -8.9494
489 1 18.8688 18.8699 6.28912 -8.94931
490 1 20.4408 20.4421 7.8616 -8.94947
491 1 22.0096 12.5799 9.434 -8.94983
492 1 3.13477 12.581 9.43339 -8.95092
493 1 6.26831 12.5904 9.43306 -9.01643
494 1 9.3566 12.8152 9.43749 -8.33878
495 1 12.5656 12.5777 9.43277 -8.94464
496 1 15.7196 12.5774 9.43851 -8.94665
497 1 18.8671 12.5795 9.43497 -8.94802
498 1 22.0109 15.7259 9.43412 -8.94995
499 1 3.13733 15.7283 9.43445 -8.94916
526 1 1.56896 17.299 11.0076 -8.94925
527 1 4.7111 17.3016 11.009 -8.94748
534 1 4.71511 20.4431 11.0076 -8.94953
389 1 15.7247 18.8701 0.000148368 -8.94968
383 1 6.28932 18.8696 -0.000369958 -8.94945
377 1 18.8702 15.7253 0.000108169 -8.9494
512 1 1.56555 11.007 11.0076 -8.95129
513 1 4.70063 11.007 11.0081 -8.9578
514 1 7.8203 11.007 11.0138 -9.10591
515 1 11.1775 11.007 11.2717 -8.30631
516 1 14.1393 11.007 11.0238 -8.99412
517 1 17.2951 11.007 11.0083 -8.94353
518 1 20.4392 11.007 11.0071 -8.94897
519 1 1.56643 14.1535 11.0076 -8.95142
520 1 4.70197 14.157 11.0108 -8.95752
521 1 7.81823 14.1871 11.044 -8.90914
522 1 11.0275 14.158 11.0365 -8.96335
523 1 14.1595 14.1573 11.0076 -8.94919
524 1 17.2988 14.1536 11.0071 -8.95051
525 1 20.4401 14.1529 11.007 -8.95026
686 1 20.4419 20.442 20.442 -8.94903
391 1 18.8698 18.8701 22.014 -8.94912
528 1 7.85743 17.3043 11.0097 -8.95897
529 1 11.006 17.2983 11.0086 -8.95024
530 1 14.1534 17.2997 11.0069 -8.94873
685 1 18.8703 18.8706 18.8705 -8.94868
684 1 17.2972 20.4422 20.4422 -8.94955
533 1 1.57077 20.4424 11.0072 -8.94947
381 1 3.14436 18.8697 22.0134 -8.94957
535 1 7.86117 20.443 11.0073 -8.95136
536 1 11.0063 20.442 11.0069 -8.94931
537 1 14.152 20.4424 11.0067 -8.94971
683 1 15.7251 18.8708 18.8707 -8.94961
539 1 20.4409 20.4421 11.0069 -8.94948
540 1 1.56976 11.007 14.1537 -8.949
541 1 4.71356 11.007 14.1536 -8.94666
542 1 7.86622 11.007 14.1482 -8.99289
543 1 11.0241 11.007 14.1555 -9.05756
544 1 14.1696 11.007 14.1708 -8.94147
545 1 17.3042 11.007 14.1574 -8.94928
546 1 20.4426 11.007 14.1537 -8.95024
547 1 22.0114 12.58 12.5804 -8.95012
548 1 1.56964 14.1531 14.1538 -8.94936
549 1 3.13784 12.5806 12.582 -8.94744
550 1 4.71231 14.1534 14.1552 -8.94995
551 1 6.28161 12.5805 12.5833 -8.97757
552 1 7.85672 14.157 14.1619 -8.95562
553 1 9.42776 12.5973 12.5898 -8.95859
554 1 11.0088 14.1608 14.1666 -8.94639
555 1 12.6378 12.6361 12.6403 -8.8443
556 1 14.1747 14.1732 14.1752 -8.91691
557 1 15.7376 12.5824 12.5863 -8.96442
558 1 17.3041 14.1557 14.1562 -8.95278
559 1 18.8714 12.5799 12.5805 -8.95278
560 1 20.4424 14.1531 14.1533 -8.95068
561 1 22.0117 15.7259 12.5803 -8.95024
562 1 1.56974 17.2988 14.1538 -8.94969
563 1 3.1379 15.728 12.5825 -8.95091
564 1 4.71153 17.3018 14.1571 -8.94454
565 1 6.2743 15.7378 12.5926 -8.93058
566 1 7.86024 17.2999 14.1549 -8.9492
567 1 9.43407 15.7312 12.5858 -8.95012
568 1 11.0071 17.3015 14.156 -8.94798
569 1 12.5885 15.7413 12.5902 -8.95816
570 1 14.1569 17.3053 14.1573 -8.95059
571 1 15.7295 15.729 12.5815 -8.94998
572 1 17.2993 17.2998 14.1534 -8.95002
573 1 18.8704 15.7261 12.5799 -8.9498
574 1 20.4415 17.2983 14.1528 -8.94979
575 1 22.0126 18.8704 12.58 -8.94939
576 1 1.57109 20.4424 14.1529 -8.94946
577 1 3.142 18.8715 12.5809 -8.94925
578 1 4.71556 20.443 14.1535 -8.95009
579 1 6.2867 18.8733 12.5817 -8.95173
580 1 7.86149 20.4426 14.153 -8.94949
581 1 9.43404 18.8715 12.581 -8.94987
582 1 11.0068 20.4429 14.153 -8.94981
583 1 12.5798 18.873 12.5804 -8.95391
584 1 14.1525 20.4435 14.1528 -8.95128
585 1 15.7254 18.8714 12.5796 -8.94949
586 1 17.2973 20.4425 14.1522 -8.94967
587 1 18.8694 18.8704 12.5796 -8.94935
588 1 20.4412 20.4422 14.1523 -8.94945
589 1 1.57205 11.007 17.2981 -8.94953
590 1 4.7164 11.007 17.2977 -8.94934
591 1 7.86255 11.007 17.2961 -8.94797
592 1 11.0088 11.007 17.3 -8.94677
593 1 14.1576 11.007 17.3054 -8.94905
594 1 17.3008 11.007 17.3009 -8.94915
595 1 20.443 11.007 17.2986 -8.94945
596 1 22.0139 12.5799 15.726 -8.94954
597 1 1.57208 14.1524 17.2981 -8.94953
598 1 3.14302 12.5797 15.7261 -8.9493
599 1 4.71652 14.1518 17.298 -8.95001
600 1 6.28887 12.5784 15.7251 -8.95014
601 1 7.86196 14.1517 17.2985 -8.95257
602 1 9.43734 12.5788 15.7258 -8.95179
603 1 11.0071 14.1539 17.3018 -8.95081
604 1 12.5876 12.5837 15.7412 -8.9618
605 1 14.1566 14.1561 17.3054 -8.95207
606 1 15.7327 12.5824 15.7328 -8.94615
607 1 17.3006 14.1542 17.3007 -8.9487
608 1 18.8727 12.5805 15.7274 -8.94914
609 1 20.4429 14.1528 17.2985 -8.94932
610 1 22.0137 15.7256 15.7259 -8.94981
611 1 1.57186 17.2977 17.2981 -8.94975
612 1 3.14265 15.7256 15.7266 -8.94993
613 1 4.71583 17.298 17.2989 -8.94983
614 1 6.28639 15.7268 15.729 -8.95075
615 1 7.86114 17.298 17.2986 -8.9487
616 1 9.43322 15.7276 15.7289 -8.94629
617 1 11.0067 17.2987 17.2992 -8.94922
618 1 12.5821 15.73 15.7315 -8.94876
619 1 14.1535 17.3 17.3002 -8.94962
620 1 15.733 15.733 15.7332 -8.94075
621 1 17.3 17.3003 17.3002 -8.94698
622 1 18.8723 15.7269 15.7269 -8.95004
623 1 20.4426 17.2982 17.2983 -8.94947
624 1 22.0132 18.8703 15.7255 -8.94949
625 1 1.5717 20.4421 17.2979 -8.9491
626 1 3.14276 18.8711 15.7266 -8.94819
627 1 4.71666 20.4421 17.2978 -8.94964
628 1 6.28854 18.8706 15.7261 -8.94968
629 1 7.86161 20.4421 17.2977 -8.94935
630 1 9.43384 18.8709 15.7261 -8.94925
631 1 11.0067 20.4423 17.2978 -8.94946
632 1 12.5799 18.8718 15.7264 -8.94922
633 1 14.1522 20.4426 17.298 -8.94955
634 1 15.7267 18.8729 15.727 -8.94956
635 1 17.2978 20.4428 17.2982 -8.94943
636 1 18.8701 18.8708 15.7254 -8.94974
637 1 20.4417 20.4422 17.2976 -8.94947
638 1 1.57262 11.007 20.4419 -8.94957
639 1 4.71722 11.007 20.4417 -8.94975
640 1 7.86211 11.007 20.4417 -8.94894
641 1 11.0067 11.007 20.4429 -8.94867
642 1 14.1534 11.007 20.4437 -8.9506
643 1 17.2986 11.007 20.443 -8.9494
644 1 20.4426 11.007 20.4422 -8.94944
645 1 22.0145 12.5797 18.8702 -8.94948
646 1 1.5726 14.1521 20.4419 -8.94956
647 1 3.14462 12.5795 18.8699 -8.9496
648 1 4.71723 14.1517 20.4417 -8.94977
649 1 6.28961 12.5791 18.8694 -8.9496
650 1 7.86199 14.1517 20.4418 -8.9501
651 1 9.43467 12.5792 18.8699 -8.94896
652 1 11.0066 14.1524 20.4428 -8.95028
653 1 12.5806 12.58 18.8738 -8.95275
654 1 14.1529 14.153 20.4436 -8.95111
655 1 15.7273 12.5805 18.8731 -8.94911
656 1 17.2985 14.153 20.4429 -8.94924
657 1 18.8711 12.58 18.8711 -8.94929
658 1 20.4425 14.1524 20.4422 -8.94941
659 1 22.0144 15.725 18.8701 -8.94947
660 1 1.57246 17.2971 20.4418 -8.9497
661 1 3.1446 15.7246 18.87 -8.94984
662 1 4.71691 17.2971 20.4417 -8.95012
663 1 6.28927 15.7245 18.8701 -8.95074
664 1 7.86163 17.2973 20.4419 -8.94948
665 1 9.43388 15.7253 18.8708 -8.94962
666 1 11.0066 17.2976 20.4423 -8.94953
667 1 12.5797 15.726 18.872 -8.94969
668 1 14.1522 17.298 20.4426 -8.94964
669 1 15.7268 15.727 18.8728 -8.94997
670 1 17.2981 17.2984 20.4427 -8.94941
671 1 18.8709 15.7257 18.8709 -8.94929
672 1 20.4423 17.2975 20.4421 -8.94943
673 1 0.000208533 18.8699 18.87 -8.94946
674 1 1.57224 20.4419 20.4418 -8.94938
675 1 3.14431 18.8698 18.87 -8.94961
676 1 4.717 20.4418 20.4417 -8.94948
677 1 6.2892 18.8697 18.8699 -8.94935
678 1 7.86183 20.4418 20.4418 -8.94947
679 1 9.43409 18.8699 18.8701 -8.94944
680 1 11.0068 20.4419 20.4419 -8.94947
681 1 12.5794 18.8703 18.8704 -8.94938
682 1 14.1519 20.442 20.4421 -8.94946
355 1 6.28971 12.5792 22.0139 -8.94952
357 1 9.43429 12.5793 22.0145 -8.94881
359 1 12.5796 12.5796 22.0139 -8.95175
365 1 0.000341808 15.7248 22.0138 -8.94949
367 1 3.14469 15.7245 22.0135 -8.94985
369 1 6.28932 15.7245 22.0132 -8.95053
375 1 15.7256 15.7259 22.0138 -8.95014
379 1 22.014 18.8697 22.0138 -8.9495
351 1 22.0144 12.5796 22.0138 -8.94952
363 1 18.8704 12.5798 22.014 -8.94942
385 1 9.43426 18.8697 22.0138 -8.94948
387 1 12.5793 18.8699 22.014 -8.94944
