ITEM: TIMESTEP
57
ITEM: NUMBER OF ATOMS
688
ITEM: BOX BOUNDS pp pp pp
0.0000000000000000e+00 2.2013900999999997e+01
0.0000000000000000e+00 2.2013900999999997e+01
0.0000000000000000e+00 2.2013900999999997e+01
ITEM: ATOMS id type x y z c_pot
189 1 20.4415 4.71724 11.007 -8.94963
2 1 1.57241 1.57241 1.57241 -8.94958
175 1 18.8695 9.43435 9.43452 -8.94938
4 1 4.71727 1.57242 1.57242 -8.94968
174 1 15.7255 9.43397 9.43464 -8.94718
6 1 7.8621 1.57241 1.57241 -8.94963
7 1 9.43453 5.64e-16 -9.85242e-07 -8.94964
8 1 11.007 1.57241 1.57241 -8.94964
173 1 12.5775 9.43078 9.42529 -8.93145
10 1 14.1518 1.57242 1.57241 -8.94963
172 1 9.3465 9.22576 9.43713 -8.17649
12 1 17.2966 1.57241 1.57241 -8.94961
188 1 17.2967 4.71715 11.007 -8.94954
14 1 20.4415 1.57242 1.57242 -8.94963
171 1 6.26737 9.4218 9.42562 -9.00002
16 1 1.57242 4.71726 1.57241 -8.94968
170 1 3.14071 9.43386 9.4336 -8.9525
18 1 4.71717 4.71716 1.57225 -8.94955
169 1 22.0134 9.43445 9.43444 -8.95029
20 1 7.86211 4.71719 1.57233 -8.94952
183 1 1.57229 4.71717 11.007 -8.94956
22 1 11.007 4.71718 1.57232 -8.94962
181 1 17.2967 1.57241 11.007 -8.94962
24 1 14.1518 4.71721 1.57237 -8.9498
168 1 18.8692 6.28956 9.43451 -8.94951
26 1 17.2968 4.71715 1.57231 -8.94921
167 1 15.7249 6.28883 9.4344 -8.94737
28 1 20.4415 4.71725 1.57241 -8.94962
166 1 12.5786 6.28917 9.43442 -8.95101
30 1 1.57241 7.8621 1.57241 -8.94962
165 1 9.43192 6.28555 9.43487 -8.99686
32 1 4.71722 7.86213 1.57235 -8.94971
164 1 6.28545 6.28444 9.43454 -8.94824
34 1 7.86191 7.86191 1.57169 -8.95076
35 1 9.43451 6.28961 -0.000105309 -8.94958
36 1 11.0068 7.86182 1.57176 -8.94961
37 1 12.5794 6.28963 -7.57191e-05 -8.94957
38 1 14.1522 7.86167 1.57146 -8.9504
163 1 3.14383 6.28906 9.43451 -8.94922
40 1 17.2967 7.86209 1.57235 -8.9497
162 1 22.0138 6.28961 9.43453 -8.94968
42 1 20.4415 7.86211 1.57241 -8.94963
158 1 9.43471 3.1434 9.43452 -8.94983
44 1 3.14483 9.43452 -1.40292e-05 -8.94963
161 1 18.8691 3.14483 9.43453 -8.94966
160 1 15.7243 3.14467 9.43452 -8.94956
159 1 12.5795 3.14457 9.43452 -8.9493
48 1 15.7243 9.43451 -0.000100412 -8.94954
157 1 6.28924 3.14382 9.43453 -8.94956
50 1 22.0139 1.09222e-15 3.14484 -8.94964
51 1 1.57241 1.57241 4.71726 -8.94967
52 1 3.14482 -5.18708e-16 3.14482 -8.9496
53 1 4.71717 1.57229 4.71717 -8.94964
54 1 6.28969 2.00942e-16 3.14484 -8.94964
55 1 7.86212 1.57235 4.71721 -8.94959
56 1 9.43453 1.55577e-15 3.14483 -8.94964
57 1 11.007 1.57232 4.71719 -8.9496
58 1 12.5794 4.6803e-16 3.14483 -8.94962
59 1 14.1518 1.5723 4.71721 -8.94979
60 1 15.7242 1.9314e-15 3.14483 -8.94965
61 1 17.2966 1.57241 4.71727 -8.94965
62 1 18.8691 1.57603e-15 3.14484 -8.94964
63 1 20.4415 1.57242 4.71726 -8.94964
64 1 22.0139 3.14483 3.14483 -8.9496
65 1 1.57224 4.71714 4.71714 -8.94948
66 1 3.14474 3.14474 3.14473 -8.94923
67 1 4.71634 4.71633 4.71631 -8.94683
68 1 6.28969 3.14479 3.14479 -8.94983
69 1 7.86215 4.71677 4.71689 -8.94994
70 1 9.43452 3.14474 3.14476 -8.94962
71 1 11.007 4.7166 4.71673 -8.94879
72 1 12.5794 3.14475 3.14477 -8.94952
73 1 14.1523 4.71621 4.71678 -8.95004
74 1 15.7243 3.14469 3.14475 -8.9496
75 1 17.2967 4.71719 4.71724 -8.94974
76 1 18.8691 3.14484 3.14484 -8.94966
77 1 20.4415 4.71725 4.71725 -8.94964
78 1 22.0139 6.28968 3.14483 -8.94966
79 1 1.57234 7.86211 4.71719 -8.94965
80 1 3.14477 6.28967 3.14476 -8.94991
81 1 4.7168 7.86216 4.71672 -8.95096
82 1 6.28911 6.28911 3.1437 -8.94979
83 1 7.85973 7.85974 4.71192 -8.95347
84 1 9.43448 6.28914 3.14419 -8.94869
85 1 11.0063 7.8604 4.71396 -8.95016
86 1 12.5793 6.28929 3.14437 -8.94971
87 1 14.1577 7.8561 4.71126 -8.93527
88 1 15.7252 6.28872 3.14389 -8.94691
89 1 17.2976 7.86166 4.71682 -8.95022
90 1 18.8692 6.2896 3.14476 -8.94963
91 1 20.4416 7.86207 4.71722 -8.94978
92 1 -2.75426e-06 9.43452 3.14482 -8.94963
93 1 3.14473 9.43451 3.14471 -8.94947
94 1 6.28946 9.43481 3.14442 -8.94981
95 1 9.43408 9.43416 3.14315 -8.94999
96 1 12.5805 9.43356 3.14033 -8.95588
97 1 15.7248 9.43434 3.14423 -8.94905
98 1 18.8692 9.43451 3.14477 -8.94955
99 1 22.0139 1.89718e-15 6.28969 -8.94964
100 1 1.57241 1.57241 7.86211 -8.94965
101 1 3.14483 3.73274e-16 6.28968 -8.94963
102 1 4.71718 1.5723 7.86208 -8.94959
103 1 6.28962 8.06584e-16 6.28961 -8.94994
104 1 7.86204 1.57188 7.86202 -8.95066
105 1 9.43456 1.20106e-15 6.28963 -8.94974
106 1 11.0071 1.57215 7.86202 -8.94967
107 1 12.5794 1.53409e-15 6.28964 -8.94984
108 1 14.1518 1.57235 7.86212 -8.94966
109 1 15.7242 2.0656e-15 6.28969 -8.94964
110 1 17.2967 1.5724 7.8621 -8.94962
111 1 18.8691 2.12981e-15 6.28968 -8.94963
112 1 20.4415 1.57242 7.86211 -8.94964
113 1 -8.05622e-06 3.14483 6.28969 -8.94964
114 1 1.5723 4.71717 7.86209 -8.94959
115 1 3.14476 3.14474 6.28965 -8.94973
116 1 4.7166 4.71641 7.86184 -8.94947
117 1 6.28927 3.14387 6.28924 -8.95034
118 1 7.86102 4.71268 7.86107 -8.95586
119 1 9.43471 3.1442 6.28941 -8.9496
120 1 11.0073 4.71586 7.86173 -8.94905
121 1 12.5795 3.14418 6.28952 -8.95063
122 1 14.1521 4.71676 7.86232 -8.94991
123 1 15.7243 3.14476 6.2897 -8.94968
124 1 17.2967 4.71715 7.86208 -8.94948
125 1 18.8691 3.14483 6.28968 -8.94963
126 1 20.4415 4.71724 7.8621 -8.94962
127 1 22.0137 6.28961 6.28961 -8.94975
128 1 1.57142 7.8618 7.8618 -8.95063
129 1 3.14355 6.28893 6.28893 -8.94927
130 1 4.71031 7.85874 7.85887 -8.95095
131 1 6.28366 6.28364 6.28352 -8.93367
132 1 7.83105 7.83406 7.8346 -8.86198
133 1 9.4353 6.28638 6.28813 -8.95105
134 1 11.015 7.85915 7.85057 -8.91923
135 1 12.5813 6.28496 6.28779 -8.95415
136 1 14.1553 7.85971 7.86221 -8.94722
137 1 15.7248 6.28914 6.28956 -8.9497
138 1 17.2974 7.86175 7.86219 -8.94986
139 1 18.8692 6.28961 6.28967 -8.94962
140 1 20.4415 7.86204 7.86208 -8.94984
141 1 22.0138 9.43452 6.28961 -8.94973
142 1 3.14416 9.43466 6.2892 -8.94943
143 1 6.28749 9.43637 6.2878 -8.95367
144 1 9.42487 9.42143 6.2839 -8.91638
145 1 12.6085 9.40891 6.26213 -8.87226
146 1 15.7291 9.43329 6.28828 -8.95524
147 1 18.8697 9.43445 6.28959 -8.95059
148 1 -1.072e-06 1.80154e-15 9.43453 -8.94964
149 1 3.14483 1.24399e-15 9.43453 -8.94963
150 1 6.2896 1.51577e-15 9.43453 -8.94983
151 1 9.43458 1.10018e-15 9.43452 -8.95004
152 1 12.5794 1.88642e-15 9.43453 -8.94962
153 1 15.7242 2.48798e-15 9.43453 -8.94967
154 1 18.8691 2.4528e-15 9.43453 -8.94964
155 1 22.0139 3.14483 9.43453 -8.94964
156 1 3.14475 3.14474 9.43453 -8.94967
177 1 4.71718 1.5723 11.007 -8.94957
184 1 4.71655 4.71644 11.0072 -8.94895
3 1 3.14484 -1.15304e-15 -4.1779e-07 -8.94965
11 1 15.7242 1.81153e-15 -1.85257e-07 -8.94963
41 1 18.8691 6.28969 -4.73286e-06 -8.94967
19 1 6.28969 3.14484 -5.28738e-06 -8.94963
25 1 15.7242 3.14484 -4.29906e-06 -8.94968
176 1 1.57241 1.57241 11.007 -8.94965
47 1 12.5794 9.43444 22.0134 -8.95069
178 1 7.86204 1.57187 11.007 -8.95062
179 1 11.007 1.57213 11.007 -8.94967
180 1 14.1518 1.57234 11.0069 -8.94966
343 1 18.8691 9.43453 18.8691 -8.94966
182 1 20.4415 1.57242 11.007 -8.94964
342 1 15.7243 9.4345 18.8692 -8.9495
46 1 9.43443 9.43445 22.0136 -8.94976
185 1 7.86099 4.71274 11.0079 -8.95531
186 1 11.0074 4.71574 11.0073 -8.9487
187 1 14.1522 4.71667 11.0066 -8.94957
341 1 12.5794 9.43443 18.8698 -8.9511
340 1 9.43442 9.43445 18.8693 -8.94969
190 1 1.57154 7.86188 11.007 -8.9505
191 1 4.71103 7.85984 11.0083 -8.95423
192 1 7.82976 7.8354 11.0353 -8.92102
193 1 11.0182 7.85913 11.0203 -8.97878
194 1 14.1554 7.85973 11.0048 -8.94926
195 1 17.2975 7.86164 11.0067 -8.94938
196 1 20.4415 7.86203 11.007 -8.9498
197 1 22.0139 1.25796e-15 12.5794 -8.94964
198 1 1.57241 1.57241 14.1518 -8.94966
199 1 3.14483 4.43932e-16 12.5794 -8.94962
200 1 4.71717 1.57226 14.1519 -8.94971
201 1 6.28962 1.10785e-15 12.5794 -8.94999
202 1 7.86212 1.57236 14.1519 -8.94953
203 1 9.43456 1.3947e-15 12.5794 -8.94976
204 1 11.007 1.57232 14.1519 -8.94956
205 1 12.5794 1.61075e-15 12.5794 -8.94994
206 1 14.1519 1.57227 14.1519 -8.94989
207 1 15.7242 1.64905e-15 12.5794 -8.94964
208 1 17.2966 1.57242 14.1518 -8.94964
209 1 18.8691 1.4969e-15 12.5794 -8.94963
210 1 20.4415 1.57242 14.1518 -8.94963
211 1 22.0139 3.14483 12.5794 -8.94963
212 1 1.57226 4.71716 14.1519 -8.94967
213 1 3.14476 3.14474 12.5794 -8.94967
214 1 4.71624 4.71608 14.1529 -8.94709
215 1 6.28929 3.14379 12.5798 -8.95066
216 1 7.86221 4.71692 14.1522 -8.9493
217 1 9.4347 3.14418 12.5797 -8.94963
218 1 11.0069 4.71663 14.1524 -8.94815
219 1 12.5795 3.14398 12.5795 -8.95124
220 1 14.1525 4.71577 14.1525 -8.95041
221 1 15.7243 3.14475 12.5793 -8.94962
222 1 17.2967 4.71719 14.1518 -8.9499
223 1 18.8691 3.14483 12.5794 -8.94963
224 1 20.4415 4.71725 14.1518 -8.94964
225 1 22.0138 6.28962 12.5794 -8.94976
226 1 1.572 7.86189 14.1521 -8.94949
227 1 3.14374 6.28906 12.5799 -8.95019
228 1 4.7153 7.86045 14.1539 -8.94579
229 1 6.28349 6.28268 12.5857 -8.93637
230 1 7.86145 7.8617 14.1553 -8.95699
231 1 9.43529 6.28666 12.5806 -8.94893
232 1 11.0043 7.86156 14.1541 -8.95101
233 1 12.5818 6.28268 12.5818 -8.95774
234 1 14.1609 7.85284 14.1609 -8.92357
235 1 15.7248 6.28915 12.5793 -8.95016
236 1 17.298 7.86152 14.1524 -8.95082
237 1 18.8692 6.2896 12.5794 -8.94955
238 1 20.4416 7.86205 14.1519 -8.94989
239 1 22.0136 9.43444 12.5795 -8.95006
240 1 3.14212 9.43375 12.5806 -8.94979
241 1 6.27718 9.42789 12.5887 -8.97716
242 1 9.42794 9.4305 12.5757 -9.06133
243 1 12.6234 9.39156 12.6218 -8.85338
244 1 15.7308 9.43322 12.5808 -8.95983
245 1 18.8698 9.43445 12.5794 -8.95115
246 1 -5.90939e-07 1.52163e-15 15.7242 -8.94964
247 1 1.57241 1.57241 17.2967 -8.94957
248 1 3.14482 -1.64282e-15 15.7242 -8.94961
249 1 4.71727 1.57242 17.2966 -8.94967
250 1 6.28969 8.51848e-16 15.7242 -8.94961
251 1 7.86211 1.57242 17.2966 -8.94964
252 1 9.43453 1.86012e-15 15.7242 -8.94962
253 1 11.0069 1.57242 17.2966 -8.94965
254 1 12.5794 2.0707e-15 15.7242 -8.9496
255 1 14.1518 1.57242 17.2966 -8.94962
256 1 15.7242 1.35347e-16 15.7242 -8.94967
257 1 17.2967 1.5724 17.2967 -8.9496
258 1 18.8691 3.2795e-16 15.7242 -8.94964
259 1 20.4415 1.57242 17.2966 -8.94964
260 1 22.0139 3.14483 15.7242 -8.94963
261 1 1.5724 4.71723 17.2967 -8.94955
262 1 3.14471 3.14469 15.7244 -8.94922
263 1 4.71724 4.71723 17.2967 -8.94977
264 1 6.28971 3.14482 15.7243 -8.94973
265 1 7.86212 4.7172 17.2967 -8.94957
266 1 9.43451 3.14477 15.7243 -8.94955
267 1 11.0069 4.7172 17.2967 -8.9497
268 1 12.5794 3.14477 15.7243 -8.94943
269 1 14.1517 4.71726 17.2966 -8.95002
270 1 15.7243 3.14462 15.7243 -8.9496
271 1 17.2968 4.7171 17.2968 -8.94899
272 1 18.8691 3.14484 15.7242 -8.9497
273 1 20.4415 4.71725 17.2967 -8.9496
274 1 22.0139 6.28964 15.7243 -8.94961
275 1 1.57241 7.8621 17.2967 -8.94967
276 1 3.14456 6.28942 15.7245 -8.94899
277 1 4.71717 7.86206 17.2969 -8.95004
278 1 6.28951 6.28946 15.725 -8.95066
279 1 7.86199 7.86191 17.2972 -8.95025
280 1 9.43439 6.28931 15.7247 -8.94861
281 1 11.0067 7.86176 17.2972 -8.94913
282 1 12.5789 6.28948 15.7245 -8.95058
283 1 14.1523 7.86154 17.298 -8.95093
284 1 15.7256 6.28826 15.7256 -8.94515
285 1 17.2967 7.86207 17.2967 -8.94969
286 1 18.8693 6.28957 15.7243 -8.94965
287 1 20.4415 7.86211 17.2966 -8.94962
288 1 22.0139 9.43452 15.7243 -8.9496
289 1 3.14468 9.43448 15.7245 -8.94952
290 1 6.28949 9.43478 15.7254 -8.95247
291 1 9.43409 9.43471 15.7254 -8.94803
292 1 12.5806 9.43333 15.7305 -8.95949
293 1 15.7251 9.43424 15.7251 -8.94848
294 1 18.8692 9.4345 15.7243 -8.94949
295 1 22.0139 -1.68712e-16 18.8691 -8.94962
296 1 1.57242 1.57242 20.4415 -8.94963
297 1 3.14485 -6.33454e-16 18.8691 -8.94965
298 1 4.71727 1.57242 20.4415 -8.94964
299 1 6.28969 6.80349e-16 18.8691 -8.94963
300 1 7.86211 1.57242 20.4415 -8.94964
301 1 9.43453 2.52851e-16 18.8691 -8.94964
302 1 11.007 1.57242 20.4415 -8.94963
303 1 12.5794 1.90117e-15 18.8691 -8.94964
304 1 14.1518 1.57242 20.4415 -8.94963
305 1 15.7242 1.13102e-15 18.8691 -8.94964
306 1 17.2966 1.57242 20.4415 -8.94966
307 1 18.8691 1.79607e-15 18.8691 -8.94962
308 1 20.4415 1.57242 20.4415 -8.94962
309 1 9.6015e-08 3.14484 18.8691 -8.94962
310 1 1.57242 4.71726 20.4415 -8.94964
311 1 3.14484 3.14484 18.8691 -8.94965
312 1 4.71725 4.71725 20.4415 -8.94964
313 1 6.28969 3.14484 18.8691 -8.94963
314 1 7.86211 4.71725 20.4415 -8.94962
315 1 9.43453 3.14483 18.8691 -8.94964
316 1 11.0069 4.71725 20.4415 -8.94964
317 1 12.5794 3.14483 18.8691 -8.94964
318 1 14.1518 4.71726 20.4415 -8.94962
319 1 15.7242 3.14485 18.8691 -8.94973
320 1 17.2967 4.71724 20.4415 -8.94959
321 1 18.8691 3.14483 18.8691 -8.94955
322 1 20.4415 4.71726 20.4415 -8.94965
323 1 22.0139 6.28969 18.8691 -8.94965
324 1 1.57242 7.86211 20.4415 -8.94963
325 1 3.14482 6.28967 18.8691 -8.94967
326 1 4.71725 7.86211 20.4415 -8.94969
327 1 6.28965 6.28963 18.8692 -8.94971
328 1 7.86206 7.86205 20.4415 -8.94982
329 1 9.4345 6.28961 18.8691 -8.94953
330 1 11.0069 7.86204 20.4415 -8.94971
331 1 12.5793 6.28963 18.8691 -8.9495
332 1 14.1519 7.86203 20.4415 -8.95002
333 1 15.7243 6.28956 18.8693 -8.94969
334 1 17.2967 7.8621 20.4415 -8.94961
335 1 18.8691 6.28968 18.8691 -8.94968
336 1 20.4415 7.86211 20.4415 -8.94964
337 1 22.0139 9.43453 18.8691 -8.94964
338 1 3.14482 9.43452 18.8691 -8.9496
339 1 6.28967 9.43454 18.8692 -8.94988
45 1 6.28965 9.43454 22.0138 -8.94965
5 1 6.28969 -1.4093e-16 22.0139 -8.94963
9 1 12.5794 -8.0684e-16 22.0139 -8.94964
39 1 15.7243 6.28959 22.0138 -8.94966
15 1 22.0139 3.14484 22.0139 -8.94963
17 1 3.14483 3.14483 22.0139 -8.94961
33 1 6.28963 6.28963 22.0138 -8.94979
31 1 3.14484 6.28969 22.0139 -8.94966
27 1 18.8691 3.14483 22.0139 -8.94958
29 1 -5.8821e-07 6.28969 22.0139 -8.94963
1 1 -1.05899e-06 4.21896e-16 22.0139 -8.94963
13 1 18.8691 1.53038e-15 22.0139 -8.94963
21 1 9.43453 3.14483 22.0139 -8.94964
23 1 12.5794 3.14483 22.0139 -8.94964
43 1 22.0139 9.43453 22.0139 -8.94964
49 1 18.8691 9.43453 22.0139 -8.94965
344 1 1.57241 11.007 1.57241 -8.94965
345 1 4.71716 11.007 1.57226 -8.94965
346 1 7.86196 11.007 1.5722 -8.94899
347 1 11.0068 11.007 1.57095 -8.94977
348 1 14.1522 11.007 1.57151 -8.94932
349 1 17.2967 11.007 1.57234 -8.94968
350 1 20.4415 11.007 1.57241 -8.94963
538 1 17.2967 20.4415 11.007 -8.94962
352 1 1.57241 14.1518 1.57241 -8.94962
353 1 3.14483 12.5794 -1.40292e-05 -8.94963
354 1 4.71722 14.1518 1.57235 -8.94971
688 3 10.2224 11.007 9.47659 2.30723
356 1 7.86191 14.152 1.57169 -8.95076
511 1 18.8691 18.8691 9.43453 -8.94966
358 1 11.0068 14.1521 1.57176 -8.94961
510 1 15.7243 18.8692 9.43452 -8.94956
360 1 14.1522 14.1522 1.57146 -8.9504
361 1 15.7243 12.5794 -0.000100412 -8.94954
362 1 17.2967 14.1518 1.57235 -8.9497
532 1 20.4415 17.2967 11.007 -8.94963
364 1 20.4415 14.1518 1.57241 -8.94963
509 1 12.5795 18.8693 9.43452 -8.9493
366 1 1.57242 17.2966 1.57241 -8.94968
508 1 9.43471 18.8705 9.43452 -8.94983
368 1 4.71717 17.2967 1.57225 -8.94955
507 1 6.28924 18.8701 9.43453 -8.94956
370 1 7.86211 17.2967 1.57233 -8.94952
371 1 9.43451 15.7243 -0.000105309 -8.94958
372 1 11.007 17.2967 1.57232 -8.94962
373 1 12.5794 15.7243 -7.57191e-05 -8.94957
374 1 14.1518 17.2967 1.57237 -8.9498
506 1 3.14475 18.8692 9.43453 -8.94967
376 1 17.2968 17.2968 1.57231 -8.94921
505 1 22.0139 18.8691 9.43453 -8.94964
378 1 20.4415 17.2966 1.57241 -8.94962
504 1 18.8692 15.7243 9.43451 -8.94951
380 1 1.57241 20.4415 1.57241 -8.94958
503 1 15.7249 15.7251 9.4344 -8.94737
382 1 4.71727 20.4415 1.57242 -8.94968
502 1 12.5786 15.7247 9.43442 -8.95101
384 1 7.8621 20.4415 1.57241 -8.94963
531 1 17.2967 17.2968 11.007 -8.94954
386 1 11.007 20.4415 1.57241 -8.94964
687 2 9.4711 11.007 10.9591 0.541538
388 1 14.1518 20.4415 1.57241 -8.94963
501 1 9.43192 15.7284 9.43487 -8.99686
390 1 17.2966 20.4415 1.57241 -8.94961
500 1 6.28545 15.7295 9.43454 -8.94824
392 1 20.4415 20.4415 1.57242 -8.94963
393 1 1.57228 11.007 4.71714 -8.9496
394 1 4.71655 11.007 4.71633 -8.9478
395 1 7.86279 11.007 4.71752 -8.94716
396 1 11.0093 11.007 4.713 -8.99338
397 1 14.1558 11.007 4.71307 -8.94536
398 1 17.2975 11.007 4.71681 -8.94925
399 1 20.4416 11.007 4.71721 -8.9497
400 1 -2.75426e-06 12.5794 3.14482 -8.94963
401 1 1.57234 14.1518 4.71719 -8.94965
402 1 3.14473 12.5794 3.14471 -8.94947
403 1 4.7168 14.1517 4.71672 -8.95096
404 1 6.28946 12.5791 3.14442 -8.94981
405 1 7.85973 14.1542 4.71192 -8.95347
406 1 9.43408 12.5797 3.14315 -8.94999
407 1 11.0063 14.1535 4.71396 -8.95016
408 1 12.5805 12.5803 3.14033 -8.95588
409 1 14.1577 14.1578 4.71126 -8.93527
410 1 15.7248 12.5796 3.14423 -8.94905
411 1 17.2976 14.1522 4.71682 -8.95022
412 1 18.8692 12.5794 3.14477 -8.94955
413 1 20.4416 14.1518 4.71722 -8.94978
414 1 22.0139 15.7242 3.14483 -8.94966
415 1 1.57224 17.2968 4.71714 -8.94948
416 1 3.14477 15.7242 3.14476 -8.94991
417 1 4.71634 17.2976 4.71631 -8.94683
418 1 6.28911 15.7248 3.1437 -8.94979
419 1 7.86215 17.2971 4.71689 -8.94994
420 1 9.43448 15.7248 3.14419 -8.94869
421 1 11.007 17.2973 4.71673 -8.94879
422 1 12.5793 15.7246 3.14437 -8.94971
423 1 14.1523 17.2977 4.71678 -8.95004
424 1 15.7252 15.7252 3.14389 -8.94691
425 1 17.2967 17.2967 4.71724 -8.94974
426 1 18.8692 15.7243 3.14476 -8.94963
427 1 20.4415 17.2967 4.71725 -8.94964
428 1 22.0139 18.8691 3.14483 -8.9496
429 1 1.57241 20.4415 4.71726 -8.94967
430 1 3.14474 18.8692 3.14473 -8.94923
431 1 4.71717 20.4416 4.71717 -8.94964
432 1 6.28969 18.8691 3.14479 -8.94983
433 1 7.86212 20.4416 4.71721 -8.94959
434 1 9.43452 18.8692 3.14476 -8.94962
435 1 11.007 20.4416 4.71719 -8.9496
436 1 12.5794 18.8692 3.14477 -8.94952
437 1 14.1518 20.4416 4.71721 -8.94979
438 1 15.7243 18.8692 3.14475 -8.9496
439 1 17.2966 20.4415 4.71727 -8.94965
440 1 18.8691 18.8691 3.14484 -8.94966
441 1 20.4415 20.4415 4.71726 -8.94964
442 1 1.57182 11.007 7.86177 -8.94886
443 1 4.71556 11.007 7.8604 -8.94103
444 1 7.87237 11.007 7.86845 -8.97487
445 1 11.0836 11.007 7.66299 -8.20802
446 1 14.1621 11.007 7.85789 -8.96815
447 1 17.2986 11.007 7.86222 -8.95147
448 1 20.4417 11.007 7.86209 -8.94996
449 1 22.0138 12.5794 6.28961 -8.94973
450 1 1.57142 14.1521 7.8618 -8.95063
451 1 3.14416 12.5792 6.2892 -8.94943
452 1 4.71031 14.1552 7.85887 -8.95095
453 1 6.28749 12.5775 6.2878 -8.95367
454 1 7.83105 14.1798 7.8346 -8.86198
455 1 9.42487 12.5925 6.2839 -8.91638
456 1 11.015 14.1548 7.85057 -8.91923
457 1 12.6085 12.605 6.26213 -8.87226
458 1 14.1553 14.1542 7.86221 -8.94722
459 1 15.7291 12.5806 6.28828 -8.95524
460 1 17.2974 14.1522 7.86219 -8.94986
461 1 18.8697 12.5795 6.28959 -8.95059
462 1 20.4415 14.1519 7.86208 -8.94984
463 1 22.0137 15.7243 6.28961 -8.94975
464 1 1.5723 17.2967 7.86209 -8.94959
465 1 3.14355 15.725 6.28893 -8.94927
466 1 4.7166 17.2975 7.86184 -8.94947
467 1 6.28366 15.7303 6.28352 -8.93367
468 1 7.86102 17.3012 7.86107 -8.95586
469 1 9.4353 15.7275 6.28813 -8.95105
470 1 11.0073 17.298 7.86173 -8.94905
471 1 12.5813 15.7289 6.28779 -8.95415
472 1 14.1521 17.2971 7.86232 -8.94991
473 1 15.7248 15.7248 6.28956 -8.9497
474 1 17.2967 17.2968 7.86208 -8.94948
475 1 18.8692 15.7243 6.28967 -8.94962
476 1 20.4415 17.2967 7.8621 -8.94962
477 1 -8.05622e-06 18.8691 6.28969 -8.94964
478 1 1.57241 20.4415 7.86211 -8.94965
479 1 3.14476 18.8692 6.28965 -8.94973
480 1 4.71718 20.4416 7.86208 -8.94959
481 1 6.28927 18.87 6.28924 -8.95034
482 1 7.86204 20.442 7.86202 -8.95066
483 1 9.43471 18.8697 6.28941 -8.9496
484 1 11.0071 20.4418 7.86202 -8.94967
485 1 12.5795 18.8697 6.28952 -8.95063
486 1 14.1518 20.4415 7.86212 -8.94966
487 1 15.7243 18.8691 6.2897 -8.94968
488 1 17.2967 20.4415 7.8621 -8.94962
489 1 18.8691 18.8691 6.28968 -8.94963
490 1 20.4415 20.4415 7.86211 -8.94964
491 1 22.0134 12.5794 9.43444 -8.95029
492 1 3.14071 12.58 9.4336 -8.9525
493 1 6.26737 12.5921 9.42562 -9.00002
494 1 9.3465 12.7881 9.43713 -8.17649
495 1 12.5775 12.5831 9.42529 -8.93145
496 1 15.7255 12.5799 9.43464 -8.94718
497 1 18.8695 12.5796 9.43452 -8.94938
498 1 22.0138 15.7243 9.43453 -8.94968
499 1 3.14383 15.7248 9.43451 -8.94922
526 1 1.57229 17.2967 11.007 -8.94956
527 1 4.71655 17.2975 11.0072 -8.94895
534 1 4.71718 20.4416 11.007 -8.94957
389 1 15.7242 18.8691 -4.29906e-06 -8.94968
383 1 6.28969 18.8691 -5.28738e-06 -8.94963
377 1 18.8691 15.7242 -4.73286e-06 -8.94967
512 1 1.57023 11.007 11.0071 -8.95258
513 1 4.70222 11.007 11.0077 -8.96974
514 1 7.76016 11.007 10.9993 -9.14767
515 1 11.2113 11.007 11.2127 -8.31666
516 1 14.1546 11.007 11.012 -8.99693
517 1 17.2982 11.007 11.0066 -8.94902
518 1 20.4415 11.007 11.0069 -8.95022
519 1 1.57154 14.152 11.007 -8.9505
520 1 4.71103 14.1541 11.0083 -8.95423
521 1 7.82976 14.1785 11.0353 -8.92102
522 1 11.0182 14.1548 11.0203 -8.97878
523 1 14.1554 14.1542 11.0048 -8.94926
524 1 17.2975 14.1523 11.0067 -8.94938
525 1 20.4415 14.1519 11.007 -8.9498
686 1 20.4415 20.4415 20.4415 -8.94962
391 1 18.8691 18.8691 22.0139 -8.94958
528 1 7.86099 17.3012 11.0079 -8.95531
529 1 11.0074 17.2982 11.0073 -8.9487
530 1 14.1522 17.2972 11.0066 -8.94957
685 1 18.8691 18.8691 18.8691 -8.94955
684 1 17.2966 20.4415 20.4415 -8.94966
533 1 1.57241 20.4415 11.007 -8.94965
381 1 3.14483 18.8691 22.0139 -8.94961
535 1 7.86204 20.442 11.007 -8.95062
536 1 11.007 20.4418 11.007 -8.94967
537 1 14.1518 20.4416 11.0069 -8.94966
683 1 15.7242 18.8691 18.8691 -8.94973
539 1 20.4415 20.4415 11.007 -8.94964
540 1 1.57206 11.007 14.152 -8.94939
541 1 4.71565 11.007 14.1533 -8.94642
542 1 7.86219 11.007 14.1488 -9.00723
543 1 11.0115 11.007 14.1544 -9.05625
544 1 14.1579 11.007 14.158 -8.94319
545 1 17.2979 11.007 14.1524 -8.94912
546 1 20.4416 11.007 14.1519 -8.94975
547 1 22.0136 12.5795 12.5795 -8.95006
548 1 1.572 14.152 14.1521 -8.94949
549 1 3.14212 12.5802 12.5806 -8.94979
550 1 4.7153 14.1534 14.1539 -8.94579
551 1 6.27718 12.586 12.5887 -8.97716
552 1 7.86145 14.1522 14.1553 -8.95699
553 1 9.42794 12.5834 12.5757 -9.06133
554 1 11.0043 14.1523 14.1541 -8.95101
555 1 12.6234 12.6223 12.6218 -8.85338
556 1 14.1609 14.1611 14.1609 -8.92357
557 1 15.7308 12.5807 12.5808 -8.95983
558 1 17.298 14.1524 14.1524 -8.95082
559 1 18.8698 12.5795 12.5794 -8.95115
560 1 20.4416 14.1519 14.1519 -8.94989
561 1 22.0138 15.7243 12.5794 -8.94976
562 1 1.57226 17.2967 14.1519 -8.94967
563 1 3.14374 15.7248 12.5799 -8.95019
564 1 4.71624 17.2978 14.1529 -8.94709
565 1 6.28349 15.7312 12.5857 -8.93637
566 1 7.86221 17.297 14.1522 -8.9493
567 1 9.43529 15.7272 12.5806 -8.94893
568 1 11.0069 17.2973 14.1524 -8.94815
569 1 12.5818 15.7312 12.5818 -8.95774
570 1 14.1525 17.2981 14.1525 -8.95041
571 1 15.7248 15.7247 12.5793 -8.95016
572 1 17.2967 17.2967 14.1518 -8.9499
573 1 18.8692 15.7243 12.5794 -8.94955
574 1 20.4415 17.2967 14.1518 -8.94964
575 1 22.0139 18.8691 12.5794 -8.94963
576 1 1.57241 20.4415 14.1518 -8.94966
577 1 3.14476 18.8692 12.5794 -8.94967
578 1 4.71717 20.4416 14.1519 -8.94971
579 1 6.28929 18.8701 12.5798 -8.95066
580 1 7.86212 20.4415 14.1519 -8.94953
581 1 9.4347 18.8697 12.5797 -8.94963
582 1 11.007 20.4416 14.1519 -8.94956
583 1 12.5795 18.8699 12.5795 -8.95124
584 1 14.1519 20.4416 14.1519 -8.94989
585 1 15.7243 18.8692 12.5793 -8.94962
586 1 17.2966 20.4415 14.1518 -8.94964
587 1 18.8691 18.8691 12.5794 -8.94963
588 1 20.4415 20.4415 14.1518 -8.94963
589 1 1.5724 11.007 17.2967 -8.94968
590 1 4.71708 11.007 17.297 -8.94951
591 1 7.86198 11.007 17.2967 -8.94798
592 1 11.0067 11.007 17.2981 -8.9488
593 1 14.1524 11.007 17.2979 -8.94931
594 1 17.2967 11.007 17.2967 -8.9497
595 1 20.4415 11.007 17.2966 -8.94963
596 1 22.0139 12.5794 15.7243 -8.9496
597 1 1.57241 14.1518 17.2967 -8.94967
598 1 3.14468 12.5794 15.7245 -8.94952
599 1 4.71717 14.1518 17.2969 -8.95004
600 1 6.28949 12.5791 15.7254 -8.95247
601 1 7.86199 14.152 17.2972 -8.95025
602 1 9.43409 12.5792 15.7254 -8.94803
603 1 11.0067 14.1521 17.2972 -8.94913
604 1 12.5806 12.5806 15.7305 -8.95949
605 1 14.1523 14.1524 17.298 -8.95093
606 1 15.7251 12.5797 15.7251 -8.94848
607 1 17.2967 14.1518 17.2967 -8.94969
608 1 18.8692 12.5794 15.7243 -8.94949
609 1 20.4415 14.1518 17.2966 -8.94962
610 1 22.0139 15.7243 15.7243 -8.94961
611 1 1.5724 17.2967 17.2967 -8.94955
612 1 3.14456 15.7245 15.7245 -8.94899
613 1 4.71724 17.2967 17.2967 -8.94977
614 1 6.28951 15.7244 15.725 -8.95066
615 1 7.86212 17.2967 17.2967 -8.94957
616 1 9.43439 15.7246 15.7247 -8.94861
617 1 11.0069 17.2967 17.2967 -8.9497
618 1 12.5789 15.7244 15.7245 -8.95058
619 1 14.1517 17.2966 17.2966 -8.95002
620 1 15.7256 15.7256 15.7256 -8.94515
621 1 17.2968 17.2968 17.2968 -8.94899
622 1 18.8693 15.7243 15.7243 -8.94965
623 1 20.4415 17.2967 17.2967 -8.9496
624 1 22.0139 18.8691 15.7242 -8.94963
625 1 1.57241 20.4415 17.2967 -8.94957
626 1 3.14471 18.8692 15.7244 -8.94922
627 1 4.71727 20.4415 17.2966 -8.94967
628 1 6.28971 18.8691 15.7243 -8.94973
629 1 7.86211 20.4415 17.2966 -8.94964
630 1 9.43451 18.8691 15.7243 -8.94955
631 1 11.0069 20.4415 17.2966 -8.94965
632 1 12.5794 18.8691 15.7243 -8.94943
633 1 14.1518 20.4415 17.2966 -8.94962
634 1 15.7243 18.8693 15.7243 -8.9496
635 1 17.2967 20.4415 17.2967 -8.9496
636 1 18.8691 18.8691 15.7242 -8.9497
637 1 20.4415 20.4415 17.2966 -8.94964
638 1 1.57242 11.007 20.4415 -8.94963
639 1 4.71725 11.007 20.4415 -8.9497
640 1 7.86207 11.007 20.4415 -8.94952
641 1 11.0069 11.007 20.4415 -8.95001
642 1 14.1519 11.007 20.4415 -8.94984
643 1 17.2967 11.007 20.4415 -8.94963
644 1 20.4415 11.007 20.4415 -8.94964
645 1 22.0139 12.5794 18.8691 -8.94964
646 1 1.57242 14.1518 20.4415 -8.94963
647 1 3.14482 12.5794 18.8691 -8.9496
648 1 4.71725 14.1518 20.4415 -8.94969
649 1 6.28967 12.5794 18.8692 -8.94988
650 1 7.86206 14.1518 20.4415 -8.94982
651 1 9.43442 12.5795 18.8693 -8.94969
652 1 11.0069 14.1519 20.4415 -8.94971
653 1 12.5794 12.5795 18.8698 -8.9511
654 1 14.1519 14.1519 20.4415 -8.95002
655 1 15.7243 12.5794 18.8692 -8.9495
656 1 17.2967 14.1518 20.4415 -8.94961
657 1 18.8691 12.5794 18.8691 -8.94966
658 1 20.4415 14.1518 20.4415 -8.94964
659 1 22.0139 15.7242 18.8691 -8.94965
660 1 1.57242 17.2966 20.4415 -8.94964
661 1 3.14482 15.7242 18.8691 -8.94967
662 1 4.71725 17.2967 20.4415 -8.94964
663 1 6.28965 15.7243 18.8692 -8.94971
664 1 7.86211 17.2967 20.4415 -8.94962
665 1 9.4345 15.7243 18.8691 -8.94953
666 1 11.0069 17.2966 20.4415 -8.94964
667 1 12.5793 15.7243 18.8691 -8.9495
668 1 14.1518 17.2966 20.4415 -8.94962
669 1 15.7243 15.7243 18.8693 -8.94969
670 1 17.2967 17.2967 20.4415 -8.94959
671 1 18.8691 15.7242 18.8691 -8.94968
672 1 20.4415 17.2966 20.4415 -8.94965
673 1 9.6015e-08 18.8691 18.8691 -8.94962
674 1 1.57242 20.4415 20.4415 -8.94963
675 1 3.14484 18.8691 18.8691 -8.94965
676 1 4.71727 20.4415 20.4415 -8.94964
677 1 6.28969 18.8691 18.8691 -8.94963
678 1 7.86211 20.4415 20.4415 -8.94964
679 1 9.43453 18.8691 18.8691 -8.94964
680 1 11.007 20.4415 20.4415 -8.94963
681 1 12.5794 18.8691 18.8691 -8.94964
682 1 14.1518 20.4415 20.4415 -8.94963
355 1 6.28965 12.5794 22.0138 -8.94965
357 1 9.43443 12.5795 22.0136 -8.94976
359 1 12.5794 12.5795 22.0134 -8.95069
365 1 -5.8821e-07 15.7242 22.0139 -8.94963
367 1 3.14484 15.7242 22.0139 -8.94966
369 1 6.28963 15.7243 22.0138 -8.94979
375 1 15.7243 15.7243 22.0138 -8.94966
379 1 22.0139 18.8691 22.0139 -8.94963
351 1 22.0139 12.5794 22.0139 -8.94964
363 1 18.8691 12.5794 22.0139 -8.94965
385 1 9.43453 18.8691 22.0139 -8.94964
387 1 12.5794 18.8691 22.0139 -8.94964
