ITEM: TIMESTEP
65
ITEM: NUMBER OF ATOMS
688
ITEM: BOX BOUNDS pp pp pp
0.0000000000000000e+00 2.2013900999999997e+01
0.0000000000000000e+00 2.2013900999999997e+01
0.0000000000000000e+00 2.2013900999999997e+01
ITEM: ATOMS id type x y z c_pot
189 1 20.4413 4.71637 11.007 -8.9495
2 1 1.57197 1.57212 1.57192 -8.94924
175 1 18.8687 9.43439 9.43456 -8.94845
4 1 4.71695 1.57204 1.57185 -8.94964
174 1 15.7221 9.43623 9.43602 -8.94955
6 1 7.86204 1.57204 1.57189 -8.94949
7 1 9.43452 -7.16853e-16 -0.000223779 -8.94956
8 1 11.007 1.57203 1.57192 -8.94953
173 1 12.5741 9.42897 9.42187 -8.92609
10 1 14.152 1.57203 1.57203 -8.9495
172 1 9.34785 9.21583 9.44235 -8.2376
12 1 17.297 1.57197 1.57203 -8.94958
188 1 17.2978 4.71589 11.0067 -8.94904
14 1 20.4415 1.57217 1.57221 -8.9495
171 1 6.25929 9.41676 9.42489 -9.00207
16 1 1.57199 4.71689 1.57177 -8.94984
170 1 3.13416 9.43225 9.43191 -8.95208
18 1 4.7162 4.71619 1.5707 -8.94944
169 1 22.0108 9.43407 9.43395 -8.95025
20 1 7.86179 4.71629 1.57117 -8.94917
183 1 1.5703 4.71561 11.0074 -8.94927
22 1 11.007 4.71622 1.57133 -8.94938
181 1 17.2971 1.57196 11.0069 -8.94953
24 1 14.1523 4.7161 1.57133 -8.94963
168 1 18.8698 6.28852 9.43421 -8.94934
26 1 17.2979 4.71592 1.57133 -8.94845
167 1 15.7266 6.28718 9.43358 -8.94465
28 1 20.4418 4.71682 1.57199 -8.94958
166 1 12.5776 6.28938 9.43412 -8.95011
30 1 1.5721 7.86199 1.5718 -8.94945
165 1 9.4283 6.29322 9.43724 -9.00209
32 1 4.71684 7.86223 1.57143 -8.9499
164 1 6.27769 6.2781 9.43454 -8.94645
34 1 7.86174 7.86173 1.5703 -8.95201
35 1 9.4342 6.28896 -0.000800219 -8.94958
36 1 11.0067 7.8611 1.57019 -8.95011
37 1 12.5794 6.28892 -0.000768763 -8.94959
38 1 14.1534 7.86053 1.56915 -8.95146
163 1 3.13889 6.28588 9.43398 -8.94882
40 1 17.298 7.86131 1.57123 -8.94921
162 1 22.0121 6.28846 9.43428 -8.94983
42 1 20.4419 7.86184 1.5719 -8.94947
158 1 9.43424 3.14422 9.43459 -8.94692
44 1 3.14448 9.43449 -0.000340397 -8.94965
161 1 18.8694 3.14415 9.4344 -8.94953
160 1 15.725 3.14364 9.43421 -8.94937
159 1 12.5793 3.14435 9.43444 -8.94927
48 1 15.7254 9.43409 -0.000826862 -8.94945
157 1 6.28747 3.14076 9.4346 -8.95025
50 1 22.0136 1.3883e-15 3.14457 -8.94954
51 1 1.57174 1.57192 4.71672 -8.9495
52 1 3.14424 9.31325e-16 3.14415 -8.94954
53 1 4.71638 1.57129 4.7162 -8.94996
54 1 6.28951 1.19127e-15 3.1442 -8.94958
55 1 7.86208 1.57146 4.71645 -8.94964
56 1 9.43464 8.51023e-16 3.14422 -8.94954
57 1 11.0073 1.57162 4.71657 -8.94959
58 1 12.5796 5.94034e-16 3.14435 -8.94952
59 1 14.1522 1.57165 4.71696 -8.95048
60 1 15.7246 2.58539e-15 3.14452 -8.95001
61 1 17.2969 1.57204 4.71713 -8.94971
62 1 18.8692 1.14899e-15 3.1447 -8.94967
63 1 20.4414 1.57216 4.71708 -8.94952
64 1 22.0134 3.14429 3.14427 -8.9494
65 1 1.5705 4.71583 4.71574 -8.94911
66 1 3.14353 3.14359 3.14338 -8.94839
67 1 4.71335 4.71326 4.71311 -8.94509
68 1 6.28914 3.14357 3.14356 -8.9497
69 1 7.86115 4.7141 4.71491 -8.94942
70 1 9.43455 3.14367 3.14379 -8.9494
71 1 11.0073 4.71469 4.71531 -8.94824
72 1 12.5797 3.14368 3.14398 -8.94919
73 1 14.1538 4.71354 4.71515 -8.95068
74 1 15.7251 3.14337 3.14392 -8.94972
75 1 17.2978 4.71594 4.71657 -8.94975
76 1 18.8694 3.14422 3.14447 -8.94965
77 1 20.4413 4.71661 4.71679 -8.94979
78 1 22.0137 6.28932 3.14417 -8.94978
79 1 1.5712 7.8618 4.71601 -8.94973
80 1 3.14361 6.28908 3.14327 -8.95049
81 1 4.71464 7.86147 4.71449 -8.95234
82 1 6.28712 6.28708 3.1404 -8.94989
83 1 7.85644 7.85619 4.70818 -8.95336
84 1 9.43408 6.28751 3.14218 -8.94788
85 1 11.0071 7.85827 4.71104 -8.94946
86 1 12.5802 6.28749 3.14203 -8.94913
87 1 14.1624 7.85212 4.70632 -8.93525
88 1 15.728 6.28583 3.14102 -8.94584
89 1 17.3004 7.86022 4.71528 -8.95055
90 1 18.8704 6.28872 3.14391 -8.94967
91 1 20.4421 7.86164 4.71655 -8.95001
92 1 -7.98706e-05 9.43439 3.14403 -8.94953
93 1 3.14389 9.43445 3.14342 -8.94905
94 1 6.28933 9.43516 3.1437 -8.94948
95 1 9.43481 9.43435 3.14359 -8.95078
96 1 12.5819 9.43326 3.13778 -8.95815
97 1 15.7277 9.43326 3.14137 -8.94788
98 1 18.8705 9.43415 3.14378 -8.94933
99 1 22.0136 -8.73812e-16 6.28949 -8.94955
100 1 1.57167 1.57185 7.86188 -8.94953
101 1 3.14406 5.98593e-16 6.28919 -8.94957
102 1 4.71615 1.57101 7.86163 -8.94972
103 1 6.28931 1.30432e-15 6.2891 -8.95054
104 1 7.862 1.57089 7.86191 -8.95115
105 1 9.43483 1.25395e-15 6.28923 -8.95006
106 1 11.007 1.57206 7.86213 -8.9491
107 1 12.5795 -9.91901e-17 6.28961 -8.9501
108 1 14.1521 1.57195 7.86211 -8.94969
109 1 15.7245 1.95991e-15 6.28964 -8.94968
110 1 17.297 1.572 7.86197 -8.94947
111 1 18.8692 1.8636e-15 6.28957 -8.94951
112 1 20.4414 1.5721 7.862 -8.94955
113 1 -0.000648454 3.14412 6.28928 -8.94944
114 1 1.57031 4.71554 7.86137 -8.94927
115 1 3.14318 3.14302 6.28856 -8.94936
116 1 4.71302 4.71241 7.86016 -8.94858
117 1 6.28811 3.14126 6.28802 -8.95132
118 1 7.85909 4.71 7.86097 -8.9581
119 1 9.43472 3.14256 6.28871 -8.95023
120 1 11.0056 4.71692 7.86236 -8.94967
121 1 12.5795 3.14321 6.2895 -8.9517
122 1 14.1523 4.71568 7.86216 -8.94991
123 1 15.7247 3.14385 6.28959 -8.94976
124 1 17.2975 4.71614 7.86179 -8.94868
125 1 18.8693 3.14427 6.2895 -8.94938
126 1 20.4412 4.71641 7.86181 -8.94944
127 1 22.0123 6.28867 6.28874 -8.95001
128 1 1.56764 7.86034 7.86036 -8.95126
129 1 3.13927 6.28606 6.28604 -8.94881
130 1 4.70221 7.85383 7.85524 -8.95149
131 1 6.2777 6.27789 6.27847 -8.93206
132 1 7.82248 7.83014 7.83377 -8.86602
133 1 9.4334 6.28313 6.28651 -8.95168
134 1 11.0138 7.86178 7.84842 -8.9271
135 1 12.5829 6.28266 6.28534 -8.95504
136 1 14.1575 7.85793 7.85986 -8.94684
137 1 15.727 6.28715 6.28835 -8.94956
138 1 17.2981 7.86165 7.86264 -8.95136
139 1 18.8696 6.28898 6.28945 -8.95015
140 1 20.4407 7.86153 7.86178 -8.95012
141 1 22.013 9.43433 6.28874 -8.94967
142 1 3.14176 9.43454 6.28753 -8.94928
143 1 6.28508 9.43656 6.28742 -8.95589
144 1 9.42033 9.41591 6.28534 -8.91329
145 1 12.6122 9.40774 6.25737 -8.88201
146 1 15.7327 9.43229 6.28614 -8.95556
147 1 18.8711 9.43416 6.28904 -8.95117
148 1 -0.000350938 1.82007e-15 9.43451 -8.94956
149 1 3.14399 1.42088e-15 9.4345 -8.94955
150 1 6.28907 1.56641e-15 9.43455 -8.95046
151 1 9.43478 1.68231e-15 9.43445 -8.94849
152 1 12.5796 1.99233e-15 9.43447 -8.94938
153 1 15.7247 2.03727e-15 9.4344 -8.94969
154 1 18.8692 2.59423e-15 9.43448 -8.94957
155 1 22.0133 3.14407 9.43447 -8.94949
156 1 3.14308 3.14295 9.43444 -8.94945
177 1 4.71611 1.571 11.0074 -8.94957
184 1 4.71271 4.71253 11.0085 -8.9476
3 1 3.14466 1.2081e-15 -0.000231565 -8.94961
11 1 15.7243 -2.32422e-16 -0.000150415 -8.94956
41 1 18.8697 6.28925 -0.000265543 -8.94948
19 1 6.28947 3.1444 -0.00040785 -8.94949
25 1 15.7245 3.14429 -0.000286502 -8.94966
176 1 1.57166 1.57185 11.0071 -8.9495
47 1 12.5794 9.43437 22.0127 -8.95144
178 1 7.86206 1.5709 11.0072 -8.95119
179 1 11.0069 1.57189 11.0068 -8.94919
180 1 14.1522 1.5717 11.0067 -8.94967
343 1 18.8699 9.43431 18.8698 -8.94941
182 1 20.4414 1.5721 11.007 -8.94956
342 1 15.7258 9.43394 18.8712 -8.94919
46 1 9.43432 9.43458 22.0133 -8.94908
185 1 7.8587 4.71006 11.0089 -8.95811
186 1 11.0061 4.71618 11.0073 -8.94977
187 1 14.1531 4.71479 11.0059 -8.94897
341 1 12.5794 9.43435 18.8718 -8.95301
340 1 9.43428 9.43479 18.8686 -8.948
190 1 1.56741 7.8606 11.0073 -8.95136
191 1 4.70137 7.85578 11.0098 -8.95504
192 1 7.81634 7.82978 11.0416 -8.91402
193 1 11.0273 7.85873 11.0303 -8.97186
194 1 14.1603 7.85617 11.0046 -8.94778
195 1 17.2993 7.86065 11.0061 -8.95036
196 1 20.441 7.86137 11.0068 -8.95024
197 1 22.0136 1.57502e-15 12.5795 -8.94955
198 1 1.57174 1.57188 14.1523 -8.94952
199 1 3.14404 7.20091e-16 12.5798 -8.9495
200 1 4.71633 1.5711 14.1529 -8.95024
201 1 6.28934 1.99276e-15 12.5799 -8.95081
202 1 7.86213 1.57163 14.1525 -8.94935
203 1 9.43476 2.15958e-15 12.5798 -8.94963
204 1 11.007 1.57149 14.1525 -8.94956
205 1 12.5795 5.35216e-16 12.5794 -8.95087
206 1 14.1523 1.57099 14.1523 -8.95114
207 1 15.7246 2.9946e-15 12.5793 -8.94962
208 1 17.297 1.57191 14.1519 -8.94966
209 1 18.8692 1.70547e-15 12.5794 -8.94953
210 1 20.4414 1.57213 14.1519 -8.94953
211 1 22.0133 3.1441 12.5797 -8.94944
212 1 1.57051 4.71569 14.1532 -8.94964
213 1 3.14314 3.14299 12.5803 -8.94924
214 1 4.7127 4.7122 14.1565 -8.94515
215 1 6.28794 3.14089 12.5812 -8.95203
216 1 7.86151 4.71512 14.1538 -8.94896
217 1 9.43464 3.1431 12.5803 -8.94904
218 1 11.0065 4.71417 14.1541 -8.94787
219 1 12.5797 3.14155 12.5797 -8.95409
220 1 14.1556 4.71024 14.1555 -8.95117
221 1 15.725 3.14339 12.5792 -8.94955
222 1 17.2983 4.71547 14.1524 -8.95004
223 1 18.8694 3.14417 12.5794 -8.94941
224 1 20.4415 4.71646 14.1522 -8.94973
225 1 22.0124 6.28861 12.58 -8.95009
226 1 1.56972 7.86081 14.1537 -8.94936
227 1 3.13916 6.28622 12.5822 -8.95053
228 1 4.7109 7.85806 14.1575 -8.94484
229 1 6.2755 6.27574 12.5918 -8.93332
230 1 7.85922 7.86051 14.1577 -8.96144
231 1 9.43404 6.28659 12.5825 -8.94618
232 1 11.004 7.85694 14.1605 -8.94858
233 1 12.5868 6.27321 12.5872 -8.96072
234 1 14.1742 7.84033 14.1742 -8.90998
235 1 15.7284 6.28613 12.58 -8.94965
236 1 17.3027 7.8593 14.1545 -8.95305
237 1 18.8702 6.28862 12.5794 -8.94969
238 1 20.4421 7.86137 14.1526 -8.95064
239 1 22.0117 9.43402 12.5802 -8.95058
240 1 3.136 9.4326 12.5826 -8.94954
241 1 6.26839 9.42675 12.5904 -8.97597
242 1 9.42887 9.4351 12.5658 -9.01829
243 1 12.6435 9.37059 12.6435 -8.81284
244 1 15.7378 9.4319 12.5836 -8.96586
245 1 18.8715 9.4343 12.5796 -8.95301
246 1 -0.000283708 1.8077e-15 15.7245 -8.94957
247 1 1.57191 1.57202 17.2972 -8.94917
248 1 3.14419 9.00173e-16 15.725 -8.94966
249 1 4.71705 1.57207 17.2972 -8.94968
250 1 6.28959 3.11755e-16 15.7248 -8.9495
251 1 7.86199 1.57204 17.2972 -8.94942
252 1 9.43452 5.91343e-16 15.7249 -8.94954
253 1 11.0069 1.57198 17.2972 -8.9495
254 1 12.5795 2.2653e-15 15.7248 -8.94949
255 1 14.1519 1.57192 17.2971 -8.94953
256 1 15.7247 2.05987e-15 15.7247 -8.95027
257 1 17.2973 1.57172 17.2973 -8.94949
258 1 18.8692 1.49827e-15 15.7243 -8.94968
259 1 20.4415 1.57212 17.2969 -8.9496
260 1 22.0134 3.14419 15.7248 -8.94953
261 1 1.57184 4.71658 17.2976 -8.94939
262 1 3.14334 3.1432 15.7259 -8.94829
263 1 4.71645 4.7163 17.2983 -8.95011
264 1 6.28936 3.14378 15.7254 -8.94966
265 1 7.86168 4.71635 17.2979 -8.94868
266 1 9.43428 3.1436 15.7254 -8.94929
267 1 11.0066 4.71606 17.298 -8.9492
268 1 12.5794 3.1433 15.7253 -8.94919
269 1 14.1523 4.71559 17.2983 -8.95006
270 1 15.7258 3.14224 15.7258 -8.94965
271 1 17.2988 4.71496 17.2987 -8.94701
272 1 18.8696 3.14406 15.7246 -8.9498
273 1 20.442 4.71653 17.2974 -8.94949
274 1 22.0135 6.28889 15.7252 -8.94971
275 1 1.57192 7.86175 17.2977 -8.94943
276 1 3.14276 6.28802 15.7267 -8.94856
277 1 4.71661 7.86189 17.2984 -8.95032
278 1 6.28792 6.28796 15.7279 -8.95201
279 1 7.86239 7.86263 17.2974 -8.95224
280 1 9.43318 6.28757 15.7272 -8.94604
281 1 11.0057 7.86115 17.2992 -8.95053
282 1 12.5798 6.28633 15.7284 -8.94991
283 1 14.1545 7.85924 17.3029 -8.95274
284 1 15.7312 6.28255 15.7312 -8.93957
285 1 17.2988 7.86089 17.2988 -8.94885
286 1 18.8712 6.28815 15.7256 -8.95007
287 1 20.4421 7.86169 17.2975 -8.94934
288 1 22.0136 9.43421 15.7254 -8.94944
289 1 3.14293 9.43402 15.7264 -8.94881
290 1 6.28834 9.43505 15.7264 -8.95225
291 1 9.43588 9.43688 15.7204 -8.94728
292 1 12.5843 9.43149 15.7384 -8.96456
293 1 15.7302 9.43238 15.7301 -8.94569
294 1 18.8713 9.43395 15.7258 -8.94913
295 1 22.0138 -1.31142e-15 18.8693 -8.94929
296 1 1.57226 1.57221 20.4415 -8.94949
297 1 3.1447 3.81602e-16 18.8693 -8.94968
298 1 4.71714 1.57224 20.4415 -8.94955
299 1 6.28959 1.08249e-15 18.8693 -8.9495
300 1 7.86202 1.57219 20.4415 -8.94955
301 1 9.43448 8.12416e-16 18.8693 -8.94955
302 1 11.0069 1.57217 20.4415 -8.94955
303 1 12.5794 6.57746e-16 18.8693 -8.94953
304 1 14.1519 1.57218 20.4415 -8.94953
305 1 15.7243 6.39637e-16 18.8693 -8.94962
306 1 17.2968 1.57215 20.4416 -8.94967
307 1 18.8693 1.17872e-15 18.8694 -8.94938
308 1 20.4416 1.57222 20.4416 -8.9492
309 1 -2.32183e-05 3.14451 18.8694 -8.94946
310 1 1.57228 4.71707 20.4416 -8.94971
311 1 3.14448 3.14438 18.8696 -8.94968
312 1 4.71696 4.71693 20.4414 -8.95007
313 1 6.2895 3.14442 18.8695 -8.94937
314 1 7.86183 4.71672 20.4415 -8.94947
315 1 9.43438 3.14428 18.8695 -8.94951
316 1 11.0068 4.71661 20.4416 -8.94952
317 1 12.5793 3.14426 18.8695 -8.94941
318 1 14.1519 4.7166 20.4416 -8.94962
319 1 15.7245 3.14413 18.8696 -8.94978
320 1 17.2974 4.71642 20.4418 -8.94952
321 1 18.8697 3.14413 18.8696 -8.94884
322 1 20.4418 4.71699 20.4416 -8.94956
323 1 22.0139 6.28943 18.8695 -8.94951
324 1 1.57224 7.86199 20.4416 -8.94957
325 1 3.1445 6.28943 18.8698 -8.94981
326 1 4.71704 7.86211 20.4416 -8.94985
327 1 6.28953 6.28952 18.8697 -8.95066
328 1 7.86198 7.86211 20.4412 -8.95006
329 1 9.43399 6.28894 18.87 -8.9496
330 1 11.0065 7.86169 20.4416 -8.95007
331 1 12.5791 6.28884 18.8703 -8.94967
332 1 14.1523 7.86144 20.4422 -8.95104
333 1 15.7256 6.28814 18.8711 -8.95013
334 1 17.2975 7.86161 20.4418 -8.94933
335 1 18.8698 6.28912 18.8697 -8.94944
336 1 20.4418 7.86193 20.4416 -8.94954
337 1 22.0139 9.43443 18.8696 -8.94954
338 1 3.14439 9.43443 18.8698 -8.94957
339 1 6.28956 9.43473 18.8695 -8.95011
45 1 6.28947 9.43467 22.0135 -8.94954
5 1 6.28959 7.88315e-17 22.0137 -8.94954
9 1 12.5795 9.2247e-16 22.0137 -8.94955
39 1 15.7252 6.28863 22.0131 -8.95014
15 1 22.0139 3.1446 22.0137 -8.94959
17 1 3.14443 3.1444 22.0134 -8.94953
33 1 6.28928 6.28931 22.0129 -8.95051
31 1 3.14457 6.28959 22.0136 -8.94986
27 1 18.8695 3.14432 22.0137 -8.94921
29 1 3.04733e-05 6.28952 22.0137 -8.94953
1 1 -0.000116375 2.47228e-16 22.0138 -8.94931
13 1 18.8692 8.56198e-16 22.0137 -8.94947
21 1 9.43446 3.14431 22.0135 -8.94953
23 1 12.5794 3.1443 22.0136 -8.94948
43 1 22.0139 9.43446 22.0137 -8.94957
49 1 18.8697 9.43437 22.0136 -8.9495
344 1 1.57207 11.007 1.57175 -8.94957
345 1 4.71672 11.007 1.5714 -8.94984
346 1 7.86205 11.007 1.5722 -8.94811
347 1 11.0069 11.007 1.57147 -8.94728
348 1 14.154 11.007 1.56903 -8.94979
349 1 17.2981 11.007 1.57121 -8.94946
350 1 20.4419 11.007 1.57187 -8.94952
538 1 17.2971 20.4419 11.0069 -8.94953
352 1 1.5721 14.1519 1.5718 -8.94945
353 1 3.14448 12.5794 -0.000340397 -8.94965
354 1 4.71684 14.1517 1.57143 -8.9499
688 3 10.2327 11.007 9.52448 2.22187
356 1 7.86174 14.1522 1.5703 -8.95201
511 1 18.8694 18.8698 9.4344 -8.94953
358 1 11.0067 14.1528 1.57019 -8.95011
510 1 15.725 18.8703 9.43421 -8.94937
360 1 14.1534 14.1534 1.56915 -8.95146
361 1 15.7254 12.5798 -0.000826862 -8.94945
362 1 17.298 14.1526 1.57123 -8.94921
532 1 20.4413 17.2975 11.007 -8.9495
364 1 20.4419 14.1521 1.5719 -8.94947
509 1 12.5793 18.8695 9.43444 -8.94927
366 1 1.57199 17.297 1.57177 -8.94984
508 1 9.43424 18.8697 9.43459 -8.94692
368 1 4.7162 17.2977 1.5707 -8.94944
507 1 6.28747 18.8731 9.4346 -8.95025
370 1 7.86179 17.2976 1.57117 -8.94917
371 1 9.4342 15.7249 -0.000800219 -8.94958
372 1 11.007 17.2977 1.57133 -8.94938
373 1 12.5794 15.725 -0.000768763 -8.94959
374 1 14.1523 17.2978 1.57133 -8.94963
506 1 3.14308 18.8709 9.43444 -8.94945
376 1 17.2979 17.298 1.57133 -8.94845
505 1 22.0133 18.8698 9.43447 -8.94949
378 1 20.4418 17.2971 1.57199 -8.94958
504 1 18.8698 15.7254 9.43421 -8.94934
380 1 1.57197 20.4418 1.57192 -8.94924
503 1 15.7266 15.7267 9.43358 -8.94465
382 1 4.71695 20.4419 1.57185 -8.94964
502 1 12.5776 15.7245 9.43412 -8.95011
384 1 7.86204 20.4419 1.57189 -8.94949
531 1 17.2978 17.298 11.0067 -8.94904
386 1 11.007 20.4419 1.57192 -8.94953
687 2 9.56537 11.007 10.7314 0.225495
388 1 14.152 20.4419 1.57203 -8.9495
501 1 9.4283 15.7207 9.43724 -9.00209
390 1 17.297 20.4419 1.57203 -8.94958
500 1 6.27769 15.7358 9.43454 -8.94645
392 1 20.4415 20.4417 1.57221 -8.9495
393 1 1.57126 11.007 4.71582 -8.94947
394 1 4.71507 11.007 4.71452 -8.94675
395 1 7.86358 11.007 4.71989 -8.94393
396 1 11.0104 11.007 4.71887 -8.99325
397 1 14.1609 11.007 4.70815 -8.94327
398 1 17.3006 11.007 4.71494 -8.94936
399 1 20.4422 11.007 4.71638 -8.94983
400 1 -7.98706e-05 12.5795 3.14403 -8.94953
401 1 1.5712 14.1521 4.71601 -8.94973
402 1 3.14389 12.5795 3.14342 -8.94905
403 1 4.71464 14.1524 4.71449 -8.95234
404 1 6.28933 12.5787 3.1437 -8.94948
405 1 7.85644 14.1577 4.70818 -8.95336
406 1 9.43481 12.5796 3.14359 -8.95078
407 1 11.0071 14.1556 4.71104 -8.94946
408 1 12.5819 12.5806 3.13778 -8.95815
409 1 14.1624 14.1618 4.70632 -8.93525
410 1 15.7277 12.5806 3.14137 -8.94788
411 1 17.3004 14.1537 4.71528 -8.95055
412 1 18.8705 12.5798 3.14378 -8.94933
413 1 20.4421 14.1523 4.71655 -8.95001
414 1 22.0137 15.7246 3.14417 -8.94978
415 1 1.5705 17.2981 4.71574 -8.94911
416 1 3.14361 15.7248 3.14327 -8.95049
417 1 4.71335 17.3006 4.71311 -8.94509
418 1 6.28712 15.7268 3.1404 -8.94989
419 1 7.86115 17.2998 4.71491 -8.94942
420 1 9.43408 15.7264 3.14218 -8.94788
421 1 11.0073 17.2992 4.71531 -8.94824
422 1 12.5802 15.7264 3.14203 -8.94913
423 1 14.1538 17.3004 4.71515 -8.95068
424 1 15.728 15.7281 3.14102 -8.94584
425 1 17.2978 17.298 4.71657 -8.94975
426 1 18.8704 15.7252 3.14391 -8.94967
427 1 20.4413 17.2973 4.71679 -8.94979
428 1 22.0134 18.8696 3.14427 -8.9494
429 1 1.57174 20.442 4.71672 -8.9495
430 1 3.14353 18.8703 3.14338 -8.94839
431 1 4.71638 20.4426 4.7162 -8.94996
432 1 6.28914 18.8703 3.14356 -8.9497
433 1 7.86208 20.4424 4.71645 -8.94964
434 1 9.43455 18.8702 3.14379 -8.9494
435 1 11.0073 20.4423 4.71657 -8.94959
436 1 12.5797 18.8702 3.14398 -8.94919
437 1 14.1522 20.4422 4.71696 -8.95048
438 1 15.7251 18.8705 3.14392 -8.94972
439 1 17.2969 20.4419 4.71713 -8.94971
440 1 18.8694 18.8697 3.14447 -8.94965
441 1 20.4414 20.4417 4.71708 -8.94952
442 1 1.56921 11.007 7.86051 -8.94741
443 1 4.71298 11.007 7.85964 -8.93704
444 1 7.87675 11.007 7.87557 -8.99478
445 1 11.0693 11.007 7.67369 -8.27571
446 1 14.1597 11.007 7.85445 -8.9633
447 1 17.2988 11.007 7.86199 -8.95119
448 1 20.4411 11.007 7.8617 -8.94962
449 1 22.013 12.5796 6.28874 -8.94967
450 1 1.56764 14.1536 7.86036 -8.95126
451 1 3.14176 12.5794 6.28753 -8.94928
452 1 4.70221 14.1601 7.85524 -8.95149
453 1 6.28508 12.5773 6.28742 -8.95589
454 1 7.82248 14.1838 7.83377 -8.86602
455 1 9.42033 12.598 6.28534 -8.91329
456 1 11.0138 14.1521 7.84842 -8.9271
457 1 12.6122 12.6062 6.25737 -8.88201
458 1 14.1575 14.156 7.85986 -8.94684
459 1 15.7327 12.5816 6.28614 -8.95556
460 1 17.2981 14.1522 7.86264 -8.95136
461 1 18.8711 12.5797 6.28904 -8.95117
462 1 20.4407 14.1524 7.86178 -8.95012
463 1 22.0123 15.7252 6.28874 -8.95001
464 1 1.57031 17.2984 7.86137 -8.94927
465 1 3.13927 15.7278 6.28604 -8.94881
466 1 4.71302 17.3015 7.86016 -8.94858
467 1 6.2777 15.736 6.27847 -8.93206
468 1 7.85909 17.3039 7.86097 -8.9581
469 1 9.4334 15.7308 6.28651 -8.95168
470 1 11.0056 17.297 7.86236 -8.94967
471 1 12.5829 15.7312 6.28534 -8.95504
472 1 14.1523 17.2982 7.86216 -8.94991
473 1 15.727 15.7268 6.28835 -8.94956
474 1 17.2975 17.2978 7.86179 -8.94868
475 1 18.8696 15.7249 6.28945 -8.95015
476 1 20.4412 17.2975 7.86181 -8.94944
477 1 -0.000648454 18.8698 6.28928 -8.94944
478 1 1.57167 20.4421 7.86188 -8.94953
479 1 3.14318 18.8709 6.28856 -8.94936
480 1 4.71615 20.4429 7.86163 -8.94972
481 1 6.28811 18.8726 6.28802 -8.95132
482 1 7.862 20.443 7.86191 -8.95115
483 1 9.43472 18.8713 6.28871 -8.95023
484 1 11.007 20.4418 7.86213 -8.9491
485 1 12.5795 18.8707 6.2895 -8.9517
486 1 14.1521 20.442 7.86211 -8.94969
487 1 15.7247 18.87 6.28959 -8.94976
488 1 17.297 20.4419 7.86197 -8.94947
489 1 18.8693 18.8696 6.2895 -8.94938
490 1 20.4414 20.4418 7.862 -8.94955
491 1 22.0108 12.5798 9.43395 -8.95025
492 1 3.13416 12.5816 9.43191 -8.95208
493 1 6.25929 12.5971 9.42489 -9.00207
494 1 9.34785 12.7981 9.44235 -8.2376
495 1 12.5741 12.5849 9.42187 -8.92609
496 1 15.7221 12.5777 9.43602 -8.94955
497 1 18.8687 12.5795 9.43456 -8.94845
498 1 22.0121 15.7254 9.43428 -8.94983
499 1 3.13889 15.728 9.43398 -8.94882
526 1 1.5703 17.2983 11.0074 -8.94927
527 1 4.71271 17.3014 11.0085 -8.9476
534 1 4.71611 20.4429 11.0074 -8.94957
389 1 15.7245 18.8696 -0.000286502 -8.94966
383 1 6.28947 18.8695 -0.00040785 -8.94949
377 1 18.8697 15.7246 -0.000265543 -8.94948
512 1 1.56518 11.007 11.0073 -8.95342
513 1 4.69166 11.007 11.007 -8.96871
514 1 7.76334 11.007 11.0016 -9.08439
515 1 11.258 11.007 11.2441 -8.2753
516 1 14.1393 11.007 11.0201 -9.0154
517 1 17.2963 11.007 11.0067 -8.94306
518 1 20.4401 11.007 11.0068 -8.94943
519 1 1.56741 14.1533 11.0073 -8.95136
520 1 4.70137 14.1581 11.0098 -8.95504
521 1 7.81634 14.1841 11.0416 -8.91402
522 1 11.0273 14.1552 11.0303 -8.97186
523 1 14.1603 14.1577 11.0046 -8.94778
524 1 17.2993 14.1533 11.0061 -8.95036
525 1 20.441 14.1525 11.0068 -8.95024
686 1 20.4416 20.4417 20.4416 -8.9492
391 1 18.8695 18.8696 22.0137 -8.94921
528 1 7.8587 17.3038 11.0089 -8.95811
529 1 11.0061 17.2977 11.0073 -8.94977
530 1 14.1531 17.2991 11.0059 -8.94897
685 1 18.8697 18.8698 18.8696 -8.94884
684 1 17.2968 20.4417 20.4416 -8.94967
533 1 1.57166 20.442 11.0071 -8.9495
381 1 3.14443 18.8695 22.0134 -8.94953
535 1 7.86206 20.443 11.0072 -8.95119
536 1 11.0069 20.442 11.0068 -8.94919
537 1 14.1522 20.4422 11.0067 -8.94967
683 1 15.7245 18.8698 18.8696 -8.94978
539 1 20.4414 20.4418 11.007 -8.94956
540 1 1.56954 11.007 14.1537 -8.94917
541 1 4.71075 11.007 14.1557 -8.94395
542 1 7.86013 11.007 14.1457 -8.99824
543 1 11.0224 11.007 14.1456 -9.05678
544 1 14.168 11.007 14.1677 -8.9396
545 1 17.3028 11.007 14.1553 -8.94913
546 1 20.4422 11.007 14.1529 -8.95021
547 1 22.0117 12.5799 12.5802 -8.95058
548 1 1.56972 14.1531 14.1537 -8.94936
549 1 3.136 12.5813 12.5826 -8.94954
550 1 4.7109 14.1558 14.1575 -8.94484
551 1 6.26839 12.5872 12.5904 -8.97597
552 1 7.85922 14.1534 14.1577 -8.96144
553 1 9.42887 12.5788 12.5658 -9.01829
554 1 11.004 14.157 14.1605 -8.94858
555 1 12.6435 12.6433 12.6435 -8.81284
556 1 14.1742 14.1736 14.1742 -8.90998
557 1 15.7378 12.582 12.5836 -8.96586
558 1 17.3027 14.1546 14.1545 -8.95305
559 1 18.8715 12.5796 12.5796 -8.95301
560 1 20.4421 14.1525 14.1526 -8.95064
561 1 22.0124 15.7253 12.58 -8.95009
562 1 1.57051 17.2982 14.1532 -8.94964
563 1 3.13916 15.7277 12.5822 -8.95053
564 1 4.7127 17.3017 14.1565 -8.94515
565 1 6.2755 15.7382 12.5918 -8.93332
566 1 7.86151 17.2988 14.1538 -8.94896
567 1 9.43404 15.7273 12.5825 -8.94618
568 1 11.0065 17.2997 14.1541 -8.94787
569 1 12.5868 15.7407 12.5872 -8.96072
570 1 14.1556 17.3037 14.1555 -8.95117
571 1 15.7284 15.7278 12.58 -8.94965
572 1 17.2983 17.2984 14.1524 -8.95004
573 1 18.8702 15.7253 12.5794 -8.94969
574 1 20.4415 17.2974 14.1522 -8.94973
575 1 22.0133 18.8698 12.5797 -8.94944
576 1 1.57174 20.442 14.1523 -8.94952
577 1 3.14314 18.8709 12.5803 -8.94924
578 1 4.71633 20.4428 14.1529 -8.95024
579 1 6.28794 18.873 12.5812 -8.95203
580 1 7.86213 20.4423 14.1525 -8.94935
581 1 9.43464 18.8708 12.5803 -8.94904
582 1 11.007 20.4424 14.1525 -8.94956
583 1 12.5797 18.8723 12.5797 -8.95409
584 1 14.1523 20.4429 14.1523 -8.95114
585 1 15.725 18.8705 12.5792 -8.94955
586 1 17.297 20.442 14.1519 -8.94966
587 1 18.8694 18.8697 12.5794 -8.94941
588 1 20.4414 20.4418 14.1519 -8.94953
589 1 1.57186 11.007 17.2977 -8.94955
590 1 4.71625 11.007 17.2983 -8.94948
591 1 7.8623 11.007 17.2954 -8.94822
592 1 11.0068 11.007 17.2971 -8.94523
593 1 14.1553 11.007 17.3027 -8.94902
594 1 17.2989 11.007 17.2989 -8.94923
595 1 20.4421 11.007 17.2975 -8.94945
596 1 22.0136 12.5797 15.7254 -8.94944
597 1 1.57192 14.1521 17.2977 -8.94943
598 1 3.14293 12.5799 15.7264 -8.94881
599 1 4.71661 14.152 17.2984 -8.95032
600 1 6.28834 12.5789 15.7264 -8.95225
601 1 7.86239 14.1513 17.2974 -8.95224
602 1 9.43588 12.577 15.7204 -8.94728
603 1 11.0057 14.1527 17.2992 -8.95053
604 1 12.5843 12.5824 15.7384 -8.96456
605 1 14.1545 14.1547 17.3029 -8.95274
606 1 15.7302 12.5815 15.7301 -8.94569
607 1 17.2988 14.153 17.2988 -8.94885
608 1 18.8713 12.58 15.7258 -8.94913
609 1 20.4421 14.1522 17.2975 -8.94934
610 1 22.0135 15.725 15.7252 -8.94971
611 1 1.57184 17.2973 17.2976 -8.94939
612 1 3.14276 15.7259 15.7267 -8.94856
613 1 4.71645 17.2976 17.2983 -8.95011
614 1 6.28792 15.7259 15.7279 -8.95201
615 1 7.86168 17.2975 17.2979 -8.94868
616 1 9.43318 15.7263 15.7272 -8.94604
617 1 11.0066 17.2978 17.298 -8.9492
618 1 12.5798 15.7276 15.7284 -8.94991
619 1 14.1523 17.2983 17.2983 -8.95006
620 1 15.7312 15.7314 15.7312 -8.93957
621 1 17.2988 17.2989 17.2987 -8.94701
622 1 18.8712 15.7258 15.7256 -8.95007
623 1 20.442 17.2974 17.2974 -8.94949
624 1 22.0134 18.8697 15.7248 -8.94953
625 1 1.57191 20.4419 17.2972 -8.94917
626 1 3.14334 18.8707 15.7259 -8.94829
627 1 4.71705 20.4418 17.2972 -8.94968
628 1 6.28936 18.8701 15.7254 -8.94966
629 1 7.86199 20.4419 17.2972 -8.94942
630 1 9.43428 18.8703 15.7254 -8.94929
631 1 11.0069 20.4419 17.2972 -8.9495
632 1 12.5794 18.8706 15.7253 -8.94919
633 1 14.1519 20.442 17.2971 -8.94953
634 1 15.7258 18.8717 15.7258 -8.94965
635 1 17.2973 20.4422 17.2973 -8.94949
636 1 18.8696 18.8698 15.7246 -8.9498
637 1 20.4415 20.4418 17.2969 -8.9496
638 1 1.5722 11.007 20.4416 -8.94959
639 1 4.71692 11.007 20.4416 -8.94984
640 1 7.86194 11.007 20.4412 -8.94897
641 1 11.0064 11.007 20.4415 -8.94846
642 1 14.1526 11.007 20.4422 -8.95047
643 1 17.2976 11.007 20.4418 -8.94945
644 1 20.4418 11.007 20.4416 -8.94955
645 1 22.0139 12.5795 18.8696 -8.94954
646 1 1.57224 14.1519 20.4416 -8.94957
647 1 3.14439 12.5795 18.8698 -8.94957
648 1 4.71704 14.1518 20.4416 -8.94985
649 1 6.28956 12.5792 18.8695 -8.95011
650 1 7.86198 14.1518 20.4412 -8.95006
651 1 9.43428 12.5791 18.8686 -8.948
652 1 11.0065 14.1522 20.4416 -8.95007
653 1 12.5794 12.5795 18.8718 -8.95301
654 1 14.1523 14.1525 20.4422 -8.95104
655 1 15.7258 12.58 18.8712 -8.94919
656 1 17.2975 14.1523 20.4418 -8.94933
657 1 18.8699 12.5796 18.8698 -8.94941
658 1 20.4418 14.152 20.4416 -8.94954
659 1 22.0139 15.7245 18.8695 -8.94951
660 1 1.57228 17.2968 20.4416 -8.94971
661 1 3.1445 15.7245 18.8698 -8.94981
662 1 4.71696 17.297 20.4414 -8.95007
663 1 6.28953 15.7244 18.8697 -8.95066
664 1 7.86183 17.2972 20.4415 -8.94947
665 1 9.43399 15.725 18.87 -8.9496
666 1 11.0068 17.2973 20.4416 -8.94952
667 1 12.5791 15.7251 18.8703 -8.94967
668 1 14.1519 17.2973 20.4416 -8.94962
669 1 15.7256 15.7258 18.8711 -8.95013
670 1 17.2974 17.2975 20.4418 -8.94952
671 1 18.8698 15.7248 18.8697 -8.94944
672 1 20.4418 17.2969 20.4416 -8.94956
673 1 -2.32183e-05 18.8694 18.8694 -8.94946
674 1 1.57226 20.4417 20.4415 -8.94949
675 1 3.14448 18.8695 18.8696 -8.94968
676 1 4.71714 20.4417 20.4415 -8.94955
677 1 6.2895 18.8695 18.8695 -8.94937
678 1 7.86202 20.4417 20.4415 -8.94955
679 1 9.43438 18.8696 18.8695 -8.94951
680 1 11.0069 20.4417 20.4415 -8.94955
681 1 12.5793 18.8696 18.8695 -8.94941
682 1 14.1519 20.4417 20.4415 -8.94953
355 1 6.28947 12.5792 22.0135 -8.94954
357 1 9.43432 12.5793 22.0133 -8.94908
359 1 12.5794 12.5795 22.0127 -8.95144
365 1 3.04733e-05 15.7244 22.0137 -8.94953
367 1 3.14457 15.7243 22.0136 -8.94986
369 1 6.28928 15.7246 22.0129 -8.95051
375 1 15.7252 15.7253 22.0131 -8.95014
379 1 22.0139 18.8693 22.0137 -8.94959
351 1 22.0139 12.5794 22.0137 -8.94957
363 1 18.8697 12.5795 22.0136 -8.9495
385 1 9.43446 18.8696 22.0135 -8.94953
387 1 12.5794 18.8696 22.0136 -8.94948
