ITEM: TIMESTEP
109
ITEM: NUMBER OF ATOMS
688
ITEM: BOX BOUNDS pp pp pp
0.0000000000000000e+00 2.2013900999999997e+01
0.0000000000000000e+00 2.2013900999999997e+01
0.0000000000000000e+00 2.2013900999999997e+01
ITEM: ATOMS id type x y z c_pot
189 1 20.4405 4.7158 11.0072 -8.94954
2 1 1.57172 1.57193 1.57176 -8.94916
175 1 18.8672 9.43432 9.43541 -8.9478
4 1 4.71663 1.57191 1.57173 -8.94959
174 1 15.7197 9.43594 9.43796 -8.9436
6 1 7.86168 1.57197 1.57208 -8.94943
7 1 9.43423 8.24179e-14 0.00019327 -8.94948
8 1 11.0067 1.57195 1.57234 -8.94948
173 1 12.5616 9.44058 9.4335 -8.94968
10 1 14.1517 1.5718 1.57243 -8.94951
172 1 9.35978 9.19677 9.43378 -8.35429
12 1 17.2971 1.57161 1.57224 -8.94945
188 1 17.2975 4.71536 11.0073 -8.94891
14 1 20.4414 1.57191 1.57225 -8.94945
171 1 6.27317 9.42489 9.43393 -9.0195
16 1 1.57189 4.71657 1.57167 -8.9498
170 1 3.13674 9.43344 9.43412 -8.95053
18 1 4.71589 4.71603 1.57079 -8.94953
169 1 22.0101 9.43413 9.43446 -8.9496
20 1 7.86129 4.7162 1.57167 -8.94912
183 1 1.56888 4.7151 11.0077 -8.94926
22 1 11.0065 4.71604 1.572 -8.94937
181 1 17.2967 1.57169 11.0069 -8.94949
24 1 14.1524 4.71553 1.57173 -8.94981
168 1 18.8688 6.28828 9.43466 -8.94954
26 1 17.2983 4.71514 1.57152 -8.94822
167 1 15.7259 6.28719 9.43533 -8.94538
28 1 20.442 4.71626 1.57204 -8.94949
166 1 12.5777 6.291 9.43676 -8.94629
30 1 1.57223 7.86179 1.57187 -8.94942
165 1 9.42912 6.29321 9.43772 -9.00611
32 1 4.71672 7.8622 1.57192 -8.94975
164 1 6.27654 6.2791 9.43613 -8.94352
34 1 7.8615 7.8619 1.57171 -8.95218
35 1 9.43393 6.28888 0.000218126 -8.94963
36 1 11.0064 7.86103 1.57138 -8.95052
37 1 12.5794 6.2885 0.000349273 -8.94979
38 1 14.1538 7.86006 1.56967 -8.95179
163 1 3.13757 6.28604 9.43485 -8.94919
40 1 17.2987 7.86075 1.57151 -8.94912
162 1 22.0109 6.28817 9.43443 -8.94998
42 1 20.4423 7.86144 1.57201 -8.94938
158 1 9.43325 3.14444 9.43533 -8.94674
44 1 3.14485 9.43449 -7.65728e-05 -8.94958
161 1 18.8686 3.14378 9.4343 -8.94948
160 1 15.7245 3.14353 9.43454 -8.94943
159 1 12.5788 3.1446 9.43516 -8.94846
48 1 15.7263 9.43375 0.000150309 -8.9494
157 1 6.28577 3.14075 9.43501 -8.94983
50 1 22.0132 4.23315e-13 3.14428 -8.94944
51 1 1.57099 1.57172 4.71626 -8.94943
52 1 3.14373 -7.63098e-12 3.14376 -8.94952
53 1 4.71563 1.57113 4.71594 -8.95002
54 1 6.28906 4.07347e-13 3.1441 -8.94957
55 1 7.86136 1.57147 4.71663 -8.94969
56 1 9.43417 -3.79627e-13 3.14447 -8.94954
57 1 11.0066 1.57164 4.71693 -8.94963
58 1 12.5791 -3.92088e-12 3.14468 -8.94953
59 1 14.1517 1.57138 4.71708 -8.95074
60 1 15.7243 -1.46364e-12 3.14463 -8.95008
61 1 17.2964 1.57187 4.71712 -8.94975
62 1 18.8689 -2.15821e-13 3.14466 -8.94966
63 1 20.4408 1.57195 4.71676 -8.94944
64 1 22.013 3.14397 3.14403 -8.94948
65 1 1.56979 4.71561 4.71562 -8.94951
66 1 3.14294 3.14328 3.14307 -8.94838
67 1 4.71217 4.71293 4.71319 -8.94517
68 1 6.28849 3.1434 3.14361 -8.94966
69 1 7.85989 4.71407 4.71556 -8.94924
70 1 9.43388 3.14362 3.14421 -8.94937
71 1 11.0064 4.71452 4.71588 -8.94799
72 1 12.5792 3.14347 3.14432 -8.94924
73 1 14.1543 4.71238 4.71475 -8.94993
74 1 15.7252 3.14271 3.14389 -8.94948
75 1 17.2975 4.71559 4.71669 -8.95025
76 1 18.8692 3.14379 3.14444 -8.94975
77 1 20.4407 4.71626 4.71662 -8.94987
78 1 22.0135 6.28893 3.14401 -8.94982
79 1 1.5704 7.86156 4.71616 -8.94986
80 1 3.14307 6.28882 3.14336 -8.95027
81 1 4.71334 7.86124 4.71556 -8.95123
82 1 6.28636 6.28704 3.14114 -8.95
83 1 7.85512 7.85625 4.70995 -8.95341
84 1 9.43318 6.28743 3.14315 -8.94766
85 1 11.0064 7.85767 4.711 -8.952
86 1 12.5801 6.28703 3.14225 -8.94954
87 1 14.1649 7.84956 4.70482 -8.92919
88 1 15.7286 6.28493 3.14091 -8.94448
89 1 17.3007 7.85973 4.71526 -8.95078
90 1 18.8706 6.28814 3.14383 -8.94966
91 1 20.4416 7.86137 4.71648 -8.95022
92 1 -0.000174731 9.43422 3.14398 -8.94952
93 1 3.14352 9.43434 3.14386 -8.94898
94 1 6.28868 9.43514 3.1451 -8.94944
95 1 9.43451 9.4345 3.14628 -8.95042
96 1 12.5823 9.43307 3.13792 -8.95986
97 1 15.7285 9.43286 3.14143 -8.94745
98 1 18.8709 9.43391 3.14373 -8.94925
99 1 22.0127 2.79743e-14 6.28902 -8.94946
100 1 1.57052 1.57159 7.86153 -8.94946
101 1 3.14309 5.18171e-12 6.28876 -8.94943
102 1 4.7149 1.5709 7.86153 -8.94953
103 1 6.28847 -1.13125e-10 6.28909 -8.95057
104 1 7.86091 1.57106 7.86225 -8.9511
105 1 9.43401 -6.81784e-11 6.28955 -8.95014
106 1 11.0061 1.57216 7.86258 -8.94939
107 1 12.5788 -3.71842e-11 6.28989 -8.95047
108 1 14.1514 1.57202 7.86233 -8.94947
109 1 15.7238 -1.29928e-12 6.28969 -8.94961
110 1 17.2964 1.57189 7.86182 -8.94943
111 1 18.8685 -5.60633e-14 6.2893 -8.94944
112 1 20.4405 1.57188 7.86164 -8.94947
113 1 -0.00161072 3.14376 6.28888 -8.94941
114 1 1.56891 4.71521 7.86131 -8.94935
115 1 3.14204 3.1428 6.28835 -8.94926
116 1 4.71136 4.71269 7.86085 -8.94798
117 1 6.28686 3.14124 6.28829 -8.95152
118 1 7.85749 4.71047 7.86214 -8.95803
119 1 9.43362 3.14273 6.28935 -8.95045
120 1 11.0055 4.71634 7.86318 -8.95135
121 1 12.579 3.14278 6.28978 -8.95255
122 1 14.1518 4.7161 7.86326 -8.94919
123 1 15.7241 3.1438 6.28981 -8.94971
124 1 17.2968 4.71597 7.86205 -8.94872
125 1 18.8686 3.14399 6.2893 -8.94933
126 1 20.4402 4.71605 7.86165 -8.94951
127 1 22.0114 6.28848 6.28876 -8.95011
128 1 1.56692 7.86063 7.86124 -8.95143
129 1 3.13848 6.28652 6.28709 -8.95016
130 1 4.70311 7.85668 7.85951 -8.95648
131 1 6.27576 6.27786 6.27964 -8.93219
132 1 7.81965 7.83053 7.83475 -8.88806
133 1 9.43198 6.28257 6.28747 -8.95194
134 1 11.023 7.85574 7.84093 -8.94628
135 1 12.5851 6.27915 6.28394 -8.9532
136 1 14.1562 7.86004 7.86491 -8.95187
137 1 15.7265 6.28739 6.28945 -8.95122
138 1 17.2969 7.86169 7.86369 -8.95086
139 1 18.8688 6.28881 6.28961 -8.95015
140 1 20.4395 7.86146 7.86206 -8.95006
141 1 22.012 9.43427 6.28895 -8.94996
142 1 3.14059 9.43464 6.28873 -8.95008
143 1 6.2824 9.43618 6.28919 -8.95219
144 1 9.41806 9.4135 6.28907 -8.94912
145 1 12.6214 9.40002 6.25259 -8.84974
146 1 15.7342 9.43195 6.28649 -8.95783
147 1 18.8704 9.43415 6.28936 -8.95187
148 1 -0.00133266 3.33903e-13 9.43429 -8.94948
149 1 3.14276 -1.5444e-12 9.43445 -8.94949
150 1 6.28787 -5.65066e-11 9.43466 -8.95039
151 1 9.4338 -4.20898e-10 9.43474 -8.94844
152 1 12.5789 -2.11967e-11 9.43465 -8.94922
153 1 15.7241 -1.95216e-12 9.43434 -8.94965
154 1 18.8686 5.40813e-15 9.43423 -8.9495
155 1 22.0121 3.14359 9.43431 -8.94946
156 1 3.14154 3.1426 9.43455 -8.94944
177 1 4.71476 1.5708 11.0077 -8.94946
184 1 4.71111 4.71246 11.0092 -8.94743
3 1 3.1445 2.72967e-13 -0.000157732 -8.94953
11 1 15.7243 1.27263e-14 0.00042346 -8.94954
41 1 18.8704 6.28854 0.000292106 -8.94938
19 1 6.28921 3.14427 -0.000134595 -8.94945
25 1 15.7247 3.14362 0.000387738 -8.94964
176 1 1.5705 1.57154 11.0073 -8.94945
47 1 12.5798 9.43427 22.0141 -8.9518
178 1 7.86087 1.57075 11.0075 -8.95139
179 1 11.0063 1.57181 11.0072 -8.94938
180 1 14.1518 1.57161 11.007 -8.94956
343 1 18.8714 9.43389 18.8713 -8.94934
182 1 20.4407 1.57179 11.0069 -8.94948
342 1 15.7275 9.43339 18.8733 -8.94921
46 1 9.43437 9.43467 22.0151 -8.94914
185 1 7.85751 4.7091 11.0099 -8.95903
186 1 11.0062 4.71534 11.009 -8.95073
187 1 14.1529 4.71484 11.0074 -8.94875
341 1 12.581 9.43388 18.8741 -8.95216
340 1 9.43496 9.4346 18.871 -8.94953
190 1 1.56711 7.86078 11.0077 -8.95143
191 1 4.70362 7.85742 11.0108 -8.958
192 1 7.81999 7.82567 11.044 -8.91002
193 1 11.0255 7.85484 11.0368 -8.96192
194 1 14.1575 7.85853 11.0078 -8.95105
195 1 17.2982 7.86067 11.0077 -8.95027
196 1 20.4401 7.86119 11.0073 -8.95007
197 1 22.0128 4.86226e-14 12.5798 -8.94947
198 1 1.57095 1.57158 14.1529 -8.94944
199 1 3.14294 4.32787e-12 12.5803 -8.94942
200 1 4.71528 1.57085 14.1536 -8.95003
201 1 6.28824 -1.10023e-10 12.5804 -8.95073
202 1 7.86123 1.5711 14.1533 -8.94969
203 1 9.43404 -6.44965e-11 12.5802 -8.95017
204 1 11.0068 1.57089 14.1533 -8.94987
205 1 12.5792 -3.90247e-11 12.5797 -8.95085
206 1 14.1526 1.5705 14.153 -8.95108
207 1 15.7245 -1.64224e-12 12.5795 -8.94963
208 1 17.2973 1.57139 14.1524 -8.94968
209 1 18.869 -1.39306e-13 12.5795 -8.94947
210 1 20.4412 1.57172 14.1524 -8.94945
211 1 22.0125 3.14352 12.58 -8.9494
212 1 1.56976 4.71528 14.1538 -8.94974
213 1 3.14182 3.14257 12.5809 -8.94921
214 1 4.71146 4.71215 14.1572 -8.94451
215 1 6.28648 3.14048 12.5819 -8.95169
216 1 7.85994 4.71293 14.1558 -8.94936
217 1 9.43398 3.14176 12.5814 -8.95048
218 1 11.0076 4.71193 14.1568 -8.94797
219 1 12.5799 3.14107 12.5808 -8.95341
220 1 14.1567 4.70937 14.1574 -8.9502
221 1 15.7252 3.14276 12.5799 -8.94952
222 1 17.2991 4.71436 14.1537 -8.95023
223 1 18.8692 3.1435 12.5798 -8.94934
224 1 20.4415 4.7157 14.1529 -8.94985
225 1 22.0118 6.28823 12.5804 -8.95025
226 1 1.5702 7.86117 14.1536 -8.94953
227 1 3.13831 6.28635 12.5825 -8.95107
228 1 4.7131 7.86091 14.155 -8.95089
229 1 6.27474 6.27585 12.5929 -8.93057
230 1 7.85565 7.85426 14.1647 -8.95244
231 1 9.43399 6.28026 12.5873 -8.95158
232 1 11.0099 7.85259 14.1677 -8.94681
233 1 12.588 6.27429 12.5904 -8.9562
234 1 14.1718 7.84376 14.1729 -8.92247
235 1 15.7286 6.28572 12.5818 -8.95085
236 1 17.3035 7.85849 14.1565 -8.95207
237 1 18.8701 6.28801 12.5802 -8.94987
238 1 20.4425 7.86094 14.1535 -8.95053
239 1 22.0119 9.43407 12.5805 -8.94998
240 1 3.13958 9.4338 12.5817 -8.9477
241 1 6.28431 9.43373 12.5827 -8.97914
242 1 9.42411 9.40898 12.5972 -8.95136
243 1 12.6309 9.38598 12.6329 -8.86189
244 1 15.7365 9.43143 12.5869 -8.9618
245 1 18.8713 9.43398 12.5811 -8.95237
246 1 -0.000567108 3.94611e-13 15.7252 -8.94947
247 1 1.57168 1.57179 17.298 -8.94909
248 1 3.14351 -7.2379e-12 15.7258 -8.94951
249 1 4.71644 1.57178 17.298 -8.94959
250 1 6.28882 7.14729e-13 15.7256 -8.94956
251 1 7.86149 1.57174 17.298 -8.94936
252 1 9.43408 -1.8661e-12 15.7256 -8.94957
253 1 11.0068 1.57154 17.2982 -8.94946
254 1 12.5796 -2.30491e-12 15.7257 -8.94966
255 1 14.1524 1.57124 17.2984 -8.94952
256 1 15.7251 -1.52252e-12 15.7256 -8.95026
257 1 17.2979 1.57113 17.2984 -8.94942
258 1 18.8695 -1.74836e-13 15.7251 -8.94964
259 1 20.4418 1.57171 17.2978 -8.94948
260 1 22.0133 3.14363 15.7256 -8.94952
261 1 1.57192 4.71634 17.2982 -8.94983
262 1 3.14263 3.14292 15.7267 -8.94819
263 1 4.71557 4.71575 17.2993 -8.94948
264 1 6.28819 3.14296 15.7265 -8.94965
265 1 7.8611 4.71564 17.2992 -8.94885
266 1 9.43391 3.14267 15.7266 -8.94925
267 1 11.0071 4.71488 17.2999 -8.94923
268 1 12.5802 3.14194 15.7269 -8.94918
269 1 14.1538 4.71389 17.3006 -8.94943
270 1 15.7267 3.14118 15.7272 -8.94949
271 1 17.2999 4.71379 17.3002 -8.94746
272 1 18.8701 3.14314 15.7256 -8.94979
273 1 20.4427 4.71574 17.2984 -8.9495
274 1 22.0139 6.2885 15.7259 -8.94986
275 1 1.5724 7.86171 17.298 -8.94955
276 1 3.1428 6.28858 15.7265 -8.95022
277 1 4.71679 7.86228 17.298 -8.95002
278 1 6.2859 6.28636 15.73 -8.94969
279 1 7.86193 7.86163 17.2999 -8.95277
280 1 9.43371 6.28569 15.7301 -8.94654
281 1 11.0078 7.85973 17.3028 -8.95094
282 1 12.5827 6.28393 15.7321 -8.94838
283 1 14.1565 7.85826 17.3051 -8.9519
284 1 15.7322 6.28193 15.7327 -8.94236
285 1 17.3006 7.85982 17.3008 -8.94887
286 1 18.8722 6.28714 15.727 -8.94993
287 1 20.4432 7.86109 17.2987 -8.94937
288 1 22.0143 9.43409 15.726 -8.94954
289 1 3.14376 9.43448 15.7258 -8.94932
290 1 6.28973 9.43552 15.7253 -8.94998
291 1 9.43727 9.43427 15.7286 -8.9538
292 1 12.5867 9.43104 15.7397 -8.96094
293 1 15.732 9.43182 15.7327 -8.94675
294 1 18.8727 9.43349 15.7275 -8.9492
295 1 22.0139 1.66226e-14 18.87 -8.94915
296 1 1.57226 1.57201 20.4419 -8.94933
297 1 3.14443 2.71186e-13 18.8699 -8.94955
298 1 4.71694 1.5721 20.4419 -8.94949
299 1 6.28924 2.74696e-13 18.8699 -8.94941
300 1 7.86173 1.57206 20.442 -8.94946
301 1 9.43417 2.40017e-13 18.8701 -8.94946
302 1 11.0067 1.57195 20.4422 -8.94947
303 1 12.5793 1.34506e-13 18.8702 -8.94947
304 1 14.1519 1.57179 20.4424 -8.94945
305 1 15.7247 7.16134e-14 18.8704 -8.94952
306 1 17.2973 1.57169 20.4424 -8.94951
307 1 18.8698 7.29996e-14 18.8703 -8.94922
308 1 20.442 1.5719 20.4422 -8.94905
309 1 0.000298348 3.14406 18.8701 -8.94949
310 1 1.57256 4.71681 20.442 -8.94972
311 1 3.14424 3.14407 18.8702 -8.94949
312 1 4.71681 4.71678 20.4419 -8.9501
313 1 6.28908 3.14412 18.8702 -8.94938
314 1 7.86156 4.71655 20.4423 -8.94948
315 1 9.43409 3.14386 18.8705 -8.94944
316 1 11.0067 4.71616 20.4427 -8.94953
317 1 12.5795 3.14346 18.8708 -8.94939
318 1 14.1524 4.71571 20.443 -8.94961
319 1 15.7253 3.14307 18.871 -8.94954
320 1 17.2982 4.71545 20.4429 -8.94943
321 1 18.8704 3.14332 18.8707 -8.94882
322 1 20.4424 4.71632 20.4423 -8.94944
323 1 22.0146 6.28897 18.8702 -8.9495
324 1 1.57279 7.86186 20.442 -8.94955
325 1 3.14471 6.28946 18.87 -8.94988
326 1 4.71727 7.86224 20.4419 -8.94966
327 1 6.28911 6.28927 18.8707 -8.95074
328 1 7.86199 7.86215 20.4424 -8.95033
329 1 9.43408 6.28845 18.8715 -8.94962
330 1 11.0068 7.8614 20.4434 -8.95043
331 1 12.5802 6.28772 18.8726 -8.94973
332 1 14.1532 7.86084 20.4438 -8.95099
333 1 15.7269 6.28698 18.8729 -8.94999
334 1 17.2987 7.86086 20.4431 -8.94924
335 1 18.8711 6.28814 18.8711 -8.94932
336 1 20.4427 7.86144 20.4424 -8.94942
337 1 22.0148 9.43425 18.8703 -8.9495
338 1 3.14488 9.43451 18.8699 -8.94959
339 1 6.28974 9.43481 18.8697 -8.94938
45 1 6.28961 9.43475 22.0143 -8.94943
5 1 6.28935 2.25559e-13 22.0139 -8.94945
9 1 12.5792 1.71424e-13 22.0143 -8.94949
39 1 15.7258 6.28785 22.0139 -8.9501
15 1 22.0141 3.14423 22.0139 -8.94949
17 1 3.14432 3.14418 22.0135 -8.94951
33 1 6.28918 6.28937 22.0135 -8.95064
31 1 3.14472 6.2895 22.0137 -8.9498
27 1 18.8699 3.1437 22.0142 -8.94906
29 1 0.000487659 6.28913 22.014 -8.94948
1 1 -8.14974e-05 1.15064e-14 22.014 -8.94913
13 1 18.8695 5.22602e-14 22.0142 -8.94928
21 1 9.43412 3.14414 22.0141 -8.94946
23 1 12.5793 3.14394 22.0143 -8.94944
43 1 22.0145 9.43431 22.014 -8.94951
49 1 18.8707 9.43406 22.0142 -8.9494
344 1 1.57231 11.007 1.57191 -8.94956
345 1 4.71673 11.007 1.57207 -8.9497
346 1 7.86195 11.007 1.57398 -8.94842
347 1 11.0067 11.007 1.57374 -8.94654
348 1 14.1546 11.007 1.56968 -8.94972
349 1 17.2989 11.007 1.57151 -8.9494
350 1 20.4424 11.007 1.572 -8.94945
538 1 17.2967 20.4422 11.0069 -8.94949
352 1 1.57223 14.1521 1.57187 -8.94942
353 1 3.14485 12.5794 -7.65729e-05 -8.94958
354 1 4.71672 14.1517 1.57192 -8.94975
688 3 10.257 11.0071 9.45375 2.20312
356 1 7.8615 14.152 1.57171 -8.95218
511 1 18.8686 18.8701 9.4343 -8.94948
358 1 11.0064 14.1529 1.57138 -8.95052
510 1 15.7245 18.8704 9.43454 -8.94943
360 1 14.1538 14.1538 1.56967 -8.95179
361 1 15.7263 12.5801 0.000150309 -8.9494
362 1 17.2987 14.1532 1.57151 -8.94912
532 1 20.4405 17.2981 11.0072 -8.94954
364 1 20.4423 14.1525 1.57201 -8.94938
509 1 12.5788 18.8693 9.43516 -8.94846
366 1 1.57189 17.2973 1.57167 -8.9498
508 1 9.43325 18.8695 9.43533 -8.94674
368 1 4.71589 17.2979 1.57079 -8.94953
507 1 6.28577 18.8731 9.43501 -8.94983
370 1 7.86129 17.2977 1.57167 -8.94912
371 1 9.43393 15.725 0.000218126 -8.94963
372 1 11.0065 17.2979 1.572 -8.94937
373 1 12.5794 15.7254 0.000349273 -8.94979
374 1 14.1524 17.2984 1.57173 -8.94981
506 1 3.14154 18.8713 9.43455 -8.94944
376 1 17.2983 17.2988 1.57152 -8.94822
505 1 22.0121 18.8703 9.43431 -8.94946
378 1 20.442 17.2976 1.57204 -8.94949
504 1 18.8688 15.7256 9.43466 -8.94954
380 1 1.57172 20.442 1.57176 -8.94916
503 1 15.7259 15.7267 9.43533 -8.94538
382 1 4.71663 20.442 1.57173 -8.94959
502 1 12.5777 15.7229 9.43676 -8.94629
384 1 7.86168 20.4419 1.57208 -8.94943
531 1 17.2975 17.2985 11.0073 -8.94891
386 1 11.0067 20.442 1.57234 -8.94948
687 2 9.55432 11.007 10.2258 -0.0163677
388 1 14.1517 20.4421 1.57243 -8.94951
501 1 9.42912 15.7207 9.43772 -9.00609
390 1 17.2971 20.4423 1.57224 -8.94945
500 1 6.27654 15.7348 9.43613 -8.94351
392 1 20.4414 20.442 1.57225 -8.94945
393 1 1.57051 11.007 4.71605 -8.9495
394 1 4.714 11.007 4.7158 -8.94591
395 1 7.86295 11.007 4.72175 -8.94764
396 1 11.0114 11.007 4.72335 -9.00591
397 1 14.1627 11.007 4.70754 -8.94163
398 1 17.301 11.007 4.71494 -8.94903
399 1 20.4419 11.007 4.71632 -8.94998
400 1 -0.000174731 12.5797 3.14398 -8.94952
401 1 1.5704 14.1523 4.71616 -8.94986
402 1 3.14352 12.5796 3.14386 -8.94898
403 1 4.71334 14.1527 4.71556 -8.95123
404 1 6.28868 12.5788 3.1451 -8.94944
405 1 7.85512 14.1577 4.70995 -8.95341
406 1 9.43451 12.5794 3.14628 -8.95042
407 1 11.0064 14.1562 4.711 -8.952
408 1 12.5823 12.5808 3.13792 -8.95986
409 1 14.1649 14.1643 4.70482 -8.92919
410 1 15.7285 12.581 3.14143 -8.94745
411 1 17.3007 14.1542 4.71526 -8.95078
412 1 18.8709 12.58 3.14373 -8.94925
413 1 20.4416 14.1525 4.71648 -8.95022
414 1 22.0135 15.725 3.14401 -8.94982
415 1 1.56979 17.2983 4.71562 -8.94951
416 1 3.14307 15.7251 3.14336 -8.95027
417 1 4.71217 17.301 4.71319 -8.94517
418 1 6.28636 15.7269 3.14114 -8.95
419 1 7.85989 17.2998 4.71556 -8.94924
420 1 9.43318 15.7265 3.14315 -8.94766
421 1 11.0064 17.2994 4.71588 -8.94799
422 1 12.5801 15.7269 3.14225 -8.94954
423 1 14.1543 17.3015 4.71475 -8.94993
424 1 15.7286 15.729 3.14091 -8.94448
425 1 17.2975 17.2983 4.71669 -8.95025
426 1 18.8706 15.7258 3.14383 -8.94966
427 1 20.4407 17.2976 4.71662 -8.94987
428 1 22.013 18.8699 3.14403 -8.94948
429 1 1.57099 20.4422 4.71626 -8.94943
430 1 3.14294 18.8706 3.14307 -8.94838
431 1 4.71563 20.4428 4.71594 -8.95002
432 1 6.28849 18.8705 3.14361 -8.94966
433 1 7.86136 20.4424 4.71663 -8.94969
434 1 9.43388 18.8703 3.14421 -8.94937
435 1 11.0066 20.4423 4.71693 -8.94963
436 1 12.5792 18.8704 3.14432 -8.94924
437 1 14.1517 20.4425 4.71708 -8.95074
438 1 15.7252 18.8712 3.14389 -8.94948
439 1 17.2964 20.442 4.71712 -8.94975
440 1 18.8692 18.8701 3.14444 -8.94975
441 1 20.4408 20.442 4.71676 -8.94944
442 1 1.56856 11.007 7.86149 -8.94773
443 1 4.71399 11.007 7.86295 -8.94101
444 1 7.87419 11.007 7.86948 -8.94977
445 1 11.0887 11.007 7.62345 -8.16562
446 1 14.1594 11.007 7.8556 -8.9704
447 1 17.2974 11.007 7.86341 -8.95149
448 1 20.4398 11.007 7.86216 -8.94957
449 1 22.012 12.5796 6.28895 -8.94996
450 1 1.56692 14.1533 7.86124 -8.95143
451 1 3.14059 12.5793 6.28873 -8.95008
452 1 4.70311 14.1572 7.85951 -8.95648
453 1 6.2824 12.5777 6.28919 -8.95219
454 1 7.81965 14.1834 7.83475 -8.88813
455 1 9.41806 12.6004 6.28907 -8.94912
456 1 11.023 14.1582 7.84093 -8.94629
457 1 12.6214 12.6139 6.25259 -8.84974
458 1 14.1562 14.1539 7.86491 -8.95187
459 1 15.7342 12.582 6.28649 -8.95783
460 1 17.2969 14.1522 7.86369 -8.95086
461 1 18.8704 12.5798 6.28936 -8.95187
462 1 20.4395 14.1524 7.86206 -8.95006
463 1 22.0114 15.7254 6.28876 -8.95011
464 1 1.56891 17.2987 7.86131 -8.94935
465 1 3.13848 15.7274 6.28709 -8.95016
466 1 4.71136 17.3012 7.86085 -8.94798
467 1 6.27576 15.736 6.27964 -8.93219
468 1 7.85749 17.3034 7.86214 -8.95803
469 1 9.43198 15.7313 6.28747 -8.95194
470 1 11.0055 17.2976 7.86318 -8.95135
471 1 12.5851 15.7348 6.28394 -8.9532
472 1 14.1518 17.2978 7.86326 -8.94919
473 1 15.7265 15.7265 6.28945 -8.95122
474 1 17.2968 17.2979 7.86205 -8.94872
475 1 18.8688 15.7251 6.28961 -8.95015
476 1 20.4402 17.2979 7.86165 -8.94951
477 1 -0.00161072 18.8701 6.28888 -8.94941
478 1 1.57052 20.4423 7.86153 -8.94946
479 1 3.14204 18.8711 6.28835 -8.94926
480 1 4.7149 20.443 7.86153 -8.94953
481 1 6.28686 18.8727 6.28829 -8.95152
482 1 7.86091 20.4428 7.86225 -8.9511
483 1 9.43362 18.8712 6.28935 -8.95045
484 1 11.0061 20.4417 7.86258 -8.94939
485 1 12.579 18.8711 6.28978 -8.95255
486 1 14.1514 20.4419 7.86233 -8.94947
487 1 15.7241 18.8701 6.28981 -8.94971
488 1 17.2964 20.442 7.86182 -8.94943
489 1 18.8686 18.8699 6.2893 -8.94933
490 1 20.4405 20.442 7.86164 -8.94947
491 1 22.0101 12.5798 9.43446 -8.9496
492 1 3.13674 12.5805 9.43412 -8.95053
493 1 6.27317 12.589 9.43393 -9.01949
494 1 9.35984 12.817 9.43378 -8.35405
495 1 12.5616 12.5733 9.4335 -8.94966
496 1 15.7197 12.578 9.43796 -8.9436
497 1 18.8672 12.5796 9.43541 -8.9478
498 1 22.0109 15.7257 9.43443 -8.94998
499 1 3.13757 15.7279 9.43485 -8.94919
526 1 1.56888 17.2988 11.0077 -8.94926
527 1 4.71111 17.3014 11.0092 -8.94743
534 1 4.71476 20.4431 11.0077 -8.94946
389 1 15.7247 18.8703 0.000387738 -8.94964
383 1 6.28921 18.8696 -0.000134595 -8.94945
377 1 18.8704 15.7254 0.000292106 -8.94938
512 1 1.56707 11.007 11.0077 -8.95067
513 1 4.70522 11.007 11.0081 -8.95581
514 1 7.83142 11.007 11.0163 -9.13004
515 1 11.142 11.007 11.2693 -8.33487
516 1 14.1485 11.007 11.0215 -8.98565
517 1 17.2961 11.007 11.0088 -8.94713
518 1 20.4396 11.007 11.0075 -8.94919
519 1 1.56711 14.1531 11.0077 -8.95143
520 1 4.70362 14.1565 11.0108 -8.958
521 1 7.81999 14.1882 11.044 -8.91009
522 1 11.0255 14.1591 11.0368 -8.96193
523 1 14.1575 14.1554 11.0078 -8.95105
524 1 17.2982 14.1532 11.0077 -8.95027
525 1 20.4401 14.1527 11.0073 -8.95007
686 1 20.442 20.442 20.4422 -8.94905
391 1 18.8699 18.8702 22.0142 -8.94906
528 1 7.85751 17.3048 11.0099 -8.95903
529 1 11.0062 17.2986 11.009 -8.95073
530 1 14.1529 17.2991 11.0074 -8.94875
685 1 18.8704 18.8706 18.8707 -8.94882
684 1 17.2973 20.4422 20.4424 -8.94951
533 1 1.5705 20.4424 11.0073 -8.94945
381 1 3.14432 18.8697 22.0135 -8.94951
535 1 7.86087 20.4431 11.0075 -8.95139
536 1 11.0063 20.4421 11.0072 -8.94938
537 1 14.1518 20.4423 11.007 -8.94956
683 1 15.7253 18.8708 18.871 -8.94954
539 1 20.4407 20.4421 11.0069 -8.94948
540 1 1.57066 11.007 14.1535 -8.94897
541 1 4.71536 11.007 14.1532 -8.94701
542 1 7.86748 11.007 14.1484 -8.99052
543 1 11.0195 11.007 14.154 -9.05524
544 1 14.1675 11.007 14.1694 -8.94197
545 1 17.3035 11.007 14.1576 -8.9492
546 1 20.4428 11.007 14.1538 -8.95008
547 1 22.0119 12.5798 12.5805 -8.94998
548 1 1.5702 14.1527 14.1536 -8.94953
549 1 3.13958 12.5801 12.5817 -8.9477
550 1 4.7131 14.153 14.155 -8.95089
551 1 6.28431 12.5802 12.5827 -8.97914
552 1 7.85565 14.1596 14.1647 -8.95244
553 1 9.42411 12.6049 12.5972 -8.95137
554 1 11.0099 14.1613 14.1677 -8.94681
555 1 12.6309 12.6279 12.6329 -8.86189
556 1 14.1718 14.1701 14.1729 -8.92247
557 1 15.7365 12.5825 12.5869 -8.9618
558 1 17.3035 14.1554 14.1565 -8.95207
559 1 18.8713 12.5799 12.5811 -8.95237
560 1 20.4425 14.153 14.1535 -8.95053
561 1 22.0118 15.7257 12.5804 -8.95025
562 1 1.56976 17.2986 14.1538 -8.94974
563 1 3.13831 15.7276 12.5825 -8.95107
564 1 4.71146 17.3018 14.1572 -8.94451
565 1 6.27474 15.7381 12.5929 -8.93057
566 1 7.85994 17.301 14.1558 -8.94936
567 1 9.43399 15.7336 12.5873 -8.95158
568 1 11.0076 17.302 14.1568 -8.94797
569 1 12.588 15.7396 12.5904 -8.9562
570 1 14.1567 17.3045 14.1574 -8.9502
571 1 15.7286 15.7282 12.5818 -8.95085
572 1 17.2991 17.2995 14.1537 -8.95023
573 1 18.8701 15.7259 12.5802 -8.94987
574 1 20.4415 17.2982 14.1529 -8.94985
575 1 22.0125 18.8704 12.58 -8.9494
576 1 1.57095 20.4423 14.1529 -8.94944
577 1 3.14182 18.8713 12.5809 -8.94921
578 1 4.71528 20.443 14.1536 -8.95003
579 1 6.28648 18.8734 12.5819 -8.95169
580 1 7.86123 20.4428 14.1533 -8.94969
581 1 9.43398 18.8721 12.5814 -8.95048
582 1 11.0068 20.443 14.1533 -8.94987
583 1 12.5799 18.8728 12.5808 -8.95341
584 1 14.1526 20.4434 14.153 -8.95108
585 1 15.7252 18.8711 12.5799 -8.94952
586 1 17.2973 20.4425 14.1524 -8.94968
587 1 18.8692 18.8704 12.5798 -8.94934
588 1 20.4412 20.4422 14.1524 -8.94945
589 1 1.57248 11.007 17.298 -8.94955
590 1 4.7169 11.007 17.2976 -8.94936
591 1 7.86278 11.007 17.2971 -8.94718
592 1 11.0092 11.007 17.3007 -8.94601
593 1 14.1575 11.007 17.3053 -8.94928
594 1 17.3009 11.007 17.3011 -8.94927
595 1 20.4433 11.007 17.2988 -8.94947
596 1 22.0143 12.5798 15.726 -8.94954
597 1 1.5724 14.1522 17.298 -8.94955
598 1 3.14376 12.5794 15.7258 -8.94932
599 1 4.71679 14.1516 17.298 -8.95002
600 1 6.28973 12.5784 15.7253 -8.94998
601 1 7.86193 14.1523 17.2999 -8.95277
602 1 9.43727 12.5796 15.7286 -8.9538
603 1 11.0078 14.1542 17.3028 -8.95094
604 1 12.5867 12.5829 15.7397 -8.96094
605 1 14.1565 14.1556 17.3051 -8.9519
606 1 15.732 12.5821 15.7327 -8.94675
607 1 17.3006 14.1541 17.3008 -8.94887
608 1 18.8727 12.5804 15.7275 -8.9492
609 1 20.4432 14.1528 17.2987 -8.94937
610 1 22.0139 15.7254 15.7259 -8.94986
611 1 1.57192 17.2976 17.2982 -8.94983
612 1 3.1428 15.7253 15.7265 -8.95022
613 1 4.71557 17.2982 17.2993 -8.94948
614 1 6.2859 15.7275 15.73 -8.94969
615 1 7.8611 17.2983 17.2992 -8.94885
616 1 9.43371 15.7282 15.7301 -8.94654
617 1 11.0071 17.299 17.2999 -8.94923
618 1 12.5827 15.73 15.7321 -8.94838
619 1 14.1538 17.3 17.3006 -8.94943
620 1 15.7322 15.732 15.7327 -8.94236
621 1 17.2999 17.3001 17.3002 -8.94746
622 1 18.8722 15.7268 15.727 -8.94993
623 1 20.4427 17.2982 17.2984 -8.9495
624 1 22.0133 18.8703 15.7256 -8.94952
625 1 1.57168 20.4421 17.298 -8.94909
626 1 3.14263 18.871 15.7267 -8.94819
627 1 4.71644 20.4421 17.298 -8.94959
628 1 6.28819 18.8709 15.7265 -8.94965
629 1 7.86149 20.4422 17.298 -8.94936
630 1 9.43391 18.8712 15.7266 -8.94925
631 1 11.0068 20.4424 17.2982 -8.94946
632 1 12.5802 18.872 15.7269 -8.94918
633 1 14.1524 20.4427 17.2984 -8.94952
634 1 15.7267 18.8727 15.7272 -8.94949
635 1 17.2979 20.4428 17.2984 -8.94942
636 1 18.8701 18.8708 15.7256 -8.94979
637 1 20.4418 20.4422 17.2978 -8.94948
638 1 1.57285 11.007 20.442 -8.94956
639 1 4.71731 11.007 20.4418 -8.94968
640 1 7.86212 11.007 20.4423 -8.94895
641 1 11.0071 11.007 20.4436 -8.94854
642 1 14.1537 11.007 20.4439 -8.95058
643 1 17.2989 11.007 20.4432 -8.94939
644 1 20.4428 11.007 20.4424 -8.94945
645 1 22.0148 12.5797 18.8703 -8.9495
646 1 1.57279 14.152 20.442 -8.94955
647 1 3.14488 12.5794 18.8699 -8.94959
648 1 4.71727 14.1517 20.4419 -8.94966
649 1 6.28974 12.5791 18.8697 -8.94938
650 1 7.86199 14.1518 20.4424 -8.95033
651 1 9.43496 12.5793 18.871 -8.94953
652 1 11.0068 14.1525 20.4434 -8.95043
653 1 12.581 12.58 18.8741 -8.95216
654 1 14.1532 14.1531 20.4438 -8.95099
655 1 15.7275 12.5805 18.8733 -8.94921
656 1 17.2987 14.153 20.4431 -8.94924
657 1 18.8714 12.58 18.8713 -8.94934
658 1 20.4427 14.1525 20.4424 -8.94942
659 1 22.0146 15.7249 18.8702 -8.9495
660 1 1.57256 17.2971 20.442 -8.94972
661 1 3.14471 15.7244 18.87 -8.94988
662 1 4.71681 17.2971 20.4419 -8.9501
663 1 6.28911 15.7246 18.8707 -8.95074
664 1 7.86156 17.2974 20.4423 -8.94948
665 1 9.43408 15.7254 18.8715 -8.94962
666 1 11.0067 17.2977 20.4427 -8.94953
667 1 12.5802 15.7262 18.8726 -8.94973
668 1 14.1524 17.2982 20.443 -8.94961
669 1 15.7269 15.7269 18.8729 -8.94999
670 1 17.2982 17.2985 20.4429 -8.94943
671 1 18.8711 15.7258 18.8711 -8.94932
672 1 20.4424 17.2976 20.4423 -8.94944
673 1 0.000298348 18.8698 18.8701 -8.94949
674 1 1.57226 20.4419 20.4419 -8.94933
675 1 3.14424 18.8698 18.8702 -8.94949
676 1 4.71694 20.4418 20.4419 -8.94949
677 1 6.28908 18.8698 18.8702 -8.94938
678 1 7.86173 20.4418 20.442 -8.94946
679 1 9.43409 18.87 18.8705 -8.94944
680 1 11.0067 20.442 20.4422 -8.94947
681 1 12.5795 18.8704 18.8708 -8.94939
682 1 14.1519 20.4421 20.4424 -8.94945
355 1 6.28961 12.5791 22.0143 -8.94943
357 1 9.43437 12.5792 22.0151 -8.94914
359 1 12.5798 12.5796 22.0141 -8.9518
365 1 0.000487659 15.7248 22.014 -8.94948
367 1 3.14472 15.7244 22.0137 -8.9498
369 1 6.28918 15.7245 22.0135 -8.95064
375 1 15.7258 15.726 22.0139 -8.9501
379 1 22.0141 18.8697 22.0139 -8.94949
351 1 22.0145 12.5796 22.014 -8.94951
363 1 18.8707 12.5798 22.0142 -8.9494
385 1 9.43412 18.8698 22.0141 -8.94946
387 1 12.5793 18.87 22.0143 -8.94944
