ITEM: TIMESTEP
42
ITEM: NUMBER OF ATOMS
688
ITEM: BOX BOUNDS pp pp pp
0.0000000000000000e+00 2.2013900999999997e+01
0.0000000000000000e+00 2.2013900999999997e+01
0.0000000000000000e+00 2.2013900999999997e+01
ITEM: ATOMS id type x y z c_pot
189 1 20.4415 4.71726 11.007 -8.94963
2 1 1.57242 1.57242 1.57242 -8.94963
175 1 18.8691 9.43453 9.43453 -8.94968
4 1 4.71726 1.57242 1.57242 -8.94963
174 1 15.7245 9.43444 9.43451 -8.95002
6 1 7.86211 1.57242 1.57242 -8.94963
7 1 9.43453 2.00172e-16 4.09201e-10 -8.94963
8 1 11.007 1.57242 1.57242 -8.94963
173 1 12.5839 9.4305 9.4334 -8.95552
10 1 14.1518 1.57242 1.57242 -8.94963
172 1 9.3805 9.3189 9.43246 -8.10433
12 1 17.2966 1.57242 1.57242 -8.94963
188 1 17.2966 4.71727 11.007 -8.94964
14 1 20.4415 1.57242 1.57242 -8.94963
171 1 6.2861 9.43298 9.43328 -9.00417
16 1 1.57242 4.71726 1.57242 -8.94963
170 1 3.14472 9.43451 9.43451 -8.95036
18 1 4.71726 4.71726 1.57242 -8.94963
169 1 22.0139 9.43453 9.43453 -8.94966
20 1 7.86211 4.71726 1.57242 -8.94963
183 1 1.57242 4.71726 11.007 -8.94963
22 1 11.007 4.71726 1.57242 -8.94963
181 1 17.2966 1.57242 11.007 -8.94963
24 1 14.1518 4.71726 1.57242 -8.94964
168 1 18.8691 6.28969 9.43453 -8.94963
26 1 17.2966 4.71726 1.57242 -8.94963
167 1 15.7242 6.28969 9.43453 -8.94968
28 1 20.4415 4.71726 1.57242 -8.94963
166 1 12.5793 6.28961 9.43453 -8.95157
30 1 1.57242 7.86211 1.57242 -8.94963
165 1 9.43445 6.28535 9.43453 -8.97036
32 1 4.71726 7.86211 1.57242 -8.94963
164 1 6.28971 6.28967 9.43453 -8.95203
34 1 7.8621 7.8621 1.57242 -8.94963
35 1 9.43453 6.28969 2.19298e-07 -8.94963
36 1 11.0069 7.86211 1.57242 -8.94964
37 1 12.5794 6.28969 3.47934e-07 -8.94963
38 1 14.1518 7.8621 1.57241 -8.94962
163 1 3.14484 6.28969 9.43453 -8.94964
40 1 17.2966 7.86211 1.57242 -8.94964
162 1 22.0139 6.28969 9.43453 -8.94963
42 1 20.4415 7.86211 1.57242 -8.94963
158 1 9.43453 3.1447 9.43453 -8.95078
44 1 3.14484 9.43453 1.29137e-08 -8.94963
161 1 18.8691 3.14484 9.43453 -8.94963
160 1 15.7242 3.14484 9.43453 -8.94963
159 1 12.5794 3.14484 9.43453 -8.94968
48 1 15.7242 9.43453 3.28206e-07 -8.94963
157 1 6.28969 3.14484 9.43453 -8.94964
50 1 22.0139 4.8019e-16 3.14484 -8.94963
51 1 1.57242 1.57242 4.71726 -8.94963
52 1 3.14484 3.34459e-16 3.14484 -8.94963
53 1 4.71726 1.57242 4.71726 -8.94963
54 1 6.28969 4.05495e-16 3.14484 -8.94963
55 1 7.86211 1.57242 4.71726 -8.94963
56 1 9.43453 7.9031e-16 3.14484 -8.94963
57 1 11.007 1.57242 4.71726 -8.94963
58 1 12.5794 1.47888e-16 3.14484 -8.94963
59 1 14.1518 1.57242 4.71726 -8.94963
60 1 15.7242 4.52812e-16 3.14484 -8.94963
61 1 17.2966 1.57242 4.71726 -8.94963
62 1 18.8691 9.31931e-16 3.14484 -8.94963
63 1 20.4415 1.57242 4.71726 -8.94963
64 1 22.0139 3.14484 3.14484 -8.94963
65 1 1.57242 4.71726 4.71726 -8.94963
66 1 3.14484 3.14484 3.14484 -8.94963
67 1 4.71726 4.71726 4.71726 -8.94957
68 1 6.28969 3.14484 3.14484 -8.94964
69 1 7.86211 4.71727 4.71727 -8.94977
70 1 9.43453 3.14484 3.14484 -8.94963
71 1 11.0069 4.71727 4.71726 -8.94965
72 1 12.5794 3.14484 3.14484 -8.94963
73 1 14.1518 4.71726 4.71726 -8.94965
74 1 15.7242 3.14484 3.14484 -8.94963
75 1 17.2966 4.71726 4.71726 -8.94964
76 1 18.8691 3.14484 3.14484 -8.94963
77 1 20.4415 4.71726 4.71726 -8.94963
78 1 22.0139 6.28969 3.14484 -8.94963
79 1 1.57242 7.86211 4.71726 -8.94963
80 1 3.14484 6.28969 3.14484 -8.94964
81 1 4.71726 7.8621 4.71726 -8.94971
82 1 6.28968 6.28968 3.14484 -8.94963
83 1 7.86204 7.86205 4.71712 -8.94994
84 1 9.43453 6.28969 3.14485 -8.94965
85 1 11.0069 7.86216 4.71729 -8.95099
86 1 12.5794 6.28969 3.14485 -8.94977
87 1 14.152 7.86194 4.7171 -8.94776
88 1 15.7242 6.28968 3.14484 -8.94956
89 1 17.2966 7.8621 4.71726 -8.94965
90 1 18.8691 6.28969 3.14484 -8.94963
91 1 20.4415 7.86211 4.71726 -8.94963
92 1 1.42712e-08 9.43453 3.14484 -8.94963
93 1 3.14484 9.43453 3.14484 -8.94964
94 1 6.28969 9.43453 3.14484 -8.9497
95 1 9.43446 9.43445 3.14473 -8.94923
96 1 12.5795 9.43445 3.14466 -8.94996
97 1 15.7242 9.43453 3.14485 -8.94976
98 1 18.8691 9.43453 3.14484 -8.94963
99 1 22.0139 8.0241e-16 6.28969 -8.94963
100 1 1.57242 1.57242 7.86211 -8.94963
101 1 3.14484 -1.46216e-17 6.28969 -8.94963
102 1 4.71726 1.57242 7.86211 -8.94963
103 1 6.28969 6.37261e-17 6.28969 -8.94963
104 1 7.86211 1.57242 7.86211 -8.94966
105 1 9.43453 2.69627e-16 6.28969 -8.94963
106 1 11.007 1.57242 7.86211 -8.94963
107 1 12.5794 2.16472e-16 6.28969 -8.94963
108 1 14.1518 1.57242 7.86211 -8.94964
109 1 15.7242 3.10552e-16 6.28969 -8.94963
110 1 17.2966 1.57242 7.86211 -8.94963
111 1 18.8691 4.64071e-16 6.28969 -8.94963
112 1 20.4415 1.57242 7.86211 -8.94963
113 1 1.49677e-08 3.14484 6.28969 -8.94963
114 1 1.57242 4.71726 7.86211 -8.94963
115 1 3.14484 3.14484 6.28969 -8.94964
116 1 4.71727 4.71727 7.86211 -8.94977
117 1 6.28968 3.14484 6.28968 -8.94961
118 1 7.86202 4.71709 7.86202 -8.94976
119 1 9.43453 3.14485 6.28969 -8.94964
120 1 11.007 4.71718 7.86203 -8.94894
121 1 12.5794 3.14484 6.28968 -8.94963
122 1 14.1518 4.71726 7.86211 -8.9497
123 1 15.7242 3.14484 6.28969 -8.94963
124 1 17.2966 4.71727 7.86211 -8.94964
125 1 18.8691 3.14484 6.28969 -8.94963
126 1 20.4415 4.71726 7.86211 -8.94963
127 1 22.0139 6.28969 6.28969 -8.94963
128 1 1.57242 7.86211 7.86211 -8.94966
129 1 3.14484 6.28968 6.28968 -8.94961
130 1 4.71706 7.86201 7.862 -8.94966
131 1 6.28955 6.28955 6.28955 -8.94798
132 1 7.85823 7.85879 7.8586 -8.9085
133 1 9.43457 6.28973 6.28977 -8.95161
134 1 11.0081 7.86182 7.86121 -8.93844
135 1 12.5794 6.28955 6.28966 -8.95039
136 1 14.152 7.86194 7.86196 -8.94852
137 1 15.7242 6.28968 6.28968 -8.94966
138 1 17.2966 7.8621 7.8621 -8.94964
139 1 18.8691 6.28969 6.28969 -8.94963
140 1 20.4415 7.86211 7.86211 -8.94963
141 1 22.0139 9.43453 6.28969 -8.94963
142 1 3.14484 9.43453 6.28968 -8.94967
143 1 6.28954 9.43445 6.28954 -8.94967
144 1 9.43314 9.43301 6.28852 -8.93806
145 1 12.5834 9.43048 6.28579 -8.90952
146 1 15.7244 9.43448 6.28965 -8.95035
147 1 18.8691 9.43453 6.28969 -8.94966
148 1 1.0438e-09 9.26008e-16 9.43453 -8.94963
149 1 3.14484 6.18786e-16 9.43453 -8.94963
150 1 6.28969 1.10712e-15 9.43453 -8.94963
151 1 9.43453 3.43213e-16 9.43453 -8.9497
152 1 12.5794 4.92792e-16 9.43453 -8.94963
153 1 15.7242 7.97649e-16 9.43453 -8.94963
154 1 18.8691 1.04295e-15 9.43453 -8.94963
155 1 22.0139 3.14484 9.43453 -8.94963
156 1 3.14484 3.14484 9.43453 -8.94963
177 1 4.71726 1.57242 11.007 -8.94963
184 1 4.71727 4.71727 11.0069 -8.94975
3 1 3.14484 3.60501e-16 3.8421e-10 -8.94963
11 1 15.7242 1.18515e-15 6.76511e-10 -8.94963
41 1 18.8691 6.28969 1.06079e-08 -8.94963
19 1 6.28969 3.14484 1.49678e-08 -8.94963
25 1 15.7242 3.14484 1.0129e-08 -8.94963
176 1 1.57242 1.57242 11.007 -8.94963
47 1 12.5794 9.43453 22.0139 -8.94966
178 1 7.86211 1.57242 11.007 -8.94966
179 1 11.007 1.57242 11.007 -8.94964
180 1 14.1518 1.57242 11.007 -8.94964
343 1 18.8691 9.43453 18.8691 -8.94963
182 1 20.4415 1.57242 11.007 -8.94963
342 1 15.7242 9.43453 18.8691 -8.94963
46 1 9.43453 9.43453 22.0139 -8.94964
185 1 7.86202 4.71708 11.007 -8.94979
186 1 11.007 4.71716 11.007 -8.94898
187 1 14.1518 4.71726 11.0069 -8.94969
341 1 12.5794 9.43453 18.8691 -8.94967
340 1 9.43453 9.43453 18.8691 -8.94973
190 1 1.57242 7.86211 11.007 -8.94966
191 1 4.71711 7.86205 11.007 -8.95045
192 1 7.85838 7.85852 11.011 -8.96987
193 1 11.008 7.86152 11.0084 -8.99879
194 1 14.152 7.86194 11.007 -8.94933
195 1 17.2966 7.8621 11.007 -8.94965
196 1 20.4415 7.86211 11.007 -8.94963
197 1 22.0139 3.09721e-16 12.5794 -8.94963
198 1 1.57242 1.57242 14.1518 -8.94963
199 1 3.14484 4.46093e-16 12.5794 -8.94963
200 1 4.71726 1.57242 14.1518 -8.94963
201 1 6.28969 4.04964e-16 12.5794 -8.94963
202 1 7.86211 1.57242 14.1518 -8.94963
203 1 9.43453 9.40102e-16 12.5794 -8.94964
204 1 11.007 1.57242 14.1518 -8.94963
205 1 12.5794 1.07904e-15 12.5794 -8.94963
206 1 14.1518 1.57242 14.1518 -8.94963
207 1 15.7242 2.44418e-16 12.5794 -8.94963
208 1 17.2966 1.57242 14.1518 -8.94963
209 1 18.8691 6.23175e-16 12.5794 -8.94963
210 1 20.4415 1.57242 14.1518 -8.94963
211 1 22.0139 3.14484 12.5794 -8.94963
212 1 1.57242 4.71726 14.1518 -8.94963
213 1 3.14484 3.14484 12.5794 -8.94964
214 1 4.71726 4.71726 14.1518 -8.94957
215 1 6.28968 3.14484 12.5794 -8.94963
216 1 7.86211 4.71729 14.1518 -8.94956
217 1 9.43453 3.14484 12.5794 -8.94973
218 1 11.007 4.71728 14.1518 -8.94943
219 1 12.5794 3.14484 12.5794 -8.94965
220 1 14.1518 4.71725 14.1518 -8.94965
221 1 15.7242 3.14484 12.5794 -8.94963
222 1 17.2966 4.71726 14.1518 -8.94964
223 1 18.8691 3.14484 12.5794 -8.94963
224 1 20.4415 4.71726 14.1518 -8.94963
225 1 22.0139 6.28969 12.5794 -8.94963
226 1 1.57242 7.86211 14.1518 -8.94963
227 1 3.14484 6.28969 12.5794 -8.94967
228 1 4.71721 7.86204 14.1519 -8.94903
229 1 6.28954 6.2895 12.5795 -8.94826
230 1 7.86228 7.86264 14.1514 -8.95105
231 1 9.43457 6.28942 12.5793 -8.9517
232 1 11.0067 7.86274 14.1512 -8.95202
233 1 12.5794 6.2895 12.5794 -8.95071
234 1 14.152 7.86187 14.152 -8.94695
235 1 15.7242 6.28969 12.5794 -8.94972
236 1 17.2966 7.8621 14.1518 -8.94964
237 1 18.8691 6.28969 12.5794 -8.94963
238 1 20.4415 7.86211 14.1518 -8.94963
239 1 22.0139 9.43453 12.5794 -8.94965
240 1 3.14478 9.43451 12.5794 -8.94982
241 1 6.28823 9.43319 12.5807 -8.99193
242 1 9.43332 9.43087 12.5825 -9.06858
243 1 12.5849 9.42901 12.5846 -8.94609
244 1 15.7244 9.43447 12.5794 -8.95054
245 1 18.8691 9.43453 12.5794 -8.94967
246 1 1.0133e-09 4.97273e-16 15.7242 -8.94963
247 1 1.57242 1.57242 17.2966 -8.94963
248 1 3.14484 -3.96355e-16 15.7242 -8.94963
249 1 4.71726 1.57242 17.2966 -8.94963
250 1 6.28969 6.02232e-16 15.7242 -8.94963
251 1 7.86211 1.57242 17.2966 -8.94963
252 1 9.43453 6.97512e-16 15.7242 -8.94963
253 1 11.007 1.57242 17.2966 -8.94963
254 1 12.5794 3.82366e-16 15.7242 -8.94963
255 1 14.1518 1.57242 17.2966 -8.94963
256 1 15.7242 3.42029e-17 15.7242 -8.94963
257 1 17.2966 1.57242 17.2966 -8.94963
258 1 18.8691 -1.07965e-16 15.7242 -8.94963
259 1 20.4415 1.57242 17.2966 -8.94963
260 1 22.0139 3.14484 15.7242 -8.94963
261 1 1.57242 4.71726 17.2966 -8.94963
262 1 3.14484 3.14484 15.7242 -8.94963
263 1 4.71727 4.71727 17.2966 -8.94965
264 1 6.28969 3.14484 15.7242 -8.94963
265 1 7.86211 4.71726 17.2966 -8.94964
266 1 9.43453 3.14484 15.7242 -8.94963
267 1 11.0069 4.71726 17.2966 -8.94964
268 1 12.5794 3.14484 15.7242 -8.94963
269 1 14.1518 4.71727 17.2966 -8.94966
270 1 15.7242 3.14484 15.7242 -8.94963
271 1 17.2966 4.71726 17.2966 -8.94963
272 1 18.8691 3.14484 15.7242 -8.94963
273 1 20.4415 4.71726 17.2966 -8.94963
274 1 22.0139 6.28969 15.7242 -8.94963
275 1 1.57242 7.86211 17.2966 -8.94964
276 1 3.14484 6.28968 15.7242 -8.9496
277 1 4.71726 7.86211 17.2966 -8.94964
278 1 6.28971 6.28971 15.7242 -8.94988
279 1 7.8621 7.8621 17.2966 -8.94942
280 1 9.43453 6.28972 15.7242 -8.95002
281 1 11.007 7.8621 17.2966 -8.94943
282 1 12.5793 6.28972 15.7242 -8.95001
283 1 14.1518 7.8621 17.2966 -8.94963
284 1 15.7242 6.28968 15.7242 -8.94952
285 1 17.2966 7.86211 17.2966 -8.94964
286 1 18.8691 6.28969 15.7242 -8.94963
287 1 20.4415 7.86211 17.2966 -8.94963
288 1 22.0139 9.43453 15.7242 -8.94963
289 1 3.14485 9.43453 15.7242 -8.94967
290 1 6.2897 9.43453 15.7242 -8.95019
291 1 9.43446 9.43445 15.7246 -8.94964
292 1 12.5794 9.43445 15.7244 -8.9505
293 1 15.7242 9.43453 15.7242 -8.94976
294 1 18.8691 9.43453 15.7242 -8.94963
295 1 22.0139 -2.57342e-16 18.8691 -8.94963
296 1 1.57242 1.57242 20.4415 -8.94963
297 1 3.14484 9.45845e-17 18.8691 -8.94963
298 1 4.71726 1.57242 20.4415 -8.94963
299 1 6.28969 4.25467e-16 18.8691 -8.94963
300 1 7.86211 1.57242 20.4415 -8.94963
301 1 9.43453 -8.66854e-17 18.8691 -8.94963
302 1 11.007 1.57242 20.4415 -8.94963
303 1 12.5794 6.41783e-16 18.8691 -8.94963
304 1 14.1518 1.57242 20.4415 -8.94963
305 1 15.7242 3.76406e-16 18.8691 -8.94963
306 1 17.2966 1.57242 20.4415 -8.94963
307 1 18.8691 -7.37407e-18 18.8691 -8.94963
308 1 20.4415 1.57242 20.4415 -8.94963
309 1 6.84642e-10 3.14484 18.8691 -8.94963
310 1 1.57242 4.71726 20.4415 -8.94963
311 1 3.14484 3.14484 18.8691 -8.94963
312 1 4.71726 4.71726 20.4415 -8.94963
313 1 6.28969 3.14484 18.8691 -8.94963
314 1 7.86211 4.71726 20.4415 -8.94963
315 1 9.43453 3.14484 18.8691 -8.94963
316 1 11.007 4.71726 20.4415 -8.94963
317 1 12.5794 3.14484 18.8691 -8.94963
318 1 14.1518 4.71726 20.4415 -8.94963
319 1 15.7242 3.14484 18.8691 -8.94963
320 1 17.2966 4.71726 20.4415 -8.94963
321 1 18.8691 3.14484 18.8691 -8.94963
322 1 20.4415 4.71726 20.4415 -8.94963
323 1 22.0139 6.28969 18.8691 -8.94963
324 1 1.57242 7.86211 20.4415 -8.94963
325 1 3.14484 6.28969 18.8691 -8.94963
326 1 4.71726 7.86211 20.4415 -8.94963
327 1 6.28969 6.28969 18.8691 -8.94962
328 1 7.86211 7.86211 20.4415 -8.94963
329 1 9.43453 6.28969 18.8691 -8.94963
330 1 11.007 7.86211 20.4415 -8.94963
331 1 12.5794 6.28969 18.8691 -8.94963
332 1 14.1518 7.86211 20.4415 -8.94963
333 1 15.7242 6.28969 18.8691 -8.94963
334 1 17.2966 7.86211 20.4415 -8.94963
335 1 18.8691 6.28969 18.8691 -8.94963
336 1 20.4415 7.86211 20.4415 -8.94963
337 1 22.0139 9.43453 18.8691 -8.94963
338 1 3.14484 9.43453 18.8691 -8.94963
339 1 6.28969 9.43453 18.8691 -8.94965
45 1 6.28969 9.43453 22.0139 -8.94964
5 1 6.28969 -2.53518e-17 22.0139 -8.94963
9 1 12.5794 -9.23139e-17 22.0139 -8.94963
39 1 15.7242 6.28969 22.0139 -8.94963
15 1 22.0139 3.14484 22.0139 -8.94963
17 1 3.14484 3.14484 22.0139 -8.94963
33 1 6.28969 6.28969 22.0139 -8.94963
31 1 3.14484 6.28969 22.0139 -8.94963
27 1 18.8691 3.14484 22.0139 -8.94963
29 1 8.3455e-11 6.28969 22.0139 -8.94963
1 1 -1.01646e-11 1.68792e-16 22.0139 -8.94963
13 1 18.8691 6.48396e-16 22.0139 -8.94963
21 1 9.43453 3.14484 22.0139 -8.94963
23 1 12.5794 3.14484 22.0139 -8.94963
43 1 22.0139 9.43453 22.0139 -8.94963
49 1 18.8691 9.43453 22.0139 -8.94963
344 1 1.57242 11.007 1.57242 -8.94963
345 1 4.71726 11.007 1.57242 -8.94963
346 1 7.86211 11.007 1.57242 -8.94967
347 1 11.0069 11.007 1.57229 -8.95071
348 1 14.1518 11.007 1.57242 -8.94963
349 1 17.2966 11.007 1.57242 -8.94963
350 1 20.4415 11.007 1.57242 -8.94963
538 1 17.2966 20.4415 11.007 -8.94963
352 1 1.57242 14.1518 1.57242 -8.94963
353 1 3.14484 12.5794 1.29137e-08 -8.94963
354 1 4.71726 14.1518 1.57242 -8.94963
688 3 10.2208 11.007 9.43931 3.29123
356 1 7.8621 14.1518 1.57242 -8.94963
511 1 18.8691 18.8691 9.43453 -8.94963
358 1 11.0069 14.1518 1.57242 -8.94964
510 1 15.7242 18.8691 9.43453 -8.94963
360 1 14.1518 14.1518 1.57241 -8.94962
361 1 15.7242 12.5794 3.28206e-07 -8.94963
362 1 17.2966 14.1518 1.57242 -8.94964
532 1 20.4415 17.2966 11.007 -8.94963
364 1 20.4415 14.1518 1.57242 -8.94963
509 1 12.5794 18.8691 9.43453 -8.94968
366 1 1.57242 17.2966 1.57242 -8.94963
508 1 9.43453 18.8692 9.43453 -8.95078
368 1 4.71726 17.2966 1.57242 -8.94963
507 1 6.28969 18.8691 9.43453 -8.94964
370 1 7.86211 17.2966 1.57242 -8.94963
371 1 9.43453 15.7242 2.19298e-07 -8.94963
372 1 11.007 17.2966 1.57242 -8.94963
373 1 12.5794 15.7242 3.47934e-07 -8.94963
374 1 14.1518 17.2966 1.57242 -8.94964
506 1 3.14484 18.8691 9.43453 -8.94963
376 1 17.2966 17.2966 1.57242 -8.94963
505 1 22.0139 18.8691 9.43453 -8.94963
378 1 20.4415 17.2966 1.57242 -8.94963
504 1 18.8691 15.7242 9.43453 -8.94963
380 1 1.57242 20.4415 1.57242 -8.94963
503 1 15.7242 15.7242 9.43453 -8.94968
382 1 4.71726 20.4415 1.57242 -8.94963
502 1 12.5793 15.7243 9.43453 -8.95157
384 1 7.86211 20.4415 1.57242 -8.94963
531 1 17.2966 17.2966 11.007 -8.94964
386 1 11.007 20.4415 1.57242 -8.94963
687 2 9.43581 11.007 11.0031 1.07727
388 1 14.1518 20.4415 1.57242 -8.94963
501 1 9.43445 15.7286 9.43453 -8.97036
390 1 17.2966 20.4415 1.57242 -8.94963
500 1 6.28971 15.7242 9.43453 -8.95203
392 1 20.4415 20.4415 1.57242 -8.94963
393 1 1.57242 11.007 4.71726 -8.94963
394 1 4.71727 11.007 4.71727 -8.94966
395 1 7.86215 11.007 4.71721 -8.95093
396 1 11.007 11.007 4.71311 -8.97
397 1 14.1518 11.007 4.71728 -8.95149
398 1 17.2966 11.007 4.71726 -8.94962
399 1 20.4415 11.007 4.71726 -8.94963
400 1 1.42712e-08 12.5794 3.14484 -8.94963
401 1 1.57242 14.1518 4.71726 -8.94963
402 1 3.14484 12.5794 3.14484 -8.94964
403 1 4.71726 14.1518 4.71726 -8.94971
404 1 6.28969 12.5794 3.14484 -8.9497
405 1 7.86204 14.1519 4.71712 -8.94994
406 1 9.43446 12.5794 3.14473 -8.94923
407 1 11.0069 14.1517 4.71729 -8.95099
408 1 12.5795 12.5795 3.14466 -8.94996
409 1 14.152 14.152 4.7171 -8.94776
410 1 15.7242 12.5794 3.14485 -8.94976
411 1 17.2966 14.1518 4.71726 -8.94965
412 1 18.8691 12.5794 3.14484 -8.94963
413 1 20.4415 14.1518 4.71726 -8.94963
414 1 22.0139 15.7242 3.14484 -8.94963
415 1 1.57242 17.2966 4.71726 -8.94963
416 1 3.14484 15.7242 3.14484 -8.94964
417 1 4.71726 17.2966 4.71726 -8.94957
418 1 6.28968 15.7242 3.14484 -8.94963
419 1 7.86211 17.2966 4.71727 -8.94977
420 1 9.43453 15.7242 3.14485 -8.94965
421 1 11.0069 17.2966 4.71726 -8.94965
422 1 12.5794 15.7242 3.14485 -8.94977
423 1 14.1518 17.2966 4.71726 -8.94965
424 1 15.7242 15.7242 3.14484 -8.94956
425 1 17.2966 17.2966 4.71726 -8.94964
426 1 18.8691 15.7242 3.14484 -8.94963
427 1 20.4415 17.2966 4.71726 -8.94963
428 1 22.0139 18.8691 3.14484 -8.94963
429 1 1.57242 20.4415 4.71726 -8.94963
430 1 3.14484 18.8691 3.14484 -8.94963
431 1 4.71726 20.4415 4.71726 -8.94963
432 1 6.28969 18.8691 3.14484 -8.94964
433 1 7.86211 20.4415 4.71726 -8.94963
434 1 9.43453 18.8691 3.14484 -8.94963
435 1 11.007 20.4415 4.71726 -8.94963
436 1 12.5794 18.8691 3.14484 -8.94963
437 1 14.1518 20.4415 4.71726 -8.94963
438 1 15.7242 18.8691 3.14484 -8.94963
439 1 17.2966 20.4415 4.71726 -8.94963
440 1 18.8691 18.8691 3.14484 -8.94963
441 1 20.4415 20.4415 4.71726 -8.94963
442 1 1.57241 11.007 7.86211 -8.94966
443 1 4.71707 11.007 7.86202 -8.94999
444 1 7.85915 11.007 7.8595 -8.97273
445 1 11.0601 11.007 7.74942 -8.07356
446 1 14.1541 11.007 7.86179 -8.96092
447 1 17.2967 11.007 7.86211 -8.9502
448 1 20.4415 11.007 7.86211 -8.94965
449 1 22.0139 12.5794 6.28969 -8.94963
450 1 1.57242 14.1518 7.86211 -8.94966
451 1 3.14484 12.5794 6.28968 -8.94967
452 1 4.71706 14.1519 7.862 -8.94966
453 1 6.28954 12.5795 6.28954 -8.94967
454 1 7.85823 14.1551 7.8586 -8.9085
455 1 9.43314 12.5809 6.28852 -8.93806
456 1 11.0081 14.1521 7.86121 -8.93844
457 1 12.5834 12.5834 6.28579 -8.90952
458 1 14.152 14.152 7.86196 -8.94852
459 1 15.7244 12.5794 6.28965 -8.95035
460 1 17.2966 14.1518 7.8621 -8.94964
461 1 18.8691 12.5794 6.28969 -8.94966
462 1 20.4415 14.1518 7.86211 -8.94963
463 1 22.0139 15.7242 6.28969 -8.94963
464 1 1.57242 17.2966 7.86211 -8.94963
465 1 3.14484 15.7242 6.28968 -8.94961
466 1 4.71727 17.2966 7.86211 -8.94977
467 1 6.28955 15.7244 6.28955 -8.94798
468 1 7.86202 17.2968 7.86202 -8.94976
469 1 9.43457 15.7242 6.28977 -8.95161
470 1 11.007 17.2967 7.86203 -8.94894
471 1 12.5794 15.7243 6.28966 -8.95039
472 1 14.1518 17.2966 7.86211 -8.9497
473 1 15.7242 15.7242 6.28968 -8.94966
474 1 17.2966 17.2966 7.86211 -8.94964
475 1 18.8691 15.7242 6.28969 -8.94963
476 1 20.4415 17.2966 7.86211 -8.94963
477 1 1.49677e-08 18.8691 6.28969 -8.94963
478 1 1.57242 20.4415 7.86211 -8.94963
479 1 3.14484 18.8691 6.28969 -8.94964
480 1 4.71726 20.4415 7.86211 -8.94963
481 1 6.28968 18.8691 6.28968 -8.94961
482 1 7.86211 20.4415 7.86211 -8.94966
483 1 9.43453 18.8691 6.28969 -8.94964
484 1 11.007 20.4415 7.86211 -8.94963
485 1 12.5794 18.8691 6.28968 -8.94963
486 1 14.1518 20.4415 7.86211 -8.94964
487 1 15.7242 18.8691 6.28969 -8.94963
488 1 17.2966 20.4415 7.86211 -8.94963
489 1 18.8691 18.8691 6.28969 -8.94963
490 1 20.4415 20.4415 7.86211 -8.94963
491 1 22.0139 12.5794 9.43453 -8.94966
492 1 3.14472 12.5794 9.43451 -8.95036
493 1 6.2861 12.5809 9.43328 -9.00417
494 1 9.3805 12.695 9.43246 -8.10433
495 1 12.5839 12.5834 9.4334 -8.95552
496 1 15.7245 12.5795 9.43451 -8.95002
497 1 18.8691 12.5794 9.43453 -8.94968
498 1 22.0139 15.7242 9.43453 -8.94963
499 1 3.14484 15.7242 9.43453 -8.94964
526 1 1.57242 17.2966 11.007 -8.94963
527 1 4.71727 17.2966 11.0069 -8.94975
534 1 4.71726 20.4415 11.007 -8.94963
389 1 15.7242 18.8691 1.0129e-08 -8.94963
383 1 6.28969 18.8691 1.49678e-08 -8.94963
377 1 18.8691 15.7242 1.06079e-08 -8.94963
512 1 1.57239 11.007 11.007 -8.94994
513 1 4.71595 11.007 11.007 -8.96082
514 1 7.81982 11.007 11.0097 -9.28127
515 1 11.0988 11.007 11.1184 -8.35467
516 1 14.1551 11.007 11.0072 -8.96826
517 1 17.2967 11.007 11.007 -8.95044
518 1 20.4415 11.007 11.007 -8.94966
519 1 1.57242 14.1518 11.007 -8.94966
520 1 4.71711 14.1519 11.007 -8.95045
521 1 7.85838 14.1554 11.011 -8.96987
522 1 11.008 14.1524 11.0084 -8.99879
523 1 14.152 14.152 11.007 -8.94933
524 1 17.2966 14.1518 11.007 -8.94965
525 1 20.4415 14.1518 11.007 -8.94963
686 1 20.4415 20.4415 20.4415 -8.94963
391 1 18.8691 18.8691 22.0139 -8.94963
528 1 7.86202 17.2968 11.007 -8.94979
529 1 11.007 17.2967 11.007 -8.94898
530 1 14.1518 17.2966 11.0069 -8.94969
685 1 18.8691 18.8691 18.8691 -8.94963
684 1 17.2966 20.4415 20.4415 -8.94963
533 1 1.57242 20.4415 11.007 -8.94963
381 1 3.14484 18.8691 22.0139 -8.94963
535 1 7.86211 20.4415 11.007 -8.94966
536 1 11.007 20.4415 11.007 -8.94964
537 1 14.1518 20.4415 11.007 -8.94964
683 1 15.7242 18.8691 18.8691 -8.94963
539 1 20.4415 20.4415 11.007 -8.94963
540 1 1.57242 11.007 14.1518 -8.94963
541 1 4.71727 11.007 14.1518 -8.9498
542 1 7.86249 11.007 14.1516 -9.01209
543 1 11.0067 11.007 14.1556 -9.03093
544 1 14.1519 11.007 14.1519 -8.95164
545 1 17.2966 11.007 14.1518 -8.94964
546 1 20.4415 11.007 14.1518 -8.94963
547 1 22.0139 12.5794 12.5794 -8.94965
548 1 1.57242 14.1518 14.1518 -8.94963
549 1 3.14478 12.5794 12.5794 -8.94982
550 1 4.71721 14.1519 14.1519 -8.94903
551 1 6.28823 12.5807 12.5807 -8.99193
552 1 7.86228 14.1513 14.1514 -8.95105
553 1 9.43332 12.583 12.5825 -9.06858
554 1 11.0067 14.1512 14.1512 -8.95202
555 1 12.5849 12.5849 12.5846 -8.94609
556 1 14.152 14.152 14.152 -8.94695
557 1 15.7244 12.5794 12.5794 -8.95054
558 1 17.2966 14.1518 14.1518 -8.94964
559 1 18.8691 12.5794 12.5794 -8.94967
560 1 20.4415 14.1518 14.1518 -8.94963
561 1 22.0139 15.7242 12.5794 -8.94963
562 1 1.57242 17.2966 14.1518 -8.94963
563 1 3.14484 15.7242 12.5794 -8.94967
564 1 4.71726 17.2966 14.1518 -8.94957
565 1 6.28954 15.7244 12.5795 -8.94826
566 1 7.86211 17.2966 14.1518 -8.94956
567 1 9.43457 15.7245 12.5793 -8.9517
568 1 11.007 17.2966 14.1518 -8.94943
569 1 12.5794 15.7244 12.5794 -8.95071
570 1 14.1518 17.2966 14.1518 -8.94965
571 1 15.7242 15.7242 12.5794 -8.94972
572 1 17.2966 17.2966 14.1518 -8.94964
573 1 18.8691 15.7242 12.5794 -8.94963
574 1 20.4415 17.2966 14.1518 -8.94963
575 1 22.0139 18.8691 12.5794 -8.94963
576 1 1.57242 20.4415 14.1518 -8.94963
577 1 3.14484 18.8691 12.5794 -8.94964
578 1 4.71726 20.4415 14.1518 -8.94963
579 1 6.28968 18.8691 12.5794 -8.94963
580 1 7.86211 20.4415 14.1518 -8.94963
581 1 9.43453 18.8691 12.5794 -8.94973
582 1 11.007 20.4415 14.1518 -8.94963
583 1 12.5794 18.8691 12.5794 -8.94965
584 1 14.1518 20.4415 14.1518 -8.94963
585 1 15.7242 18.8691 12.5794 -8.94963
586 1 17.2966 20.4415 14.1518 -8.94963
587 1 18.8691 18.8691 12.5794 -8.94963
588 1 20.4415 20.4415 14.1518 -8.94963
589 1 1.57242 11.007 17.2966 -8.94963
590 1 4.71726 11.007 17.2966 -8.94962
591 1 7.8621 11.007 17.2966 -8.9495
592 1 11.007 11.007 17.2968 -8.95054
593 1 14.1518 11.007 17.2966 -8.94964
594 1 17.2966 11.007 17.2966 -8.94964
595 1 20.4415 11.007 17.2966 -8.94963
596 1 22.0139 12.5794 15.7242 -8.94963
597 1 1.57242 14.1518 17.2966 -8.94964
598 1 3.14485 12.5794 15.7242 -8.94967
599 1 4.71726 14.1518 17.2966 -8.94964
600 1 6.2897 12.5794 15.7242 -8.95019
601 1 7.8621 14.1518 17.2966 -8.94942
602 1 9.43446 12.5795 15.7246 -8.94964
603 1 11.007 14.1518 17.2966 -8.94943
604 1 12.5794 12.5794 15.7244 -8.9505
605 1 14.1518 14.1518 17.2966 -8.94963
606 1 15.7242 12.5794 15.7242 -8.94976
607 1 17.2966 14.1518 17.2966 -8.94964
608 1 18.8691 12.5794 15.7242 -8.94963
609 1 20.4415 14.1518 17.2966 -8.94963
610 1 22.0139 15.7242 15.7242 -8.94963
611 1 1.57242 17.2966 17.2966 -8.94963
612 1 3.14484 15.7242 15.7242 -8.9496
613 1 4.71727 17.2966 17.2966 -8.94965
614 1 6.28971 15.7242 15.7242 -8.94988
615 1 7.86211 17.2966 17.2966 -8.94964
616 1 9.43453 15.7242 15.7242 -8.95002
617 1 11.0069 17.2966 17.2966 -8.94964
618 1 12.5793 15.7242 15.7242 -8.95001
619 1 14.1518 17.2966 17.2966 -8.94966
620 1 15.7242 15.7242 15.7242 -8.94952
621 1 17.2966 17.2966 17.2966 -8.94963
622 1 18.8691 15.7242 15.7242 -8.94963
623 1 20.4415 17.2966 17.2966 -8.94963
624 1 22.0139 18.8691 15.7242 -8.94963
625 1 1.57242 20.4415 17.2966 -8.94963
626 1 3.14484 18.8691 15.7242 -8.94963
627 1 4.71726 20.4415 17.2966 -8.94963
628 1 6.28969 18.8691 15.7242 -8.94963
629 1 7.86211 20.4415 17.2966 -8.94963
630 1 9.43453 18.8691 15.7242 -8.94963
631 1 11.007 20.4415 17.2966 -8.94963
632 1 12.5794 18.8691 15.7242 -8.94963
633 1 14.1518 20.4415 17.2966 -8.94963
634 1 15.7242 18.8691 15.7242 -8.94963
635 1 17.2966 20.4415 17.2966 -8.94963
636 1 18.8691 18.8691 15.7242 -8.94963
637 1 20.4415 20.4415 17.2966 -8.94963
638 1 1.57242 11.007 20.4415 -8.94963
639 1 4.71726 11.007 20.4415 -8.94963
640 1 7.86211 11.007 20.4415 -8.94963
641 1 11.007 11.007 20.4415 -8.9497
642 1 14.1518 11.007 20.4415 -8.94963
643 1 17.2966 11.007 20.4415 -8.94963
644 1 20.4415 11.007 20.4415 -8.94963
645 1 22.0139 12.5794 18.8691 -8.94963
646 1 1.57242 14.1518 20.4415 -8.94963
647 1 3.14484 12.5794 18.8691 -8.94963
648 1 4.71726 14.1518 20.4415 -8.94963
649 1 6.28969 12.5794 18.8691 -8.94965
650 1 7.86211 14.1518 20.4415 -8.94963
651 1 9.43453 12.5794 18.8691 -8.94973
652 1 11.007 14.1518 20.4415 -8.94963
653 1 12.5794 12.5794 18.8691 -8.94967
654 1 14.1518 14.1518 20.4415 -8.94963
655 1 15.7242 12.5794 18.8691 -8.94963
656 1 17.2966 14.1518 20.4415 -8.94963
657 1 18.8691 12.5794 18.8691 -8.94963
658 1 20.4415 14.1518 20.4415 -8.94963
659 1 22.0139 15.7242 18.8691 -8.94963
660 1 1.57242 17.2966 20.4415 -8.94963
661 1 3.14484 15.7242 18.8691 -8.94963
662 1 4.71726 17.2966 20.4415 -8.94963
663 1 6.28969 15.7242 18.8691 -8.94962
664 1 7.86211 17.2966 20.4415 -8.94963
665 1 9.43453 15.7242 18.8691 -8.94963
666 1 11.007 17.2966 20.4415 -8.94963
667 1 12.5794 15.7242 18.8691 -8.94963
668 1 14.1518 17.2966 20.4415 -8.94963
669 1 15.7242 15.7242 18.8691 -8.94963
670 1 17.2966 17.2966 20.4415 -8.94963
671 1 18.8691 15.7242 18.8691 -8.94963
672 1 20.4415 17.2966 20.4415 -8.94963
673 1 6.84642e-10 18.8691 18.8691 -8.94963
674 1 1.57242 20.4415 20.4415 -8.94963
675 1 3.14484 18.8691 18.8691 -8.94963
676 1 4.71726 20.4415 20.4415 -8.94963
677 1 6.28969 18.8691 18.8691 -8.94963
678 1 7.86211 20.4415 20.4415 -8.94963
679 1 9.43453 18.8691 18.8691 -8.94963
680 1 11.007 20.4415 20.4415 -8.94963
681 1 12.5794 18.8691 18.8691 -8.94963
682 1 14.1518 20.4415 20.4415 -8.94963
355 1 6.28969 12.5794 22.0139 -8.94964
357 1 9.43453 12.5794 22.0139 -8.94964
359 1 12.5794 12.5794 22.0139 -8.94966
365 1 8.34549e-11 15.7242 22.0139 -8.94963
367 1 3.14484 15.7242 22.0139 -8.94963
369 1 6.28969 15.7242 22.0139 -8.94963
375 1 15.7242 15.7242 22.0139 -8.94963
379 1 22.0139 18.8691 22.0139 -8.94963
351 1 22.0139 12.5794 22.0139 -8.94963
363 1 18.8691 12.5794 22.0139 -8.94963
385 1 9.43453 18.8691 22.0139 -8.94963
387 1 12.5794 18.8691 22.0139 -8.94963
