ITEM: TIMESTEP
91
ITEM: NUMBER OF ATOMS
688
ITEM: BOX BOUNDS pp pp pp
0.0000000000000000e+00 2.2013900999999997e+01
0.0000000000000000e+00 2.2013900999999997e+01
0.0000000000000000e+00 2.2013900999999997e+01
ITEM: ATOMS id type x y z c_pot
189 1 20.4405 4.71576 11.0071 -8.94954
2 1 1.57174 1.57193 1.57171 -8.94916
175 1 18.8671 9.43435 9.43531 -8.94784
4 1 4.71667 1.57192 1.57168 -8.94959
174 1 15.7196 9.43611 9.43823 -8.94434
6 1 7.86174 1.57198 1.57202 -8.94944
7 1 9.43428 1.12387e-14 0.000120021 -8.94948
8 1 11.0067 1.57197 1.57228 -8.94949
173 1 12.5624 9.43958 9.43335 -8.94831
10 1 14.1518 1.57184 1.57238 -8.94952
172 1 9.35928 9.19735 9.43485 -8.35227
12 1 17.297 1.57164 1.5722 -8.94946
188 1 17.2976 4.7153 11.0072 -8.94892
14 1 20.4414 1.57192 1.5722 -8.94944
171 1 6.27211 9.42465 9.43382 -9.01889
16 1 1.5719 4.71657 1.57162 -8.94979
170 1 3.13623 9.43333 9.43396 -8.95062
18 1 4.71597 4.71606 1.57075 -8.94956
169 1 22.01 9.4341 9.43433 -8.94965
20 1 7.86136 4.71624 1.57162 -8.94912
183 1 1.56888 4.71504 11.0076 -8.94926
22 1 11.0066 4.71611 1.57196 -8.94937
181 1 17.2968 1.57167 11.0068 -8.94949
24 1 14.1523 4.71563 1.57172 -8.94984
168 1 18.8688 6.28825 9.43451 -8.94953
26 1 17.2982 4.71521 1.57151 -8.94827
167 1 15.726 6.28713 9.43513 -8.94525
28 1 20.442 4.71628 1.572 -8.9495
166 1 12.5778 6.29076 9.43673 -8.9465
30 1 1.57222 7.86178 1.5718 -8.94943
165 1 9.429 6.2933 9.43792 -9.00605
32 1 4.71677 7.8622 1.57185 -8.94978
164 1 6.27638 6.27908 9.4361 -8.94363
34 1 7.86156 7.86194 1.57169 -8.9521
35 1 9.43393 6.28891 0.000139981 -8.94962
36 1 11.0063 7.86111 1.57142 -8.95046
37 1 12.5794 6.28856 0.000308462 -8.94979
38 1 14.1537 7.86016 1.56973 -8.95178
163 1 3.13747 6.28595 9.43475 -8.94918
40 1 17.2986 7.8608 1.5715 -8.94914
162 1 22.0108 6.28811 9.43432 -8.94998
42 1 20.4423 7.86145 1.57196 -8.94939
158 1 9.43326 3.14449 9.43526 -8.94675
44 1 3.14484 9.43448 -0.000131737 -8.94959
161 1 18.8687 3.14376 9.43422 -8.94948
160 1 15.7245 3.1435 9.4344 -8.94941
159 1 12.5788 3.14457 9.43506 -8.94855
48 1 15.7262 9.43377 0.000140453 -8.94941
157 1 6.28584 3.14076 9.43494 -8.94986
50 1 22.0132 8.26676e-15 3.14423 -8.94943
51 1 1.57104 1.57171 4.71621 -8.94943
52 1 3.14378 1.92402e-13 3.14371 -8.94952
53 1 4.71571 1.57113 4.71588 -8.95002
54 1 6.28913 6.92499e-14 3.14404 -8.94956
55 1 7.86145 1.5715 4.71657 -8.94966
56 1 9.43424 7.60487e-14 3.14441 -8.94954
57 1 11.0066 1.5717 4.71687 -8.9496
58 1 12.5792 1.01631e-13 3.14462 -8.94952
59 1 14.1517 1.57144 4.71703 -8.95071
60 1 15.7243 5.99491e-14 3.14459 -8.95007
61 1 17.2964 1.57188 4.71706 -8.94975
62 1 18.8689 -3.7028e-15 3.14461 -8.94966
63 1 20.4408 1.57194 4.71671 -8.94944
64 1 22.013 3.14396 3.14397 -8.94947
65 1 1.56982 4.71557 4.71552 -8.94948
66 1 3.143 3.14328 3.14301 -8.94839
67 1 4.71228 4.71295 4.71312 -8.94521
68 1 6.28858 3.14344 3.14357 -8.94965
69 1 7.86 4.7142 4.71556 -8.94922
70 1 9.43395 3.14368 3.14416 -8.94939
71 1 11.0064 4.71472 4.71592 -8.94802
72 1 12.5792 3.14357 3.1443 -8.94924
73 1 14.1541 4.71258 4.71476 -8.94995
74 1 15.7251 3.1428 3.14387 -8.94949
75 1 17.2975 4.71563 4.71661 -8.95022
76 1 18.8692 3.1438 3.14438 -8.94974
77 1 20.4407 4.71625 4.71654 -8.94987
78 1 22.0135 6.28892 3.14394 -8.94981
79 1 1.5704 7.86152 4.71603 -8.94983
80 1 3.14313 6.2888 3.14327 -8.95027
81 1 4.71341 7.86124 4.71546 -8.95123
82 1 6.28652 6.28714 3.14115 -8.95007
83 1 7.8553 7.85654 4.71025 -8.95362
84 1 9.43322 6.28756 3.14321 -8.94772
85 1 11.0062 7.85802 4.71142 -8.95214
86 1 12.5799 6.28724 3.14236 -8.94961
87 1 14.1645 7.84994 4.70509 -8.92971
88 1 15.7284 6.2851 3.14097 -8.94464
89 1 17.3005 7.85983 4.71524 -8.95073
90 1 18.8705 6.28819 3.14379 -8.94965
91 1 20.4416 7.86137 4.71638 -8.95019
92 1 -0.000197309 9.43422 3.1439 -8.94952
93 1 3.14355 9.43433 3.14375 -8.94899
94 1 6.28876 9.43517 3.14507 -8.94951
95 1 9.43444 9.43455 3.14647 -8.95014
96 1 12.5821 9.43318 3.13813 -8.95981
97 1 15.7283 9.43293 3.1415 -8.94749
98 1 18.8708 9.43393 3.14368 -8.94925
99 1 22.0128 8.78192e-15 6.28899 -8.94946
100 1 1.5706 1.57157 7.86149 -8.94947
101 1 3.14317 1.19451e-13 6.28871 -8.94945
102 1 4.715 1.57089 7.86148 -8.94955
103 1 6.28857 1.78283e-12 6.28903 -8.95056
104 1 7.86099 1.57109 7.86217 -8.95107
105 1 9.43408 1.10378e-12 6.28947 -8.95012
106 1 11.0062 1.57219 7.86249 -8.94939
107 1 12.5788 5.89901e-13 6.28982 -8.95043
108 1 14.1514 1.57202 7.86223 -8.94949
109 1 15.7239 -1.05064e-13 6.28962 -8.94962
110 1 17.2964 1.57189 7.86174 -8.94942
111 1 18.8686 1.66859e-14 6.28925 -8.94943
112 1 20.4406 1.57187 7.8616 -8.94947
113 1 -0.00156197 3.14373 6.28882 -8.9494
114 1 1.56895 4.71515 7.86122 -8.94935
115 1 3.14211 3.14276 6.28827 -8.94926
116 1 4.7114 4.71264 7.86074 -8.94801
117 1 6.28696 3.14127 6.28822 -8.95152
118 1 7.85752 4.71059 7.86212 -8.958
119 1 9.43367 3.14283 6.28929 -8.9504
120 1 11.0054 4.71643 7.86317 -8.95136
121 1 12.579 3.1429 6.28971 -8.95248
122 1 14.1518 4.71609 7.8631 -8.94922
123 1 15.7241 3.14382 6.28971 -8.94972
124 1 17.2968 4.71597 7.8619 -8.94868
125 1 18.8686 3.14399 6.28923 -8.94932
126 1 20.4402 4.71602 7.86155 -8.94949
127 1 22.0113 6.28844 6.28864 -8.95009
128 1 1.56678 7.86054 7.86106 -8.9514
129 1 3.13847 6.28643 6.28692 -8.95008
130 1 4.70285 7.85654 7.8593 -8.95628
131 1 6.27586 6.27798 6.27966 -8.93236
132 1 7.81959 7.83089 7.83523 -8.88784
133 1 9.43191 6.28288 6.28769 -8.95187
134 1 11.0226 7.85589 7.84169 -8.94637
135 1 12.5848 6.27951 6.28411 -8.95316
136 1 14.1562 7.85995 7.86472 -8.95172
137 1 15.7264 6.28744 6.28931 -8.95115
138 1 17.2968 7.86177 7.86361 -8.95101
139 1 18.8688 6.28883 6.28951 -8.95019
140 1 20.4395 7.86144 7.86193 -8.95007
141 1 22.0119 9.43424 6.2888 -8.94993
142 1 3.14049 9.43459 6.28854 -8.95003
143 1 6.28232 9.43623 6.28925 -8.95221
144 1 9.41813 9.41412 6.29029 -8.94926
145 1 12.6205 9.40083 6.25343 -8.85203
146 1 15.7338 9.43204 6.28658 -8.95758
147 1 18.8703 9.43416 6.28926 -8.9518
148 1 -0.00125974 2.79177e-15 9.43427 -8.94948
149 1 3.14285 1.87834e-13 9.43442 -8.9495
150 1 6.28797 1.7377e-12 9.43461 -8.9504
151 1 9.43386 3.36431e-12 9.43465 -8.94843
152 1 12.5789 -9.41226e-14 9.43456 -8.94925
153 1 15.7241 -1.92096e-14 9.43425 -8.94966
154 1 18.8687 1.03392e-14 9.43418 -8.94949
155 1 22.0122 3.14356 9.43427 -8.94945
156 1 3.14161 3.14256 9.4345 -8.94945
177 1 4.71485 1.57079 11.0077 -8.94948
184 1 4.71108 4.71242 11.0091 -8.94744
3 1 3.14452 7.49563e-15 -0.000207586 -8.94953
11 1 15.7243 6.73589e-15 0.000360378 -8.94955
41 1 18.8703 6.28856 0.000260129 -8.94938
19 1 6.28926 3.14428 -0.000200553 -8.94945
25 1 15.7247 3.14366 0.000338057 -8.94965
176 1 1.57057 1.57152 11.0072 -8.94945
47 1 12.5797 9.43429 22.0141 -8.9518
178 1 7.86093 1.57078 11.0075 -8.95139
179 1 11.0063 1.57183 11.0071 -8.94937
180 1 14.1519 1.57158 11.0069 -8.9496
343 1 18.8713 9.43388 18.8713 -8.94932
182 1 20.4408 1.57178 11.0069 -8.94948
342 1 15.7275 9.43337 18.8733 -8.94917
46 1 9.43433 9.43467 22.015 -8.94906
185 1 7.85747 4.7092 11.0098 -8.95904
186 1 11.0062 4.71539 11.0089 -8.95063
187 1 14.1531 4.71465 11.0073 -8.94873
341 1 12.5809 9.43387 18.8741 -8.9523
340 1 9.43489 9.43462 18.8708 -8.94941
190 1 1.56691 7.86068 11.0077 -8.95143
191 1 4.7032 7.85733 11.0108 -8.95792
192 1 7.81957 7.82587 11.0441 -8.90986
193 1 11.0261 7.85502 11.0369 -8.96216
194 1 14.158 7.85809 11.0078 -8.95066
195 1 17.2983 7.86056 11.0075 -8.95034
196 1 20.44 7.86114 11.0072 -8.95012
197 1 22.0129 8.27301e-15 12.5798 -8.94947
198 1 1.57099 1.57156 14.1529 -8.94945
199 1 3.14301 1.29671e-13 12.5803 -8.94943
200 1 4.71535 1.57085 14.1536 -8.95004
201 1 6.28833 1.70157e-12 12.5803 -8.95074
202 1 7.86128 1.57116 14.1532 -8.94964
203 1 9.43408 1.14592e-12 12.5801 -8.9501
204 1 11.0068 1.57091 14.1532 -8.94986
205 1 12.5792 6.22931e-13 12.5796 -8.9509
206 1 14.1526 1.57046 14.153 -8.95113
207 1 15.7246 -6.28523e-14 12.5794 -8.94965
208 1 17.2973 1.57137 14.1524 -8.94968
209 1 18.869 1.21096e-14 12.5795 -8.94947
210 1 20.4412 1.57171 14.1524 -8.94944
211 1 22.0125 3.14349 12.58 -8.9494
212 1 1.56974 4.71522 14.1538 -8.94973
213 1 3.14185 3.14253 12.5809 -8.94922
214 1 4.71145 4.71213 14.1571 -8.94449
215 1 6.28652 3.14051 12.5818 -8.9517
216 1 7.86 4.71318 14.1556 -8.94932
217 1 9.43399 3.1419 12.5813 -8.95035
218 1 11.0075 4.712 14.1566 -8.94798
219 1 12.5799 3.14099 12.5807 -8.95353
220 1 14.1568 4.70915 14.1574 -8.95027
221 1 15.7253 3.14267 12.5799 -8.9495
222 1 17.2992 4.71427 14.1536 -8.95017
223 1 18.8693 3.14346 12.5797 -8.94934
224 1 20.4415 4.71566 14.1529 -8.94984
225 1 22.0117 6.28816 12.5803 -8.95025
226 1 1.57006 7.86109 14.1536 -8.94949
227 1 3.13819 6.28625 12.5825 -8.95104
228 1 4.71293 7.86086 14.155 -8.95071
229 1 6.27459 6.2759 12.5929 -8.93053
230 1 7.8559 7.85485 14.1641 -8.95314
231 1 9.43403 6.28077 12.587 -8.95128
232 1 11.0098 7.85263 14.1676 -8.94665
233 1 12.5882 6.27383 12.5904 -8.95664
234 1 14.1725 7.843 14.1735 -8.92122
235 1 15.7289 6.2855 12.5818 -8.95065
236 1 17.3037 7.85841 14.1565 -8.95226
237 1 18.8702 6.28794 12.5802 -8.94985
238 1 20.4425 7.8609 14.1534 -8.95057
239 1 22.0118 9.43403 12.5805 -8.95
240 1 3.13917 9.43372 12.5817 -8.94762
241 1 6.28381 9.43374 12.5827 -8.97881
242 1 9.42506 9.41053 12.5958 -8.95292
243 1 12.6325 9.38403 12.6348 -8.85808
244 1 15.7367 9.43146 12.5868 -8.96249
245 1 18.8713 9.43399 12.5809 -8.95246
246 1 -0.000553219 8.04511e-15 15.7252 -8.94947
247 1 1.57169 1.57178 17.298 -8.94909
248 1 3.14357 1.79357e-13 15.7257 -8.94951
249 1 4.7165 1.5718 17.2979 -8.9496
250 1 6.2889 8.76217e-14 15.7255 -8.94955
251 1 7.86151 1.57177 17.2979 -8.94936
252 1 9.43409 9.77645e-14 15.7255 -8.94956
253 1 11.0068 1.57157 17.2981 -8.94946
254 1 12.5795 1.02117e-13 15.7256 -8.94966
255 1 14.1523 1.57124 17.2983 -8.94953
256 1 15.7251 7.17702e-14 15.7255 -8.95029
257 1 17.2979 1.57111 17.2983 -8.94942
258 1 18.8695 -1.75867e-15 15.725 -8.94964
259 1 20.4418 1.5717 17.2977 -8.94948
260 1 22.0133 3.1436 15.7256 -8.94951
261 1 1.57191 4.7163 17.2982 -8.94982
262 1 3.14266 3.1429 15.7266 -8.94818
263 1 4.71563 4.7158 17.2992 -8.94956
264 1 6.28827 3.14305 15.7264 -8.94965
265 1 7.8611 4.71572 17.299 -8.94882
266 1 9.43388 3.14275 15.7265 -8.94925
267 1 11.007 4.71494 17.2997 -8.94923
268 1 12.5801 3.14195 15.7268 -8.94919
269 1 14.1537 4.71386 17.3006 -8.94947
270 1 15.7267 3.1411 15.7271 -8.9495
271 1 17.2999 4.71369 17.3002 -8.94734
272 1 18.8702 3.1431 15.7256 -8.94977
273 1 20.4427 4.7157 17.2984 -8.9495
274 1 22.0138 6.28845 15.7259 -8.94986
275 1 1.57233 7.86166 17.298 -8.94955
276 1 3.14276 6.28853 15.7265 -8.95017
277 1 4.71672 7.86226 17.298 -8.95003
278 1 6.28599 6.28656 15.7298 -8.94993
279 1 7.86193 7.86178 17.2995 -8.95274
280 1 9.4336 6.28583 15.7298 -8.94646
281 1 11.0077 7.85977 17.3026 -8.95092
282 1 12.5826 6.28387 15.732 -8.94845
283 1 14.1566 7.8581 17.3052 -8.95192
284 1 15.7324 6.28164 15.7328 -8.942
285 1 17.3007 7.85977 17.3008 -8.94883
286 1 18.8723 6.28707 15.727 -8.94996
287 1 20.4431 7.86107 17.2986 -8.94936
288 1 22.0142 9.43406 15.726 -8.94954
289 1 3.14358 9.43444 15.7258 -8.94931
290 1 6.28957 9.43555 15.7251 -8.95002
291 1 9.43736 9.43446 15.728 -8.95339
292 1 12.587 9.4308 15.7402 -8.96113
293 1 15.7322 9.43172 15.7328 -8.94661
294 1 18.8727 9.43346 15.7275 -8.94918
295 1 22.0139 1.01908e-14 18.8699 -8.94916
296 1 1.57227 1.57201 20.4419 -8.94934
297 1 3.14447 9.14784e-15 18.8699 -8.94956
298 1 4.71697 1.57211 20.4418 -8.94949
299 1 6.28927 6.08557e-15 18.8699 -8.94941
300 1 7.86176 1.57207 20.4419 -8.94946
301 1 9.43419 8.80128e-15 18.87 -8.94946
302 1 11.0067 1.57197 20.4422 -8.94947
303 1 12.5793 8.3467e-15 18.8701 -8.94947
304 1 14.1519 1.57181 20.4423 -8.94946
305 1 15.7247 6.24823e-15 18.8703 -8.94953
306 1 17.2972 1.57169 20.4424 -8.94952
307 1 18.8698 6.67116e-15 18.8702 -8.94921
308 1 20.442 1.57189 20.4421 -8.94905
309 1 0.000285454 3.14404 18.8701 -8.94948
310 1 1.57255 4.71679 20.4419 -8.94972
311 1 3.14427 3.14407 18.8702 -8.94952
312 1 4.71685 4.71679 20.4419 -8.95011
313 1 6.28911 3.14415 18.8701 -8.94937
314 1 7.86158 4.71658 20.4421 -8.94948
315 1 9.43408 3.14389 18.8703 -8.94944
316 1 11.0067 4.7162 20.4426 -8.94953
317 1 12.5795 3.14349 18.8707 -8.94939
318 1 14.1523 4.71575 20.4429 -8.94962
319 1 15.7253 3.14307 18.871 -8.94955
320 1 17.2982 4.71545 20.4429 -8.94942
321 1 18.8704 3.1433 18.8706 -8.94878
322 1 20.4424 4.71632 20.4423 -8.94943
323 1 22.0146 6.28895 18.8702 -8.9495
324 1 1.57275 7.86184 20.4419 -8.94955
325 1 3.14469 6.28943 18.87 -8.94987
326 1 4.71727 7.86223 20.4418 -8.94968
327 1 6.28914 6.28932 18.8706 -8.95075
328 1 7.86198 7.86217 20.4422 -8.95028
329 1 9.43402 6.2885 18.8713 -8.94961
330 1 11.0067 7.86142 20.4432 -8.9504
331 1 12.5801 6.28774 18.8725 -8.94972
332 1 14.1531 7.86085 20.4438 -8.95103
333 1 15.7269 6.28693 18.8729 -8.94998
334 1 17.2987 7.86087 20.4431 -8.94924
335 1 18.871 6.28813 18.8711 -8.94931
336 1 20.4427 7.86144 20.4424 -8.94942
337 1 22.0147 9.43423 18.8703 -8.94949
338 1 3.14482 9.43449 18.8699 -8.94959
339 1 6.2897 9.43482 18.8696 -8.94942
45 1 6.28964 9.43475 22.0142 -8.94945
5 1 6.28939 8.44784e-15 22.0138 -8.94946
9 1 12.5792 8.27966e-15 22.0142 -8.94949
39 1 15.7257 6.2879 22.0139 -8.95011
15 1 22.014 3.14423 22.0139 -8.94949
17 1 3.14435 3.14419 22.0135 -8.94952
33 1 6.28923 6.28938 22.0134 -8.95062
31 1 3.14473 6.28948 22.0137 -8.94981
27 1 18.8699 3.14371 22.0141 -8.94907
29 1 0.000452329 6.28913 22.0139 -8.94948
1 1 -8.50233e-05 9.10791e-15 22.0139 -8.94913
13 1 18.8694 4.94243e-15 22.0141 -8.94929
21 1 9.43416 3.14416 22.014 -8.94947
23 1 12.5793 3.14398 22.0142 -8.94944
43 1 22.0145 9.43431 22.014 -8.94951
49 1 18.8706 9.43407 22.0142 -8.94941
344 1 1.5723 11.007 1.57183 -8.94956
345 1 4.71677 11.007 1.57199 -8.94972
346 1 7.86199 11.007 1.57396 -8.94838
347 1 11.0066 11.007 1.57375 -8.94655
348 1 14.1545 11.007 1.56974 -8.94973
349 1 17.2988 11.007 1.5715 -8.94941
350 1 20.4424 11.007 1.57194 -8.94945
538 1 17.2968 20.4422 11.0068 -8.94949
352 1 1.57222 14.1521 1.5718 -8.94943
353 1 3.14484 12.5794 -0.000131737 -8.94959
354 1 4.71677 14.1517 1.57185 -8.94978
688 3 10.2572 11.007 9.45932 2.2027
356 1 7.86156 14.152 1.57169 -8.9521
511 1 18.8687 18.8701 9.43422 -8.94948
358 1 11.0063 14.1528 1.57142 -8.95046
510 1 15.7245 18.8704 9.4344 -8.94941
360 1 14.1537 14.1537 1.56973 -8.95178
361 1 15.7262 12.5801 0.000140453 -8.94941
362 1 17.2986 14.1531 1.5715 -8.94914
532 1 20.4405 17.2981 11.0071 -8.94954
364 1 20.4423 14.1524 1.57196 -8.94939
509 1 12.5788 18.8693 9.43506 -8.94855
366 1 1.5719 17.2973 1.57162 -8.94979
508 1 9.43326 18.8694 9.43526 -8.94675
368 1 4.71597 17.2978 1.57075 -8.94956
507 1 6.28584 18.8731 9.43494 -8.94986
370 1 7.86136 17.2977 1.57162 -8.94912
371 1 9.43393 15.725 0.000139981 -8.94962
372 1 11.0066 17.2978 1.57196 -8.94937
373 1 12.5794 15.7253 0.000308462 -8.94979
374 1 14.1523 17.2983 1.57172 -8.94984
506 1 3.14161 18.8713 9.4345 -8.94945
376 1 17.2982 17.2987 1.57151 -8.94827
505 1 22.0122 18.8703 9.43427 -8.94945
378 1 20.442 17.2976 1.572 -8.9495
504 1 18.8688 15.7256 9.43451 -8.94953
380 1 1.57174 20.442 1.57171 -8.94916
503 1 15.726 15.7268 9.43513 -8.94525
382 1 4.71667 20.442 1.57168 -8.94959
502 1 12.5778 15.7231 9.43673 -8.9465
384 1 7.86174 20.4419 1.57202 -8.94944
531 1 17.2976 17.2986 11.0072 -8.94892
386 1 11.0067 20.4419 1.57228 -8.94949
687 2 9.55897 11.007 10.2363 -0.0214624
388 1 14.1518 20.4421 1.57238 -8.94952
501 1 9.429 15.7206 9.43792 -9.00605
390 1 17.297 20.4423 1.5722 -8.94946
500 1 6.27638 15.7348 9.4361 -8.94363
392 1 20.4414 20.442 1.5722 -8.94944
393 1 1.57049 11.007 4.71592 -8.94949
394 1 4.714 11.007 4.7157 -8.94593
395 1 7.86297 11.007 4.72206 -8.94781
396 1 11.011 11.007 4.72371 -9.00519
397 1 14.1623 11.007 4.70781 -8.94173
398 1 17.3008 11.007 4.71494 -8.94906
399 1 20.4418 11.007 4.71622 -8.94996
400 1 -0.000197309 12.5797 3.1439 -8.94952
401 1 1.5704 14.1524 4.71603 -8.94983
402 1 3.14355 12.5796 3.14375 -8.94899
403 1 4.71341 14.1527 4.71546 -8.95123
404 1 6.28876 12.5787 3.14507 -8.94951
405 1 7.8553 14.1574 4.71025 -8.95362
406 1 9.43444 12.5794 3.14647 -8.95014
407 1 11.0062 14.1559 4.71142 -8.95214
408 1 12.5821 12.5807 3.13813 -8.95981
409 1 14.1645 14.164 4.70509 -8.92971
410 1 15.7283 12.581 3.1415 -8.94749
411 1 17.3005 14.1541 4.71524 -8.95073
412 1 18.8708 12.58 3.14368 -8.94925
413 1 20.4416 14.1525 4.71638 -8.95019
414 1 22.0135 15.725 3.14394 -8.94981
415 1 1.56982 17.2983 4.71552 -8.94948
416 1 3.14313 15.7251 3.14327 -8.95027
417 1 4.71228 17.3009 4.71312 -8.94521
418 1 6.28652 15.7268 3.14115 -8.95007
419 1 7.86 17.2997 4.71556 -8.94922
420 1 9.43322 15.7263 3.14321 -8.94772
421 1 11.0064 17.2992 4.71592 -8.94802
422 1 12.5799 15.7267 3.14236 -8.94961
423 1 14.1541 17.3013 4.71476 -8.94995
424 1 15.7284 15.7288 3.14097 -8.94464
425 1 17.2975 17.2983 4.71661 -8.95022
426 1 18.8705 15.7257 3.14379 -8.94965
427 1 20.4407 17.2977 4.71654 -8.94987
428 1 22.013 18.8699 3.14397 -8.94947
429 1 1.57104 20.4422 4.71621 -8.94943
430 1 3.143 18.8706 3.14301 -8.94839
431 1 4.71571 20.4428 4.71588 -8.95002
432 1 6.28858 18.8705 3.14357 -8.94965
433 1 7.86145 20.4424 4.71657 -8.94966
434 1 9.43395 18.8702 3.14416 -8.94939
435 1 11.0066 20.4422 4.71687 -8.9496
436 1 12.5792 18.8703 3.1443 -8.94924
437 1 14.1517 20.4425 4.71703 -8.95071
438 1 15.7251 18.8711 3.14387 -8.94949
439 1 17.2964 20.442 4.71706 -8.94975
440 1 18.8692 18.8701 3.14438 -8.94974
441 1 20.4408 20.442 4.71671 -8.94944
442 1 1.56835 11.007 7.86129 -8.94773
443 1 4.71351 11.007 7.8628 -8.94096
444 1 7.87349 11.007 7.8701 -8.95229
445 1 11.0875 11.007 7.62776 -8.17016
446 1 14.1593 11.007 7.85597 -8.9698
447 1 17.2973 11.007 7.86333 -8.95157
448 1 20.4397 11.007 7.86201 -8.9496
449 1 22.0119 12.5797 6.2888 -8.94993
450 1 1.56678 14.1534 7.86106 -8.9514
451 1 3.14049 12.5793 6.28854 -8.95003
452 1 4.70285 14.1574 7.8593 -8.95628
453 1 6.28232 12.5777 6.28925 -8.95221
454 1 7.81959 14.183 7.83523 -8.88784
455 1 9.41813 12.5998 6.29029 -8.94926
456 1 11.0226 14.158 7.84169 -8.94637
457 1 12.6205 12.6131 6.25343 -8.85203
458 1 14.1562 14.154 7.86472 -8.95172
459 1 15.7338 12.5819 6.28658 -8.95758
460 1 17.2968 14.1521 7.86361 -8.95101
461 1 18.8703 12.5797 6.28926 -8.9518
462 1 20.4395 14.1525 7.86193 -8.95007
463 1 22.0113 15.7255 6.28864 -8.95009
464 1 1.56895 17.2988 7.86122 -8.94935
465 1 3.13847 15.7275 6.28692 -8.95008
466 1 4.7114 17.3013 7.86074 -8.94801
467 1 6.27586 15.7359 6.27966 -8.93236
468 1 7.85752 17.3033 7.86212 -8.958
469 1 9.43191 15.731 6.28769 -8.95187
470 1 11.0054 17.2975 7.86317 -8.95136
471 1 12.5848 15.7344 6.28411 -8.95316
472 1 14.1518 17.2978 7.8631 -8.94922
473 1 15.7264 15.7265 6.28931 -8.95115
474 1 17.2968 17.2979 7.8619 -8.94868
475 1 18.8688 15.7251 6.28951 -8.95019
476 1 20.4402 17.2979 7.86155 -8.94949
477 1 -0.00156197 18.8702 6.28882 -8.9494
478 1 1.5706 20.4423 7.86149 -8.94947
479 1 3.14211 18.8711 6.28827 -8.94926
480 1 4.715 20.443 7.86148 -8.94955
481 1 6.28696 18.8726 6.28822 -8.95152
482 1 7.86099 20.4428 7.86217 -8.95107
483 1 9.43367 18.8711 6.28929 -8.9504
484 1 11.0062 20.4417 7.86249 -8.94939
485 1 12.579 18.871 6.28971 -8.95248
486 1 14.1514 20.4419 7.86223 -8.94949
487 1 15.7241 18.8701 6.28971 -8.94972
488 1 17.2964 20.442 7.86174 -8.94942
489 1 18.8686 18.8699 6.28923 -8.94932
490 1 20.4406 20.442 7.8616 -8.94947
491 1 22.01 12.5798 9.43433 -8.94965
492 1 3.13623 12.5806 9.43396 -8.95062
493 1 6.27211 12.5893 9.43382 -9.01889
494 1 9.35928 12.8166 9.43485 -8.35227
495 1 12.5624 12.5743 9.43335 -8.94831
496 1 15.7196 12.5778 9.43823 -8.94434
497 1 18.8671 12.5796 9.43531 -8.94784
498 1 22.0108 15.7258 9.43432 -8.94998
499 1 3.13747 15.728 9.43475 -8.94918
526 1 1.56888 17.2989 11.0076 -8.94926
527 1 4.71108 17.3015 11.0091 -8.94744
534 1 4.71485 20.4431 11.0077 -8.94948
389 1 15.7247 18.8702 0.000338057 -8.94965
383 1 6.28926 18.8696 -0.000200553 -8.94945
377 1 18.8703 15.7253 0.000260129 -8.94938
512 1 1.56668 11.007 11.0077 -8.95076
513 1 4.70426 11.007 11.0081 -8.95612
514 1 7.82951 11.007 11.0158 -9.12535
515 1 11.1496 11.007 11.2701 -8.32955
516 1 14.1459 11.007 11.0222 -8.98734
517 1 17.2957 11.007 11.0087 -8.94616
518 1 20.4394 11.007 11.0073 -8.9491
519 1 1.56691 14.1532 11.0077 -8.95143
520 1 4.7032 14.1566 11.0108 -8.95792
521 1 7.81957 14.188 11.0441 -8.90986
522 1 11.0261 14.1589 11.0369 -8.96216
523 1 14.158 14.1558 11.0078 -8.95066
524 1 17.2983 14.1533 11.0075 -8.95034
525 1 20.44 14.1528 11.0072 -8.95012
686 1 20.442 20.442 20.4421 -8.94905
391 1 18.8699 18.8702 22.0141 -8.94907
528 1 7.85747 17.3047 11.0098 -8.95904
529 1 11.0062 17.2985 11.0089 -8.95063
530 1 14.1531 17.2992 11.0073 -8.94873
685 1 18.8704 18.8706 18.8706 -8.94878
684 1 17.2972 20.4422 20.4424 -8.94952
533 1 1.57057 20.4424 11.0072 -8.94945
381 1 3.14435 18.8697 22.0135 -8.94952
535 1 7.86093 20.4431 11.0075 -8.95139
536 1 11.0063 20.4421 11.0071 -8.94937
537 1 14.1519 20.4423 11.0069 -8.9496
683 1 15.7253 18.8708 18.871 -8.94955
539 1 20.4408 20.4421 11.0069 -8.94948
540 1 1.57043 11.007 14.1535 -8.94897
541 1 4.71498 11.007 14.1532 -8.94691
542 1 7.86737 11.007 14.1483 -8.99098
543 1 11.0207 11.007 14.1546 -9.05585
544 1 14.1681 11.007 14.1698 -8.94187
545 1 17.3037 11.007 14.1576 -8.94924
546 1 20.4427 11.007 14.1538 -8.95013
547 1 22.0118 12.5799 12.5805 -8.95
548 1 1.57006 14.1528 14.1536 -8.94949
549 1 3.13917 12.5802 12.5817 -8.94762
550 1 4.71293 14.153 14.155 -8.95071
551 1 6.28381 12.5802 12.5827 -8.97881
552 1 7.8559 14.1591 14.1641 -8.95314
553 1 9.42506 12.6034 12.5958 -8.95292
554 1 11.0098 14.1613 14.1676 -8.94665
555 1 12.6325 12.6299 12.6348 -8.85808
556 1 14.1725 14.1709 14.1735 -8.92122
557 1 15.7367 12.5824 12.5868 -8.96249
558 1 17.3037 14.1555 14.1565 -8.95226
559 1 18.8713 12.5799 12.5809 -8.95246
560 1 20.4425 14.153 14.1534 -8.95057
561 1 22.0117 15.7257 12.5803 -8.95025
562 1 1.56974 17.2987 14.1538 -8.94973
563 1 3.13819 15.7276 12.5825 -8.95104
564 1 4.71145 17.3018 14.1571 -8.94449
565 1 6.27459 15.738 12.5929 -8.93053
566 1 7.86 17.3007 14.1556 -8.94932
567 1 9.43403 15.7331 12.587 -8.95128
568 1 11.0075 17.3019 14.1566 -8.94798
569 1 12.5882 15.7401 12.5904 -8.95664
570 1 14.1568 17.3048 14.1574 -8.95027
571 1 15.7289 15.7284 12.5818 -8.95065
572 1 17.2992 17.2996 14.1536 -8.95017
573 1 18.8702 15.726 12.5802 -8.94985
574 1 20.4415 17.2982 14.1529 -8.94984
575 1 22.0125 18.8704 12.58 -8.9494
576 1 1.57099 20.4423 14.1529 -8.94945
577 1 3.14185 18.8714 12.5809 -8.94922
578 1 4.71535 20.443 14.1536 -8.95004
579 1 6.28652 18.8734 12.5818 -8.9517
580 1 7.86128 20.4427 14.1532 -8.94964
581 1 9.43399 18.872 12.5813 -8.95035
582 1 11.0068 20.443 14.1532 -8.94986
583 1 12.5799 18.8729 12.5807 -8.95353
584 1 14.1526 20.4434 14.153 -8.95113
585 1 15.7253 18.8712 12.5799 -8.9495
586 1 17.2973 20.4425 14.1524 -8.94968
587 1 18.8693 18.8704 12.5797 -8.94934
588 1 20.4412 20.4422 14.1524 -8.94944
589 1 1.57237 11.007 17.298 -8.94954
590 1 4.71678 11.007 17.2976 -8.94935
591 1 7.86274 11.007 17.2968 -8.94732
592 1 11.0092 11.007 17.3007 -8.94621
593 1 14.1576 11.007 17.3054 -8.94922
594 1 17.3009 11.007 17.3011 -8.94924
595 1 20.4432 11.007 17.2987 -8.94947
596 1 22.0142 12.5798 15.726 -8.94954
597 1 1.57233 14.1522 17.298 -8.94955
598 1 3.14358 12.5795 15.7258 -8.94931
599 1 4.71672 14.1516 17.298 -8.95003
600 1 6.28957 12.5784 15.7251 -8.95002
601 1 7.86193 14.1521 17.2995 -8.95274
602 1 9.43736 12.5794 15.728 -8.95339
603 1 11.0077 14.1541 17.3026 -8.95092
604 1 12.587 12.5831 15.7402 -8.96113
605 1 14.1566 14.1558 17.3052 -8.95192
606 1 15.7322 12.5822 15.7328 -8.94661
607 1 17.3007 14.1541 17.3008 -8.94883
608 1 18.8727 12.5804 15.7275 -8.94918
609 1 20.4431 14.1528 17.2986 -8.94936
610 1 22.0138 15.7255 15.7259 -8.94986
611 1 1.57191 17.2976 17.2982 -8.94982
612 1 3.14276 15.7254 15.7265 -8.95017
613 1 4.71563 17.2981 17.2992 -8.94956
614 1 6.28599 15.7273 15.7298 -8.94993
615 1 7.8611 17.2982 17.299 -8.94882
616 1 9.4336 15.7281 15.7298 -8.94646
617 1 11.007 17.299 17.2997 -8.94923
618 1 12.5826 15.73 15.732 -8.94845
619 1 14.1537 17.3 17.3006 -8.94947
620 1 15.7324 15.7323 15.7328 -8.942
621 1 17.2999 17.3002 17.3002 -8.94734
622 1 18.8723 15.7268 15.727 -8.94996
623 1 20.4427 17.2982 17.2984 -8.9495
624 1 22.0133 18.8703 15.7256 -8.94951
625 1 1.57169 20.4421 17.298 -8.94909
626 1 3.14266 18.871 15.7266 -8.94818
627 1 4.7165 20.4421 17.2979 -8.9496
628 1 6.28827 18.8709 15.7264 -8.94965
629 1 7.86151 20.4421 17.2979 -8.94936
630 1 9.43388 18.8711 15.7265 -8.94925
631 1 11.0068 20.4423 17.2981 -8.94946
632 1 12.5801 18.8719 15.7268 -8.94919
633 1 14.1523 20.4427 17.2983 -8.94953
634 1 15.7267 18.8728 15.7271 -8.9495
635 1 17.2979 20.4428 17.2983 -8.94942
636 1 18.8702 18.8708 15.7256 -8.94977
637 1 20.4418 20.4422 17.2977 -8.94948
638 1 1.57279 11.007 20.442 -8.94957
639 1 4.71729 11.007 20.4418 -8.9497
640 1 7.86211 11.007 20.4422 -8.94894
641 1 11.007 11.007 20.4434 -8.94857
642 1 14.1537 11.007 20.4439 -8.95059
643 1 17.2988 11.007 20.4432 -8.9494
644 1 20.4428 11.007 20.4424 -8.94945
645 1 22.0147 12.5797 18.8703 -8.94949
646 1 1.57275 14.1521 20.4419 -8.94955
647 1 3.14482 12.5794 18.8699 -8.94959
648 1 4.71727 14.1517 20.4418 -8.94968
649 1 6.2897 12.5791 18.8696 -8.94942
650 1 7.86198 14.1517 20.4422 -8.95028
651 1 9.43489 12.5793 18.8708 -8.94941
652 1 11.0067 14.1525 20.4432 -8.9504
653 1 12.5809 12.58 18.8741 -8.9523
654 1 14.1531 14.1531 20.4438 -8.95103
655 1 15.7275 12.5805 18.8733 -8.94917
656 1 17.2987 14.153 20.4431 -8.94924
657 1 18.8713 12.58 18.8713 -8.94932
658 1 20.4427 14.1525 20.4424 -8.94942
659 1 22.0146 15.725 18.8702 -8.9495
660 1 1.57255 17.2971 20.4419 -8.94972
661 1 3.14469 15.7245 18.87 -8.94987
662 1 4.71685 17.2971 20.4419 -8.95011
663 1 6.28914 15.7246 18.8706 -8.95075
664 1 7.86158 17.2973 20.4421 -8.94948
665 1 9.43402 15.7254 18.8713 -8.94961
666 1 11.0067 17.2977 20.4426 -8.94953
667 1 12.5801 15.7262 18.8725 -8.94972
668 1 14.1523 17.2982 20.4429 -8.94962
669 1 15.7269 15.727 18.8729 -8.94998
670 1 17.2982 17.2984 20.4429 -8.94942
671 1 18.871 15.7258 18.8711 -8.94931
672 1 20.4424 17.2976 20.4423 -8.94943
673 1 0.000285454 18.8699 18.8701 -8.94948
674 1 1.57227 20.4419 20.4419 -8.94934
675 1 3.14427 18.8698 18.8702 -8.94952
676 1 4.71697 20.4418 20.4418 -8.94949
677 1 6.28911 18.8697 18.8701 -8.94937
678 1 7.86176 20.4418 20.4419 -8.94946
679 1 9.43408 18.87 18.8703 -8.94944
680 1 11.0067 20.4419 20.4422 -8.94947
681 1 12.5795 18.8704 18.8707 -8.94939
682 1 14.1519 20.4421 20.4423 -8.94946
355 1 6.28964 12.5791 22.0142 -8.94945
357 1 9.43433 12.5792 22.015 -8.94906
359 1 12.5797 12.5796 22.0141 -8.9518
365 1 0.000452329 15.7248 22.0139 -8.94948
367 1 3.14473 15.7244 22.0137 -8.94981
369 1 6.28923 15.7245 22.0134 -8.95062
375 1 15.7257 15.726 22.0139 -8.95011
379 1 22.014 18.8697 22.0139 -8.94949
351 1 22.0145 12.5796 22.014 -8.94951
363 1 18.8706 12.5798 22.0142 -8.94941
385 1 9.43416 18.8697 22.014 -8.94947
387 1 12.5793 18.8699 22.0142 -8.94944
