ITEM: TIMESTEP
41
ITEM: NUMBER OF ATOMS
688
ITEM: BOX BOUNDS pp pp pp
0.0000000000000000e+00 2.2013900999999997e+01
0.0000000000000000e+00 2.2013900999999997e+01
0.0000000000000000e+00 2.2013900999999997e+01
ITEM: ATOMS id type x y z c_pot
189 1 20.4415 4.71726 11.007 -8.94963
2 1 1.57242 1.57242 1.57242 -8.94963
175 1 18.8691 9.43453 9.43453 -8.94967
4 1 4.71726 1.57242 1.57242 -8.94963
174 1 15.7244 9.43446 9.43451 -8.9501
6 1 7.86211 1.57242 1.57242 -8.94963
7 1 9.43453 1.87814e-16 3.92118e-10 -8.94963
8 1 11.007 1.57242 1.57242 -8.94963
173 1 12.5838 9.43068 9.43352 -8.95632
10 1 14.1518 1.57242 1.57242 -8.94963
172 1 9.38321 9.32526 9.43254 -8.09793
12 1 17.2966 1.57242 1.57242 -8.94963
188 1 17.2966 4.71727 11.007 -8.94964
14 1 20.4415 1.57242 1.57242 -8.94963
171 1 6.28656 9.43317 9.43343 -9.00416
16 1 1.57242 4.71726 1.57242 -8.94963
170 1 3.14474 9.43452 9.43452 -8.95028
18 1 4.71726 4.71726 1.57242 -8.94963
169 1 22.0139 9.43453 9.43453 -8.94966
20 1 7.86211 4.71726 1.57242 -8.94963
183 1 1.57242 4.71726 11.007 -8.94963
22 1 11.007 4.71726 1.57242 -8.94963
181 1 17.2966 1.57242 11.007 -8.94963
24 1 14.1518 4.71726 1.57242 -8.94964
168 1 18.8691 6.28969 9.43453 -8.94963
26 1 17.2966 4.71726 1.57242 -8.94963
167 1 15.7242 6.28969 9.43453 -8.94969
28 1 20.4415 4.71726 1.57242 -8.94963
166 1 12.5793 6.28962 9.43453 -8.95149
30 1 1.57242 7.86211 1.57242 -8.94963
165 1 9.43447 6.28578 9.43453 -8.96933
32 1 4.71726 7.86211 1.57242 -8.94963
164 1 6.28972 6.28969 9.43453 -8.95197
34 1 7.86211 7.86211 1.57242 -8.94963
35 1 9.43453 6.28969 1.7147e-07 -8.94963
36 1 11.0069 7.86211 1.57242 -8.94964
37 1 12.5794 6.28969 2.60825e-07 -8.94963
38 1 14.1518 7.8621 1.57242 -8.94962
163 1 3.14485 6.28969 9.43453 -8.94964
40 1 17.2966 7.86211 1.57242 -8.94964
162 1 22.0139 6.28969 9.43453 -8.94963
42 1 20.4415 7.86211 1.57242 -8.94963
158 1 9.43453 3.14473 9.43453 -8.95067
44 1 3.14484 9.43453 9.39206e-09 -8.94963
161 1 18.8691 3.14484 9.43453 -8.94963
160 1 15.7242 3.14484 9.43453 -8.94963
159 1 12.5794 3.14484 9.43453 -8.94968
48 1 15.7242 9.43453 2.50157e-07 -8.94963
157 1 6.28969 3.14484 9.43453 -8.94964
50 1 22.0139 4.26852e-16 3.14484 -8.94963
51 1 1.57242 1.57242 4.71726 -8.94963
52 1 3.14484 3.23252e-16 3.14484 -8.94963
53 1 4.71726 1.57242 4.71726 -8.94963
54 1 6.28969 3.62876e-16 3.14484 -8.94963
55 1 7.86211 1.57242 4.71726 -8.94963
56 1 9.43453 7.18861e-16 3.14484 -8.94963
57 1 11.007 1.57242 4.71726 -8.94963
58 1 12.5794 1.60938e-16 3.14484 -8.94963
59 1 14.1518 1.57242 4.71726 -8.94963
60 1 15.7242 4.14251e-16 3.14484 -8.94963
61 1 17.2966 1.57242 4.71726 -8.94963
62 1 18.8691 8.60007e-16 3.14484 -8.94963
63 1 20.4415 1.57242 4.71726 -8.94963
64 1 22.0139 3.14484 3.14484 -8.94963
65 1 1.57242 4.71726 4.71726 -8.94963
66 1 3.14484 3.14484 3.14484 -8.94963
67 1 4.71726 4.71726 4.71726 -8.94959
68 1 6.28969 3.14484 3.14484 -8.94964
69 1 7.86211 4.71727 4.71727 -8.94975
70 1 9.43453 3.14484 3.14484 -8.94963
71 1 11.0069 4.71727 4.71726 -8.94965
72 1 12.5794 3.14484 3.14484 -8.94963
73 1 14.1518 4.71726 4.71726 -8.94965
74 1 15.7242 3.14484 3.14484 -8.94963
75 1 17.2966 4.71726 4.71726 -8.94964
76 1 18.8691 3.14484 3.14484 -8.94963
77 1 20.4415 4.71726 4.71726 -8.94963
78 1 22.0139 6.28969 3.14484 -8.94963
79 1 1.57242 7.86211 4.71726 -8.94963
80 1 3.14484 6.28969 3.14484 -8.94964
81 1 4.71726 7.8621 4.71726 -8.94969
82 1 6.28968 6.28968 3.14484 -8.94963
83 1 7.86206 7.86206 4.71715 -8.94988
84 1 9.43453 6.28969 3.14485 -8.94965
85 1 11.0069 7.86216 4.7173 -8.95094
86 1 12.5794 6.28969 3.14485 -8.94975
87 1 14.1519 7.86197 4.71713 -8.94803
88 1 15.7242 6.28968 3.14484 -8.94957
89 1 17.2966 7.86211 4.71726 -8.94964
90 1 18.8691 6.28969 3.14484 -8.94963
91 1 20.4415 7.86211 4.71726 -8.94963
92 1 1.01302e-08 9.43453 3.14484 -8.94963
93 1 3.14484 9.43453 3.14484 -8.94964
94 1 6.28969 9.43453 3.14484 -8.94969
95 1 9.43447 9.43447 3.14475 -8.94927
96 1 12.5794 9.43446 3.1447 -8.94989
97 1 15.7242 9.43453 3.14485 -8.94975
98 1 18.8691 9.43453 3.14484 -8.94963
99 1 22.0139 7.25221e-16 6.28969 -8.94963
100 1 1.57242 1.57242 7.86211 -8.94963
101 1 3.14484 -2.68803e-17 6.28969 -8.94963
102 1 4.71726 1.57242 7.86211 -8.94963
103 1 6.28969 5.97081e-17 6.28969 -8.94963
104 1 7.86211 1.57242 7.86211 -8.94965
105 1 9.43453 2.45912e-16 6.28969 -8.94963
106 1 11.007 1.57242 7.86211 -8.94963
107 1 12.5794 2.0225e-16 6.28969 -8.94963
108 1 14.1518 1.57242 7.86211 -8.94964
109 1 15.7242 2.76572e-16 6.28969 -8.94963
110 1 17.2966 1.57242 7.86211 -8.94963
111 1 18.8691 4.1099e-16 6.28969 -8.94963
112 1 20.4415 1.57242 7.86211 -8.94963
113 1 1.01008e-08 3.14484 6.28969 -8.94963
114 1 1.57242 4.71726 7.86211 -8.94963
115 1 3.14484 3.14484 6.28969 -8.94964
116 1 4.71727 4.71727 7.86211 -8.94975
117 1 6.28968 3.14484 6.28968 -8.94962
118 1 7.86204 4.71713 7.86204 -8.9497
119 1 9.43453 3.14485 6.28969 -8.94964
120 1 11.007 4.7172 7.86204 -8.949
121 1 12.5794 3.14484 6.28968 -8.94963
122 1 14.1518 4.71726 7.86211 -8.94969
123 1 15.7242 3.14484 6.28969 -8.94963
124 1 17.2966 4.71726 7.86211 -8.94964
125 1 18.8691 3.14484 6.28969 -8.94963
126 1 20.4415 4.71726 7.86211 -8.94963
127 1 22.0139 6.28969 6.28969 -8.94963
128 1 1.57242 7.86211 7.86211 -8.94966
129 1 3.14484 6.28968 6.28968 -8.94961
130 1 4.7171 7.86203 7.86202 -8.94964
131 1 6.28958 6.28958 6.28958 -8.94825
132 1 7.85881 7.85931 7.85914 -8.91152
133 1 9.43456 6.28973 6.28977 -8.95153
134 1 11.0079 7.8619 7.86138 -8.9393
135 1 12.5794 6.28958 6.28967 -8.95031
136 1 14.152 7.86196 7.86198 -8.9486
137 1 15.7242 6.28968 6.28968 -8.94966
138 1 17.2966 7.8621 7.8621 -8.94964
139 1 18.8691 6.28969 6.28969 -8.94963
140 1 20.4415 7.86211 7.86211 -8.94963
141 1 22.0139 9.43453 6.28969 -8.94963
142 1 3.14484 9.43453 6.28969 -8.94966
143 1 6.28957 9.43445 6.28957 -8.94962
144 1 9.43333 9.43322 6.28866 -8.93885
145 1 12.5828 9.43105 6.28634 -8.91218
146 1 15.7243 9.43449 6.28966 -8.95025
147 1 18.8691 9.43453 6.28969 -8.94966
148 1 8.99381e-10 8.3852e-16 9.43453 -8.94963
149 1 3.14484 5.92618e-16 9.43453 -8.94963
150 1 6.28969 1.04348e-15 9.43453 -8.94963
151 1 9.43453 3.08942e-16 9.43453 -8.94969
152 1 12.5794 4.89675e-16 9.43453 -8.94963
153 1 15.7242 7.21111e-16 9.43453 -8.94963
154 1 18.8691 9.38554e-16 9.43453 -8.94963
155 1 22.0139 3.14484 9.43453 -8.94963
156 1 3.14484 3.14484 9.43453 -8.94963
177 1 4.71726 1.57242 11.007 -8.94963
184 1 4.71727 4.71727 11.0069 -8.94974
3 1 3.14484 3.25376e-16 2.34094e-10 -8.94963
11 1 15.7242 1.10059e-15 4.20196e-10 -8.94963
41 1 18.8691 6.28969 7.14333e-09 -8.94963
19 1 6.28969 3.14484 1.01026e-08 -8.94963
25 1 15.7242 3.14484 6.78346e-09 -8.94963
176 1 1.57242 1.57242 11.007 -8.94963
47 1 12.5794 9.43453 22.0139 -8.94966
178 1 7.86211 1.57242 11.007 -8.94965
179 1 11.007 1.57242 11.007 -8.94963
180 1 14.1518 1.57242 11.007 -8.94964
343 1 18.8691 9.43453 18.8691 -8.94963
182 1 20.4415 1.57242 11.007 -8.94963
342 1 15.7242 9.43453 18.8691 -8.94963
46 1 9.43453 9.43453 22.0139 -8.94964
185 1 7.86204 4.71712 11.007 -8.94973
186 1 11.007 4.71718 11.007 -8.94904
187 1 14.1518 4.71726 11.0069 -8.94968
341 1 12.5794 9.43453 18.8691 -8.94967
340 1 9.43453 9.43453 18.8691 -8.94972
190 1 1.57242 7.86211 11.007 -8.94966
191 1 4.71714 7.86206 11.007 -8.95035
192 1 7.85894 7.85904 11.0104 -8.97272
193 1 11.0078 7.86161 11.0082 -8.99959
194 1 14.1519 7.86197 11.007 -8.94934
195 1 17.2966 7.8621 11.007 -8.94965
196 1 20.4415 7.86211 11.007 -8.94963
197 1 22.0139 2.8457e-16 12.5794 -8.94963
198 1 1.57242 1.57242 14.1518 -8.94963
199 1 3.14484 3.92436e-16 12.5794 -8.94963
200 1 4.71726 1.57242 14.1518 -8.94963
201 1 6.28969 3.53794e-16 12.5794 -8.94963
202 1 7.86211 1.57242 14.1518 -8.94963
203 1 9.43453 8.679e-16 12.5794 -8.94964
204 1 11.007 1.57242 14.1518 -8.94963
205 1 12.5794 1.00879e-15 12.5794 -8.94963
206 1 14.1518 1.57242 14.1518 -8.94963
207 1 15.7242 2.36829e-16 12.5794 -8.94963
208 1 17.2966 1.57242 14.1518 -8.94963
209 1 18.8691 5.32105e-16 12.5794 -8.94963
210 1 20.4415 1.57242 14.1518 -8.94963
211 1 22.0139 3.14484 12.5794 -8.94963
212 1 1.57242 4.71726 14.1518 -8.94963
213 1 3.14484 3.14484 12.5794 -8.94964
214 1 4.71726 4.71726 14.1518 -8.94958
215 1 6.28968 3.14484 12.5794 -8.94963
216 1 7.86211 4.71728 14.1518 -8.94955
217 1 9.43453 3.14484 12.5794 -8.94972
218 1 11.007 4.71728 14.1518 -8.94945
219 1 12.5794 3.14484 12.5794 -8.94965
220 1 14.1518 4.71726 14.1518 -8.94964
221 1 15.7242 3.14484 12.5794 -8.94963
222 1 17.2966 4.71726 14.1518 -8.94964
223 1 18.8691 3.14484 12.5794 -8.94963
224 1 20.4415 4.71726 14.1518 -8.94963
225 1 22.0139 6.28969 12.5794 -8.94963
226 1 1.57242 7.86211 14.1518 -8.94963
227 1 3.14484 6.28969 12.5794 -8.94966
228 1 4.71722 7.86205 14.1518 -8.94909
229 1 6.28957 6.28954 12.5795 -8.94849
230 1 7.86228 7.86262 14.1514 -8.95101
231 1 9.43456 6.28946 12.5793 -8.95163
232 1 11.0067 7.8627 14.1512 -8.95201
233 1 12.5794 6.28954 12.5794 -8.95057
234 1 14.152 7.86192 14.152 -8.94733
235 1 15.7242 6.28969 12.5794 -8.94971
236 1 17.2966 7.8621 14.1518 -8.94964
237 1 18.8691 6.28969 12.5794 -8.94963
238 1 20.4415 7.86211 14.1518 -8.94963
239 1 22.0139 9.43453 12.5794 -8.94964
240 1 3.14479 9.43451 12.5794 -8.94981
241 1 6.28841 9.43334 12.5806 -8.99254
242 1 9.43347 9.43109 12.5823 -9.0688
243 1 12.5841 9.42977 12.5839 -8.95021
244 1 15.7244 9.43448 12.5794 -8.95042
245 1 18.8691 9.43453 12.5794 -8.94967
246 1 6.74782e-10 4.52228e-16 15.7242 -8.94963
247 1 1.57242 1.57242 17.2966 -8.94963
248 1 3.14484 -3.65993e-16 15.7242 -8.94963
249 1 4.71726 1.57242 17.2966 -8.94963
250 1 6.28969 5.29597e-16 15.7242 -8.94963
251 1 7.86211 1.57242 17.2966 -8.94963
252 1 9.43453 6.34201e-16 15.7242 -8.94963
253 1 11.007 1.57242 17.2966 -8.94963
254 1 12.5794 3.41603e-16 15.7242 -8.94963
255 1 14.1518 1.57242 17.2966 -8.94963
256 1 15.7242 3.07337e-17 15.7242 -8.94963
257 1 17.2966 1.57242 17.2966 -8.94963
258 1 18.8691 -9.51724e-17 15.7242 -8.94963
259 1 20.4415 1.57242 17.2966 -8.94963
260 1 22.0139 3.14484 15.7242 -8.94963
261 1 1.57242 4.71726 17.2966 -8.94963
262 1 3.14484 3.14484 15.7242 -8.94963
263 1 4.71727 4.71727 17.2966 -8.94964
264 1 6.28969 3.14484 15.7242 -8.94963
265 1 7.86211 4.71726 17.2966 -8.94963
266 1 9.43453 3.14484 15.7242 -8.94963
267 1 11.007 4.71726 17.2966 -8.94963
268 1 12.5794 3.14484 15.7242 -8.94963
269 1 14.1518 4.71727 17.2966 -8.94965
270 1 15.7242 3.14484 15.7242 -8.94963
271 1 17.2966 4.71726 17.2966 -8.94963
272 1 18.8691 3.14484 15.7242 -8.94963
273 1 20.4415 4.71726 17.2966 -8.94963
274 1 22.0139 6.28969 15.7242 -8.94963
275 1 1.57242 7.86211 17.2966 -8.94963
276 1 3.14484 6.28968 15.7242 -8.94961
277 1 4.71726 7.86211 17.2966 -8.94964
278 1 6.28971 6.28971 15.7242 -8.94986
279 1 7.8621 7.8621 17.2966 -8.94943
280 1 9.43453 6.28972 15.7242 -8.95
281 1 11.007 7.86211 17.2966 -8.94944
282 1 12.5793 6.28972 15.7242 -8.94998
283 1 14.1518 7.8621 17.2966 -8.94963
284 1 15.7242 6.28968 15.7242 -8.94954
285 1 17.2966 7.86211 17.2966 -8.94964
286 1 18.8691 6.28969 15.7242 -8.94963
287 1 20.4415 7.86211 17.2966 -8.94963
288 1 22.0139 9.43453 15.7242 -8.94963
289 1 3.14485 9.43453 15.7242 -8.94966
290 1 6.2897 9.43453 15.7242 -8.95013
291 1 9.43447 9.43446 15.7245 -8.94967
292 1 12.5794 9.43447 15.7244 -8.95037
293 1 15.7242 9.43453 15.7242 -8.94975
294 1 18.8691 9.43453 15.7242 -8.94963
295 1 22.0139 -2.05142e-16 18.8691 -8.94963
296 1 1.57242 1.57242 20.4415 -8.94963
297 1 3.14484 1.07262e-16 18.8691 -8.94963
298 1 4.71726 1.57242 20.4415 -8.94963
299 1 6.28969 4.02267e-16 18.8691 -8.94963
300 1 7.86211 1.57242 20.4415 -8.94963
301 1 9.43453 -4.33211e-17 18.8691 -8.94963
302 1 11.007 1.57242 20.4415 -8.94963
303 1 12.5794 5.58957e-16 18.8691 -8.94963
304 1 14.1518 1.57242 20.4415 -8.94963
305 1 15.7242 3.6448e-16 18.8691 -8.94963
306 1 17.2966 1.57242 20.4415 -8.94963
307 1 18.8691 -1.12012e-18 18.8691 -8.94963
308 1 20.4415 1.57242 20.4415 -8.94963
309 1 4.84457e-10 3.14484 18.8691 -8.94963
310 1 1.57242 4.71726 20.4415 -8.94963
311 1 3.14484 3.14484 18.8691 -8.94963
312 1 4.71726 4.71726 20.4415 -8.94963
313 1 6.28969 3.14484 18.8691 -8.94963
314 1 7.86211 4.71726 20.4415 -8.94963
315 1 9.43453 3.14484 18.8691 -8.94963
316 1 11.007 4.71726 20.4415 -8.94963
317 1 12.5794 3.14484 18.8691 -8.94963
318 1 14.1518 4.71726 20.4415 -8.94963
319 1 15.7242 3.14484 18.8691 -8.94963
320 1 17.2966 4.71726 20.4415 -8.94963
321 1 18.8691 3.14484 18.8691 -8.94963
322 1 20.4415 4.71726 20.4415 -8.94963
323 1 22.0139 6.28969 18.8691 -8.94963
324 1 1.57242 7.86211 20.4415 -8.94963
325 1 3.14484 6.28969 18.8691 -8.94963
326 1 4.71726 7.86211 20.4415 -8.94963
327 1 6.28969 6.28969 18.8691 -8.94963
328 1 7.86211 7.86211 20.4415 -8.94963
329 1 9.43453 6.28969 18.8691 -8.94963
330 1 11.007 7.86211 20.4415 -8.94963
331 1 12.5794 6.28969 18.8691 -8.94963
332 1 14.1518 7.86211 20.4415 -8.94963
333 1 15.7242 6.28969 18.8691 -8.94963
334 1 17.2966 7.86211 20.4415 -8.94963
335 1 18.8691 6.28969 18.8691 -8.94963
336 1 20.4415 7.86211 20.4415 -8.94963
337 1 22.0139 9.43453 18.8691 -8.94963
338 1 3.14484 9.43453 18.8691 -8.94963
339 1 6.28969 9.43453 18.8691 -8.94964
45 1 6.28969 9.43453 22.0139 -8.94964
5 1 6.28969 1.63929e-20 22.0139 -8.94963
9 1 12.5794 -7.34504e-17 22.0139 -8.94963
39 1 15.7242 6.28969 22.0139 -8.94963
15 1 22.0139 3.14484 22.0139 -8.94963
17 1 3.14484 3.14484 22.0139 -8.94963
33 1 6.28969 6.28969 22.0139 -8.94963
31 1 3.14484 6.28969 22.0139 -8.94963
27 1 18.8691 3.14484 22.0139 -8.94963
29 1 9.63257e-11 6.28969 22.0139 -8.94963
1 1 -3.87114e-12 1.50416e-16 22.0139 -8.94963
13 1 18.8691 5.99029e-16 22.0139 -8.94963
21 1 9.43453 3.14484 22.0139 -8.94963
23 1 12.5794 3.14484 22.0139 -8.94963
43 1 22.0139 9.43453 22.0139 -8.94963
49 1 18.8691 9.43453 22.0139 -8.94963
344 1 1.57242 11.007 1.57242 -8.94963
345 1 4.71726 11.007 1.57242 -8.94963
346 1 7.86211 11.007 1.57242 -8.94967
347 1 11.0069 11.007 1.57231 -8.9506
348 1 14.1518 11.007 1.57242 -8.94963
349 1 17.2966 11.007 1.57242 -8.94963
350 1 20.4415 11.007 1.57242 -8.94963
538 1 17.2966 20.4415 11.007 -8.94963
352 1 1.57242 14.1518 1.57242 -8.94963
353 1 3.14484 12.5794 9.39207e-09 -8.94963
354 1 4.71726 14.1518 1.57242 -8.94963
688 3 10.2206 11.007 9.43875 3.37879
356 1 7.86211 14.1518 1.57242 -8.94963
511 1 18.8691 18.8691 9.43453 -8.94963
358 1 11.0069 14.1518 1.57242 -8.94964
510 1 15.7242 18.8691 9.43453 -8.94963
360 1 14.1518 14.1518 1.57242 -8.94962
361 1 15.7242 12.5794 2.50157e-07 -8.94963
362 1 17.2966 14.1518 1.57242 -8.94964
532 1 20.4415 17.2966 11.007 -8.94963
364 1 20.4415 14.1518 1.57242 -8.94963
509 1 12.5794 18.8691 9.43453 -8.94968
366 1 1.57242 17.2966 1.57242 -8.94963
508 1 9.43453 18.8692 9.43453 -8.95067
368 1 4.71726 17.2966 1.57242 -8.94963
507 1 6.28969 18.8691 9.43453 -8.94964
370 1 7.86211 17.2966 1.57242 -8.94963
371 1 9.43453 15.7242 1.7147e-07 -8.94963
372 1 11.007 17.2966 1.57242 -8.94963
373 1 12.5794 15.7242 2.60825e-07 -8.94963
374 1 14.1518 17.2966 1.57242 -8.94964
506 1 3.14484 18.8691 9.43453 -8.94963
376 1 17.2966 17.2966 1.57242 -8.94963
505 1 22.0139 18.8691 9.43453 -8.94963
378 1 20.4415 17.2966 1.57242 -8.94963
504 1 18.8691 15.7242 9.43453 -8.94963
380 1 1.57242 20.4415 1.57242 -8.94963
503 1 15.7242 15.7242 9.43453 -8.94969
382 1 4.71726 20.4415 1.57242 -8.94963
502 1 12.5793 15.7243 9.43453 -8.95149
384 1 7.86211 20.4415 1.57242 -8.94963
531 1 17.2966 17.2966 11.007 -8.94964
386 1 11.007 20.4415 1.57242 -8.94963
687 2 9.43561 11.007 11.0036 1.10578
388 1 14.1518 20.4415 1.57242 -8.94963
501 1 9.43447 15.7281 9.43453 -8.96933
390 1 17.2966 20.4415 1.57242 -8.94963
500 1 6.28972 15.7242 9.43453 -8.95197
392 1 20.4415 20.4415 1.57242 -8.94963
393 1 1.57242 11.007 4.71726 -8.94963
394 1 4.71727 11.007 4.71727 -8.94967
395 1 7.86215 11.007 4.71722 -8.9509
396 1 11.007 11.007 4.71354 -8.96902
397 1 14.1518 11.007 4.71729 -8.95149
398 1 17.2966 11.007 4.71726 -8.94962
399 1 20.4415 11.007 4.71726 -8.94963
400 1 1.01302e-08 12.5794 3.14484 -8.94963
401 1 1.57242 14.1518 4.71726 -8.94963
402 1 3.14484 12.5794 3.14484 -8.94964
403 1 4.71726 14.1518 4.71726 -8.94969
404 1 6.28969 12.5794 3.14484 -8.94969
405 1 7.86206 14.1518 4.71715 -8.94988
406 1 9.43447 12.5794 3.14475 -8.94927
407 1 11.0069 14.1517 4.7173 -8.95094
408 1 12.5794 12.5794 3.1447 -8.94989
409 1 14.1519 14.1519 4.71713 -8.94803
410 1 15.7242 12.5794 3.14485 -8.94975
411 1 17.2966 14.1518 4.71726 -8.94964
412 1 18.8691 12.5794 3.14484 -8.94963
413 1 20.4415 14.1518 4.71726 -8.94963
414 1 22.0139 15.7242 3.14484 -8.94963
415 1 1.57242 17.2966 4.71726 -8.94963
416 1 3.14484 15.7242 3.14484 -8.94964
417 1 4.71726 17.2966 4.71726 -8.94959
418 1 6.28968 15.7242 3.14484 -8.94963
419 1 7.86211 17.2966 4.71727 -8.94975
420 1 9.43453 15.7242 3.14485 -8.94965
421 1 11.0069 17.2966 4.71726 -8.94965
422 1 12.5794 15.7242 3.14485 -8.94975
423 1 14.1518 17.2966 4.71726 -8.94965
424 1 15.7242 15.7242 3.14484 -8.94957
425 1 17.2966 17.2966 4.71726 -8.94964
426 1 18.8691 15.7242 3.14484 -8.94963
427 1 20.4415 17.2966 4.71726 -8.94963
428 1 22.0139 18.8691 3.14484 -8.94963
429 1 1.57242 20.4415 4.71726 -8.94963
430 1 3.14484 18.8691 3.14484 -8.94963
431 1 4.71726 20.4415 4.71726 -8.94963
432 1 6.28969 18.8691 3.14484 -8.94964
433 1 7.86211 20.4415 4.71726 -8.94963
434 1 9.43453 18.8691 3.14484 -8.94963
435 1 11.007 20.4415 4.71726 -8.94963
436 1 12.5794 18.8691 3.14484 -8.94963
437 1 14.1518 20.4415 4.71726 -8.94963
438 1 15.7242 18.8691 3.14484 -8.94963
439 1 17.2966 20.4415 4.71726 -8.94963
440 1 18.8691 18.8691 3.14484 -8.94963
441 1 20.4415 20.4415 4.71726 -8.94963
442 1 1.57242 11.007 7.86211 -8.94966
443 1 4.71709 11.007 7.86204 -8.95009
444 1 7.8591 11.007 7.85953 -8.9729
445 1 11.0577 11.007 7.75545 -8.06513
446 1 14.1538 11.007 7.86184 -8.9604
447 1 17.2967 11.007 7.86211 -8.95012
448 1 20.4415 11.007 7.86211 -8.94965
449 1 22.0139 12.5794 6.28969 -8.94963
450 1 1.57242 14.1518 7.86211 -8.94966
451 1 3.14484 12.5794 6.28969 -8.94966
452 1 4.7171 14.1519 7.86202 -8.94964
453 1 6.28957 12.5794 6.28957 -8.94962
454 1 7.85881 14.1546 7.85914 -8.91152
455 1 9.43333 12.5807 6.28866 -8.93885
456 1 11.0079 14.152 7.86138 -8.9393
457 1 12.5828 12.5829 6.28634 -8.91218
458 1 14.152 14.1519 7.86198 -8.9486
459 1 15.7243 12.5794 6.28966 -8.95025
460 1 17.2966 14.1518 7.8621 -8.94964
461 1 18.8691 12.5794 6.28969 -8.94966
462 1 20.4415 14.1518 7.86211 -8.94963
463 1 22.0139 15.7242 6.28969 -8.94963
464 1 1.57242 17.2966 7.86211 -8.94963
465 1 3.14484 15.7242 6.28968 -8.94961
466 1 4.71727 17.2966 7.86211 -8.94975
467 1 6.28958 15.7243 6.28958 -8.94825
468 1 7.86204 17.2968 7.86204 -8.9497
469 1 9.43456 15.7242 6.28977 -8.95153
470 1 11.007 17.2967 7.86204 -8.949
471 1 12.5794 15.7243 6.28967 -8.95031
472 1 14.1518 17.2966 7.86211 -8.94969
473 1 15.7242 15.7242 6.28968 -8.94966
474 1 17.2966 17.2966 7.86211 -8.94964
475 1 18.8691 15.7242 6.28969 -8.94963
476 1 20.4415 17.2966 7.86211 -8.94963
477 1 1.01008e-08 18.8691 6.28969 -8.94963
478 1 1.57242 20.4415 7.86211 -8.94963
479 1 3.14484 18.8691 6.28969 -8.94964
480 1 4.71726 20.4415 7.86211 -8.94963
481 1 6.28968 18.8691 6.28968 -8.94962
482 1 7.86211 20.4415 7.86211 -8.94965
483 1 9.43453 18.8691 6.28969 -8.94964
484 1 11.007 20.4415 7.86211 -8.94963
485 1 12.5794 18.8691 6.28968 -8.94963
486 1 14.1518 20.4415 7.86211 -8.94964
487 1 15.7242 18.8691 6.28969 -8.94963
488 1 17.2966 20.4415 7.86211 -8.94963
489 1 18.8691 18.8691 6.28969 -8.94963
490 1 20.4415 20.4415 7.86211 -8.94963
491 1 22.0139 12.5794 9.43453 -8.94966
492 1 3.14474 12.5794 9.43452 -8.95028
493 1 6.28656 12.5807 9.43343 -9.00416
494 1 9.38321 12.6886 9.43254 -8.09793
495 1 12.5838 12.5832 9.43352 -8.95632
496 1 15.7244 12.5794 9.43451 -8.9501
497 1 18.8691 12.5794 9.43453 -8.94967
498 1 22.0139 15.7242 9.43453 -8.94963
499 1 3.14485 15.7242 9.43453 -8.94964
526 1 1.57242 17.2966 11.007 -8.94963
527 1 4.71727 17.2966 11.0069 -8.94974
534 1 4.71726 20.4415 11.007 -8.94963
389 1 15.7242 18.8691 6.78346e-09 -8.94963
383 1 6.28969 18.8691 1.01026e-08 -8.94963
377 1 18.8691 15.7242 7.14333e-09 -8.94963
512 1 1.57239 11.007 11.007 -8.94989
513 1 4.71618 11.007 11.007 -8.96031
514 1 7.82262 11.007 11.0096 -9.28611
515 1 11.0934 11.007 11.1124 -8.35287
516 1 14.1547 11.007 11.0072 -8.9674
517 1 17.2967 11.007 11.007 -8.95034
518 1 20.4415 11.007 11.007 -8.94966
519 1 1.57242 14.1518 11.007 -8.94966
520 1 4.71714 14.1518 11.007 -8.95035
521 1 7.85894 14.1549 11.0104 -8.97272
522 1 11.0078 14.1523 11.0082 -8.99959
523 1 14.1519 14.1519 11.007 -8.94934
524 1 17.2966 14.1518 11.007 -8.94965
525 1 20.4415 14.1518 11.007 -8.94963
686 1 20.4415 20.4415 20.4415 -8.94963
391 1 18.8691 18.8691 22.0139 -8.94963
528 1 7.86204 17.2968 11.007 -8.94973
529 1 11.007 17.2967 11.007 -8.94904
530 1 14.1518 17.2966 11.0069 -8.94968
685 1 18.8691 18.8691 18.8691 -8.94963
684 1 17.2966 20.4415 20.4415 -8.94963
533 1 1.57242 20.4415 11.007 -8.94963
381 1 3.14484 18.8691 22.0139 -8.94963
535 1 7.86211 20.4415 11.007 -8.94965
536 1 11.007 20.4415 11.007 -8.94963
537 1 14.1518 20.4415 11.007 -8.94964
683 1 15.7242 18.8691 18.8691 -8.94963
539 1 20.4415 20.4415 11.007 -8.94963
540 1 1.57242 11.007 14.1518 -8.94963
541 1 4.71727 11.007 14.1518 -8.94981
542 1 7.86247 11.007 14.1516 -9.01206
543 1 11.0067 11.007 14.1552 -9.02996
544 1 14.1518 11.007 14.1519 -8.95165
545 1 17.2966 11.007 14.1518 -8.94964
546 1 20.4415 11.007 14.1518 -8.94963
547 1 22.0139 12.5794 12.5794 -8.94964
548 1 1.57242 14.1518 14.1518 -8.94963
549 1 3.14479 12.5794 12.5794 -8.94981
550 1 4.71722 14.1518 14.1518 -8.94909
551 1 6.28841 12.5806 12.5806 -8.99254
552 1 7.86228 14.1513 14.1514 -8.95101
553 1 9.43347 12.5828 12.5823 -9.0688
554 1 11.0067 14.1512 14.1512 -8.95201
555 1 12.5841 12.5841 12.5839 -8.95021
556 1 14.152 14.152 14.152 -8.94733
557 1 15.7244 12.5794 12.5794 -8.95042
558 1 17.2966 14.1518 14.1518 -8.94964
559 1 18.8691 12.5794 12.5794 -8.94967
560 1 20.4415 14.1518 14.1518 -8.94963
561 1 22.0139 15.7242 12.5794 -8.94963
562 1 1.57242 17.2966 14.1518 -8.94963
563 1 3.14484 15.7242 12.5794 -8.94966
564 1 4.71726 17.2966 14.1518 -8.94958
565 1 6.28957 15.7244 12.5795 -8.94849
566 1 7.86211 17.2966 14.1518 -8.94955
567 1 9.43456 15.7244 12.5793 -8.95163
568 1 11.007 17.2966 14.1518 -8.94945
569 1 12.5794 15.7244 12.5794 -8.95057
570 1 14.1518 17.2966 14.1518 -8.94964
571 1 15.7242 15.7242 12.5794 -8.94971
572 1 17.2966 17.2966 14.1518 -8.94964
573 1 18.8691 15.7242 12.5794 -8.94963
574 1 20.4415 17.2966 14.1518 -8.94963
575 1 22.0139 18.8691 12.5794 -8.94963
576 1 1.57242 20.4415 14.1518 -8.94963
577 1 3.14484 18.8691 12.5794 -8.94964
578 1 4.71726 20.4415 14.1518 -8.94963
579 1 6.28968 18.8691 12.5794 -8.94963
580 1 7.86211 20.4415 14.1518 -8.94963
581 1 9.43453 18.8691 12.5794 -8.94972
582 1 11.007 20.4415 14.1518 -8.94963
583 1 12.5794 18.8691 12.5794 -8.94965
584 1 14.1518 20.4415 14.1518 -8.94963
585 1 15.7242 18.8691 12.5794 -8.94963
586 1 17.2966 20.4415 14.1518 -8.94963
587 1 18.8691 18.8691 12.5794 -8.94963
588 1 20.4415 20.4415 14.1518 -8.94963
589 1 1.57242 11.007 17.2966 -8.94963
590 1 4.71726 11.007 17.2966 -8.94962
591 1 7.8621 11.007 17.2966 -8.94952
592 1 11.007 11.007 17.2967 -8.95044
593 1 14.1518 11.007 17.2966 -8.94964
594 1 17.2966 11.007 17.2966 -8.94964
595 1 20.4415 11.007 17.2966 -8.94963
596 1 22.0139 12.5794 15.7242 -8.94963
597 1 1.57242 14.1518 17.2966 -8.94963
598 1 3.14485 12.5794 15.7242 -8.94966
599 1 4.71726 14.1518 17.2966 -8.94964
600 1 6.2897 12.5794 15.7242 -8.95013
601 1 7.8621 14.1518 17.2966 -8.94943
602 1 9.43447 12.5794 15.7245 -8.94967
603 1 11.007 14.1518 17.2966 -8.94944
604 1 12.5794 12.5794 15.7244 -8.95037
605 1 14.1518 14.1518 17.2966 -8.94963
606 1 15.7242 12.5794 15.7242 -8.94975
607 1 17.2966 14.1518 17.2966 -8.94964
608 1 18.8691 12.5794 15.7242 -8.94963
609 1 20.4415 14.1518 17.2966 -8.94963
610 1 22.0139 15.7242 15.7242 -8.94963
611 1 1.57242 17.2966 17.2966 -8.94963
612 1 3.14484 15.7242 15.7242 -8.94961
613 1 4.71727 17.2966 17.2966 -8.94964
614 1 6.28971 15.7242 15.7242 -8.94986
615 1 7.86211 17.2966 17.2966 -8.94963
616 1 9.43453 15.7242 15.7242 -8.95
617 1 11.007 17.2966 17.2966 -8.94963
618 1 12.5793 15.7242 15.7242 -8.94998
619 1 14.1518 17.2966 17.2966 -8.94965
620 1 15.7242 15.7242 15.7242 -8.94954
621 1 17.2966 17.2966 17.2966 -8.94963
622 1 18.8691 15.7242 15.7242 -8.94963
623 1 20.4415 17.2966 17.2966 -8.94963
624 1 22.0139 18.8691 15.7242 -8.94963
625 1 1.57242 20.4415 17.2966 -8.94963
626 1 3.14484 18.8691 15.7242 -8.94963
627 1 4.71726 20.4415 17.2966 -8.94963
628 1 6.28969 18.8691 15.7242 -8.94963
629 1 7.86211 20.4415 17.2966 -8.94963
630 1 9.43453 18.8691 15.7242 -8.94963
631 1 11.007 20.4415 17.2966 -8.94963
632 1 12.5794 18.8691 15.7242 -8.94963
633 1 14.1518 20.4415 17.2966 -8.94963
634 1 15.7242 18.8691 15.7242 -8.94963
635 1 17.2966 20.4415 17.2966 -8.94963
636 1 18.8691 18.8691 15.7242 -8.94963
637 1 20.4415 20.4415 17.2966 -8.94963
638 1 1.57242 11.007 20.4415 -8.94963
639 1 4.71726 11.007 20.4415 -8.94963
640 1 7.86211 11.007 20.4415 -8.94963
641 1 11.007 11.007 20.4415 -8.94968
642 1 14.1518 11.007 20.4415 -8.94963
643 1 17.2966 11.007 20.4415 -8.94963
644 1 20.4415 11.007 20.4415 -8.94963
645 1 22.0139 12.5794 18.8691 -8.94963
646 1 1.57242 14.1518 20.4415 -8.94963
647 1 3.14484 12.5794 18.8691 -8.94963
648 1 4.71726 14.1518 20.4415 -8.94963
649 1 6.28969 12.5794 18.8691 -8.94964
650 1 7.86211 14.1518 20.4415 -8.94963
651 1 9.43453 12.5794 18.8691 -8.94972
652 1 11.007 14.1518 20.4415 -8.94963
653 1 12.5794 12.5794 18.8691 -8.94967
654 1 14.1518 14.1518 20.4415 -8.94963
655 1 15.7242 12.5794 18.8691 -8.94963
656 1 17.2966 14.1518 20.4415 -8.94963
657 1 18.8691 12.5794 18.8691 -8.94963
658 1 20.4415 14.1518 20.4415 -8.94963
659 1 22.0139 15.7242 18.8691 -8.94963
660 1 1.57242 17.2966 20.4415 -8.94963
661 1 3.14484 15.7242 18.8691 -8.94963
662 1 4.71726 17.2966 20.4415 -8.94963
663 1 6.28969 15.7242 18.8691 -8.94963
664 1 7.86211 17.2966 20.4415 -8.94963
665 1 9.43453 15.7242 18.8691 -8.94963
666 1 11.007 17.2966 20.4415 -8.94963
667 1 12.5794 15.7242 18.8691 -8.94963
668 1 14.1518 17.2966 20.4415 -8.94963
669 1 15.7242 15.7242 18.8691 -8.94963
670 1 17.2966 17.2966 20.4415 -8.94963
671 1 18.8691 15.7242 18.8691 -8.94963
672 1 20.4415 17.2966 20.4415 -8.94963
673 1 4.84457e-10 18.8691 18.8691 -8.94963
674 1 1.57242 20.4415 20.4415 -8.94963
675 1 3.14484 18.8691 18.8691 -8.94963
676 1 4.71726 20.4415 20.4415 -8.94963
677 1 6.28969 18.8691 18.8691 -8.94963
678 1 7.86211 20.4415 20.4415 -8.94963
679 1 9.43453 18.8691 18.8691 -8.94963
680 1 11.007 20.4415 20.4415 -8.94963
681 1 12.5794 18.8691 18.8691 -8.94963
682 1 14.1518 20.4415 20.4415 -8.94963
355 1 6.28969 12.5794 22.0139 -8.94964
357 1 9.43453 12.5794 22.0139 -8.94964
359 1 12.5794 12.5794 22.0139 -8.94966
365 1 9.63257e-11 15.7242 22.0139 -8.94963
367 1 3.14484 15.7242 22.0139 -8.94963
369 1 6.28969 15.7242 22.0139 -8.94963
375 1 15.7242 15.7242 22.0139 -8.94963
379 1 22.0139 18.8691 22.0139 -8.94963
351 1 22.0139 12.5794 22.0139 -8.94963
363 1 18.8691 12.5794 22.0139 -8.94963
385 1 9.43453 18.8691 22.0139 -8.94963
387 1 12.5794 18.8691 22.0139 -8.94963
