ITEM: TIMESTEP
88
ITEM: NUMBER OF ATOMS
688
ITEM: BOX BOUNDS pp pp pp
0.0000000000000000e+00 2.2013900999999997e+01
0.0000000000000000e+00 2.2013900999999997e+01
0.0000000000000000e+00 2.2013900999999997e+01
ITEM: ATOMS id type x y z c_pot
189 1 20.4405 4.71575 11.0071 -8.94954
2 1 1.57174 1.57193 1.5717 -8.94917
175 1 18.8671 9.43435 9.43528 -8.94785
4 1 4.71669 1.57192 1.57167 -8.94959
174 1 15.7195 9.43616 9.4383 -8.94456
6 1 7.86176 1.57198 1.572 -8.94944
7 1 9.43429 7.4555e-15 9.85601e-05 -8.94948
8 1 11.0067 1.57198 1.57226 -8.94949
173 1 12.5626 9.4393 9.43326 -8.9478
10 1 14.1518 1.57185 1.57237 -8.94952
172 1 9.35896 9.19725 9.43513 -8.35122
12 1 17.297 1.57165 1.57219 -8.94946
188 1 17.2976 4.71528 11.0072 -8.94893
14 1 20.4414 1.57192 1.57219 -8.94944
171 1 6.27177 9.42456 9.43377 -9.01871
16 1 1.57191 4.71656 1.5716 -8.94979
170 1 3.13608 9.4333 9.43391 -8.95064
18 1 4.71599 4.71607 1.57074 -8.94957
169 1 22.0099 9.43408 9.43429 -8.94967
20 1 7.86138 4.71625 1.57161 -8.94913
183 1 1.56888 4.71502 11.0076 -8.94926
22 1 11.0066 4.71613 1.57195 -8.94937
181 1 17.2968 1.57167 11.0068 -8.94949
24 1 14.1523 4.71566 1.57172 -8.94985
168 1 18.8688 6.28824 9.43446 -8.94953
26 1 17.2982 4.71523 1.57151 -8.94829
167 1 15.726 6.28712 9.43506 -8.94521
28 1 20.442 4.71628 1.57198 -8.9495
166 1 12.5778 6.29069 9.43672 -8.94657
30 1 1.57222 7.86177 1.57178 -8.94943
165 1 9.42896 6.29334 9.43798 -9.00607
32 1 4.71679 7.8622 1.57182 -8.94979
164 1 6.27633 6.27907 9.43609 -8.94368
34 1 7.86157 7.86195 1.57167 -8.95207
35 1 9.43394 6.28892 0.000114301 -8.94961
36 1 11.0063 7.86113 1.57143 -8.95044
37 1 12.5794 6.28858 0.000292556 -8.94979
38 1 14.1537 7.86018 1.56974 -8.95178
163 1 3.13745 6.28592 9.43472 -8.94918
40 1 17.2986 7.86081 1.5715 -8.94915
162 1 22.0108 6.28809 9.4343 -8.94998
42 1 20.4423 7.86146 1.57195 -8.94939
158 1 9.43327 3.1445 9.43524 -8.94675
44 1 3.14484 9.43448 -0.000147096 -8.94959
161 1 18.8687 3.14376 9.4342 -8.94948
160 1 15.7246 3.14349 9.43436 -8.94941
159 1 12.5788 3.14456 9.43503 -8.94858
48 1 15.7262 9.43378 0.000133186 -8.94941
157 1 6.28586 3.14076 9.43492 -8.94987
50 1 22.0132 6.13627e-15 3.14422 -8.94943
51 1 1.57106 1.57171 4.71619 -8.94943
52 1 3.14379 2.98412e-14 3.1437 -8.94952
53 1 4.71574 1.57113 4.71587 -8.95002
54 1 6.28915 1.82682e-14 3.14403 -8.94956
55 1 7.86147 1.57151 4.71655 -8.94966
56 1 9.43426 1.58402e-14 3.14439 -8.94954
57 1 11.0066 1.57171 4.71686 -8.9496
58 1 12.5792 2.39883e-14 3.14461 -8.94952
59 1 14.1517 1.57145 4.71701 -8.9507
60 1 15.7243 1.41855e-14 3.14458 -8.95007
61 1 17.2965 1.57188 4.71704 -8.94975
62 1 18.8689 2.44484e-15 3.1446 -8.94966
63 1 20.4408 1.57194 4.7167 -8.94944
64 1 22.013 3.14395 3.14396 -8.94947
65 1 1.56983 4.71555 4.7155 -8.94947
66 1 3.14302 3.14328 3.14299 -8.9484
67 1 4.71231 4.71296 4.7131 -8.94522
68 1 6.28861 3.14345 3.14355 -8.94965
69 1 7.86003 4.71424 4.71556 -8.94921
70 1 9.43397 3.1437 3.14415 -8.94939
71 1 11.0064 4.71478 4.71593 -8.94803
72 1 12.5792 3.1436 3.14429 -8.94924
73 1 14.1541 4.71264 4.71476 -8.94996
74 1 15.7251 3.14282 3.14386 -8.9495
75 1 17.2974 4.71564 4.71659 -8.95021
76 1 18.8692 3.14381 3.14437 -8.94974
77 1 20.4407 4.71625 4.71652 -8.94987
78 1 22.0135 6.28891 3.14392 -8.9498
79 1 1.5704 7.86151 4.71599 -8.94982
80 1 3.14314 6.2888 3.14325 -8.95027
81 1 4.71344 7.86124 4.71543 -8.95124
82 1 6.28657 6.28717 3.14115 -8.95009
83 1 7.85537 7.85663 4.71033 -8.95369
84 1 9.43324 6.2876 3.14322 -8.94773
85 1 11.0061 7.85813 4.71155 -8.95218
86 1 12.5799 6.2873 3.14239 -8.94964
87 1 14.1643 7.85006 4.70517 -8.92986
88 1 15.7284 6.28516 3.14099 -8.94469
89 1 17.3005 7.85986 4.71524 -8.95072
90 1 18.8705 6.2882 3.14378 -8.94965
91 1 20.4416 7.86137 4.71636 -8.95017
92 1 -0.000201309 9.43422 3.14388 -8.94952
93 1 3.14356 9.43433 3.14372 -8.94899
94 1 6.28878 9.43518 3.14506 -8.94953
95 1 9.43443 9.43456 3.14652 -8.95004
96 1 12.582 9.43321 3.13819 -8.95978
97 1 15.7282 9.43296 3.14152 -8.94751
98 1 18.8707 9.43393 3.14367 -8.94926
99 1 22.0128 6.88946e-15 6.28898 -8.94946
100 1 1.57062 1.57156 7.86148 -8.94947
101 1 3.14319 2.69011e-14 6.2887 -8.94945
102 1 4.71503 1.57089 7.86146 -8.94955
103 1 6.2886 4.40184e-13 6.28901 -8.95056
104 1 7.86102 1.57109 7.86215 -8.95107
105 1 9.43411 2.73822e-13 6.28944 -8.95011
106 1 11.0062 1.5722 7.86246 -8.94939
107 1 12.5788 1.59805e-13 6.2898 -8.95041
108 1 14.1514 1.57203 7.86221 -8.9495
109 1 15.7239 -1.05781e-14 6.28961 -8.94962
110 1 17.2964 1.57189 7.86173 -8.94941
111 1 18.8686 5.90073e-15 6.28924 -8.94943
112 1 20.4406 1.57186 7.8616 -8.94947
113 1 -0.00154662 3.14372 6.2888 -8.9494
114 1 1.56896 4.71513 7.86119 -8.94935
115 1 3.14213 3.14275 6.28825 -8.94927
116 1 4.71141 4.71262 7.86071 -8.94802
117 1 6.28699 3.14128 6.28821 -8.95152
118 1 7.85753 4.71062 7.86211 -8.95799
119 1 9.43368 3.14286 6.28928 -8.95038
120 1 11.0054 4.71646 7.86316 -8.95137
121 1 12.579 3.14293 6.2897 -8.95246
122 1 14.1518 4.71609 7.86305 -8.94923
123 1 15.7241 3.14383 6.28968 -8.94972
124 1 17.2968 4.71597 7.86186 -8.94867
125 1 18.8686 3.14399 6.28921 -8.94932
126 1 20.4402 4.71601 7.86153 -8.94949
127 1 22.0113 6.28842 6.28861 -8.95009
128 1 1.56675 7.8605 7.86101 -8.9514
129 1 3.13847 6.2864 6.28687 -8.95005
130 1 4.70277 7.85648 7.85923 -8.95621
131 1 6.2759 6.27801 6.27965 -8.93241
132 1 7.81958 7.831 7.83539 -8.88756
133 1 9.43189 6.28298 6.28775 -8.95185
134 1 11.0224 7.85594 7.84193 -8.94635
135 1 12.5848 6.27963 6.28416 -8.95316
136 1 14.1562 7.85992 7.86466 -8.95167
137 1 15.7264 6.28746 6.28925 -8.95113
138 1 17.2968 7.8618 7.86357 -8.95106
139 1 18.8688 6.28883 6.28948 -8.9502
140 1 20.4395 7.86143 7.86189 -8.95007
141 1 22.0119 9.43423 6.28876 -8.94992
142 1 3.14046 9.43457 6.28848 -8.95001
143 1 6.28231 9.43626 6.28927 -8.95225
144 1 9.41815 9.41433 6.29066 -8.94931
145 1 12.6202 9.40107 6.25367 -8.85289
146 1 15.7337 9.43207 6.2866 -8.9575
147 1 18.8703 9.43416 6.28922 -8.95177
148 1 -0.00123807 6.33746e-15 9.43426 -8.94948
149 1 3.14288 3.46325e-14 9.43441 -8.9495
150 1 6.28801 4.89786e-13 9.43459 -8.9504
151 1 9.43388 1.61385e-12 9.43463 -8.94843
152 1 12.5789 -7.01798e-14 9.43453 -8.94926
153 1 15.7242 1.25665e-14 9.43423 -8.94966
154 1 18.8687 5.11962e-15 9.43418 -8.94949
155 1 22.0122 3.14355 9.43426 -8.94945
156 1 3.14163 3.14255 9.43448 -8.94945
177 1 4.71488 1.57079 11.0077 -8.94948
184 1 4.71107 4.7124 11.0091 -8.94744
3 1 3.14453 6.8897e-15 -0.000221793 -8.94953
11 1 15.7243 3.75092e-15 0.000340404 -8.94955
41 1 18.8703 6.28857 0.000248321 -8.94939
19 1 6.28927 3.14428 -0.000219904 -8.94945
25 1 15.7247 3.14367 0.000321239 -8.94966
176 1 1.57059 1.57151 11.0072 -8.94945
47 1 12.5797 9.4343 22.0141 -8.9518
178 1 7.86096 1.57079 11.0074 -8.95139
179 1 11.0063 1.57183 11.0071 -8.94936
180 1 14.1519 1.57156 11.0068 -8.94961
343 1 18.8713 9.43388 18.8712 -8.94932
182 1 20.4408 1.57177 11.0069 -8.94948
342 1 15.7275 9.43337 18.8733 -8.94917
46 1 9.43433 9.43466 22.0149 -8.94903
185 1 7.85745 4.70923 11.0098 -8.95904
186 1 11.0061 4.71541 11.0089 -8.9506
187 1 14.1531 4.7146 11.0073 -8.94873
341 1 12.5809 9.43387 18.874 -8.95234
340 1 9.43486 9.43462 18.8707 -8.94937
190 1 1.56685 7.86065 11.0076 -8.95143
191 1 4.70306 7.8573 11.0108 -8.95789
192 1 7.81945 7.82596 11.0441 -8.90969
193 1 11.0263 7.85509 11.0368 -8.96222
194 1 14.1581 7.85795 11.0078 -8.95055
195 1 17.2984 7.86053 11.0075 -8.95036
196 1 20.44 7.86113 11.0072 -8.95013
197 1 22.0129 6.23906e-15 12.5798 -8.94947
198 1 1.571 1.57156 14.1529 -8.94945
199 1 3.14304 3.21735e-14 12.5803 -8.94944
200 1 4.71537 1.57085 14.1536 -8.95005
201 1 6.28835 4.14841e-13 12.5803 -8.95074
202 1 7.8613 1.57118 14.1532 -8.94963
203 1 9.43409 2.82515e-13 12.5801 -8.95008
204 1 11.0068 1.57092 14.1532 -8.94986
205 1 12.5792 1.65367e-13 12.5796 -8.95092
206 1 14.1526 1.57045 14.1529 -8.95115
207 1 15.7246 -2.78494e-15 12.5794 -8.94966
208 1 17.2973 1.57136 14.1524 -8.94968
209 1 18.869 5.7782e-15 12.5795 -8.94947
210 1 20.4412 1.57171 14.1524 -8.94945
211 1 22.0125 3.14348 12.58 -8.9494
212 1 1.56974 4.7152 14.1538 -8.94973
213 1 3.14187 3.14252 12.5809 -8.94922
214 1 4.71145 4.71212 14.1571 -8.94449
215 1 6.28653 3.14052 12.5818 -8.9517
216 1 7.86002 4.71326 14.1555 -8.94931
217 1 9.43399 3.14195 12.5813 -8.95031
218 1 11.0075 4.71203 14.1566 -8.94798
219 1 12.5799 3.14097 12.5807 -8.95356
220 1 14.1568 4.70908 14.1574 -8.9503
221 1 15.7253 3.14264 12.5798 -8.9495
222 1 17.2992 4.71424 14.1536 -8.95015
223 1 18.8693 3.14346 12.5797 -8.94934
224 1 20.4415 4.71565 14.1529 -8.94983
225 1 22.0117 6.28814 12.5803 -8.95025
226 1 1.57001 7.86106 14.1536 -8.94948
227 1 3.13815 6.28622 12.5825 -8.95103
228 1 4.71287 7.86085 14.155 -8.95065
229 1 6.27455 6.27591 12.5929 -8.93053
230 1 7.85598 7.85505 14.1639 -8.95337
231 1 9.43405 6.28094 12.5869 -8.95119
232 1 11.0097 7.85266 14.1675 -8.94662
233 1 12.5882 6.2737 12.5904 -8.95678
234 1 14.1728 7.84277 14.1737 -8.92082
235 1 15.7289 6.28544 12.5818 -8.95059
236 1 17.3037 7.85839 14.1564 -8.95232
237 1 18.8702 6.28792 12.5801 -8.94985
238 1 20.4425 7.86089 14.1534 -8.95059
239 1 22.0117 9.43402 12.5805 -8.95
240 1 3.13904 9.43369 12.5818 -8.94759
241 1 6.28363 9.43373 12.5828 -8.97869
242 1 9.42535 9.41106 12.5953 -8.95339
243 1 12.633 9.38342 12.6354 -8.85651
244 1 15.7367 9.43147 12.5867 -8.9627
245 1 18.8713 9.43399 12.5809 -8.95249
246 1 -0.000550243 5.76577e-15 15.7252 -8.94947
247 1 1.5717 1.57178 17.2979 -8.94909
248 1 3.14358 2.89385e-14 15.7257 -8.94952
249 1 4.71652 1.57181 17.2979 -8.94961
250 1 6.28892 2.16513e-14 15.7255 -8.94954
251 1 7.86152 1.57178 17.2979 -8.94935
252 1 9.43409 2.04722e-14 15.7255 -8.94956
253 1 11.0067 1.57157 17.2981 -8.94946
254 1 12.5795 2.31711e-14 15.7255 -8.94966
255 1 14.1523 1.57124 17.2982 -8.94953
256 1 15.7251 1.76961e-14 15.7255 -8.9503
257 1 17.2979 1.5711 17.2983 -8.94942
258 1 18.8695 3.06417e-15 15.725 -8.94964
259 1 20.4418 1.5717 17.2977 -8.94947
260 1 22.0133 3.14359 15.7256 -8.94951
261 1 1.57191 4.71629 17.2982 -8.94981
262 1 3.14267 3.1429 15.7266 -8.94818
263 1 4.71565 4.71581 17.2991 -8.94959
264 1 6.28829 3.14308 15.7263 -8.94965
265 1 7.8611 4.71575 17.299 -8.9488
266 1 9.43387 3.14278 15.7264 -8.94925
267 1 11.0069 4.71496 17.2997 -8.94923
268 1 12.5801 3.14196 15.7268 -8.9492
269 1 14.1537 4.71385 17.3005 -8.94948
270 1 15.7267 3.14107 15.7271 -8.94951
271 1 17.3 4.71367 17.3003 -8.94731
272 1 18.8702 3.1431 15.7256 -8.94977
273 1 20.4427 4.7157 17.2984 -8.94949
274 1 22.0138 6.28843 15.7259 -8.94985
275 1 1.5723 7.86165 17.2981 -8.94955
276 1 3.14275 6.28851 15.7265 -8.95015
277 1 4.7167 7.86225 17.2979 -8.95003
278 1 6.28602 6.28662 15.7297 -8.95001
279 1 7.86193 7.86182 17.2994 -8.95273
280 1 9.43356 6.28588 15.7297 -8.94644
281 1 11.0076 7.85978 17.3025 -8.95092
282 1 12.5826 6.28386 15.732 -8.94847
283 1 14.1566 7.85806 17.3052 -8.95193
284 1 15.7325 6.28155 15.7329 -8.94189
285 1 17.3007 7.85976 17.3008 -8.94881
286 1 18.8723 6.28706 15.727 -8.94997
287 1 20.4431 7.86106 17.2986 -8.94935
288 1 22.0141 9.43406 15.726 -8.94954
289 1 3.14353 9.43442 15.7259 -8.94931
290 1 6.28951 9.43555 15.7251 -8.95003
291 1 9.43738 9.43452 15.7278 -8.95325
292 1 12.5871 9.43073 15.7403 -8.96119
293 1 15.7323 9.43169 15.7328 -8.94657
294 1 18.8727 9.43345 15.7275 -8.94918
295 1 22.0139 5.49305e-15 18.8699 -8.94916
296 1 1.57227 1.57201 20.4419 -8.94935
297 1 3.14447 7.30648e-15 18.8699 -8.94957
298 1 4.71697 1.57211 20.4418 -8.94949
299 1 6.28928 6.584e-15 18.8698 -8.94941
300 1 7.86177 1.57207 20.4419 -8.94946
301 1 9.43419 7.08613e-15 18.8699 -8.94946
302 1 11.0067 1.57197 20.4421 -8.94947
303 1 12.5793 5.93127e-15 18.8701 -8.94947
304 1 14.1519 1.57182 20.4423 -8.94946
305 1 15.7247 5.05847e-15 18.8703 -8.94953
306 1 17.2972 1.5717 20.4423 -8.94952
307 1 18.8698 4.573e-15 18.8702 -8.94921
308 1 20.442 1.57189 20.4421 -8.94904
309 1 0.000279966 3.14404 18.8701 -8.94948
310 1 1.57254 4.71679 20.4419 -8.94972
311 1 3.14427 3.14407 18.8702 -8.94953
312 1 4.71686 4.71679 20.4418 -8.95011
313 1 6.28912 3.14416 18.8701 -8.94937
314 1 7.86158 4.71658 20.4421 -8.94948
315 1 9.43408 3.1439 18.8703 -8.94944
316 1 11.0067 4.71621 20.4426 -8.94953
317 1 12.5795 3.1435 18.8707 -8.94939
318 1 14.1523 4.71576 20.4429 -8.94962
319 1 15.7252 3.14307 18.871 -8.94956
320 1 17.2982 4.71546 20.4428 -8.94942
321 1 18.8704 3.1433 18.8706 -8.94877
322 1 20.4424 4.71632 20.4423 -8.94943
323 1 22.0146 6.28894 18.8702 -8.9495
324 1 1.57274 7.86184 20.4419 -8.94955
325 1 3.14468 6.28942 18.87 -8.94987
326 1 4.71727 7.86222 20.4418 -8.94969
327 1 6.28915 6.28934 18.8705 -8.95075
328 1 7.86198 7.86217 20.4422 -8.95026
329 1 9.434 6.28852 18.8713 -8.94961
330 1 11.0067 7.86143 20.4432 -8.95039
331 1 12.58 6.28775 18.8724 -8.94972
332 1 14.1531 7.86085 20.4438 -8.95104
333 1 15.7269 6.28692 18.8729 -8.94997
334 1 17.2986 7.86087 20.4431 -8.94924
335 1 18.871 6.28813 18.871 -8.94931
336 1 20.4427 7.86144 20.4424 -8.94942
337 1 22.0147 9.43423 18.8703 -8.94949
338 1 3.14479 9.43448 18.8699 -8.9496
339 1 6.28969 9.43482 18.8696 -8.94943
45 1 6.28965 9.43475 22.0142 -8.94945
5 1 6.2894 7.01028e-15 22.0138 -8.94946
9 1 12.5792 5.50333e-15 22.0142 -8.94949
39 1 15.7257 6.28791 22.0139 -8.95012
15 1 22.014 3.14423 22.0139 -8.94949
17 1 3.14436 3.14419 22.0135 -8.94953
33 1 6.28924 6.28939 22.0134 -8.95061
31 1 3.14473 6.28948 22.0137 -8.94982
27 1 18.8699 3.14372 22.0141 -8.94908
29 1 0.000441222 6.28913 22.0139 -8.94948
1 1 -8.71822e-05 4.99449e-15 22.0139 -8.94913
13 1 18.8694 2.80278e-15 22.0141 -8.94929
21 1 9.43417 3.14417 22.014 -8.94947
23 1 12.5793 3.14399 22.0142 -8.94944
43 1 22.0145 9.43431 22.0139 -8.94951
49 1 18.8706 9.43407 22.0142 -8.94941
344 1 1.5723 11.007 1.57181 -8.94956
345 1 4.71678 11.007 1.57197 -8.94972
346 1 7.86201 11.007 1.57395 -8.94836
347 1 11.0066 11.007 1.57373 -8.94656
348 1 14.1544 11.007 1.56975 -8.94974
349 1 17.2988 11.007 1.57149 -8.94941
350 1 20.4424 11.007 1.57193 -8.94945
538 1 17.2968 20.4422 11.0068 -8.94949
352 1 1.57222 14.1521 1.57178 -8.94943
353 1 3.14484 12.5794 -0.000147096 -8.94959
354 1 4.71679 14.1517 1.57182 -8.94979
688 3 10.2573 11.007 9.46093 2.20127
356 1 7.86157 14.152 1.57167 -8.95207
511 1 18.8687 18.8701 9.4342 -8.94948
358 1 11.0063 14.1528 1.57143 -8.95044
510 1 15.7246 18.8704 9.43436 -8.94941
360 1 14.1537 14.1537 1.56974 -8.95178
361 1 15.7262 12.5801 0.000133186 -8.94941
362 1 17.2986 14.1531 1.5715 -8.94915
532 1 20.4405 17.2981 11.0071 -8.94954
364 1 20.4423 14.1524 1.57195 -8.94939
509 1 12.5788 18.8693 9.43503 -8.94858
366 1 1.57191 17.2973 1.5716 -8.94979
508 1 9.43327 18.8694 9.43524 -8.94675
368 1 4.71599 17.2978 1.57074 -8.94957
507 1 6.28586 18.8731 9.43492 -8.94987
370 1 7.86138 17.2976 1.57161 -8.94913
371 1 9.43394 15.725 0.000114301 -8.94961
372 1 11.0066 17.2978 1.57195 -8.94937
373 1 12.5794 15.7253 0.000292556 -8.94979
374 1 14.1523 17.2982 1.57172 -8.94985
506 1 3.14163 18.8714 9.43448 -8.94945
376 1 17.2982 17.2987 1.57151 -8.94829
505 1 22.0122 18.8703 9.43426 -8.94945
378 1 20.442 17.2976 1.57198 -8.9495
504 1 18.8688 15.7257 9.43446 -8.94953
380 1 1.57174 20.442 1.5717 -8.94917
503 1 15.726 15.7268 9.43506 -8.94521
382 1 4.71669 20.442 1.57167 -8.94959
502 1 12.5778 15.7232 9.43672 -8.94657
384 1 7.86176 20.4419 1.572 -8.94944
531 1 17.2976 17.2986 11.0072 -8.94893
386 1 11.0067 20.4419 1.57226 -8.94949
687 2 9.5603 11.007 10.24 -0.0245273
388 1 14.1518 20.4421 1.57237 -8.94952
501 1 9.42896 15.7206 9.43798 -9.00607
390 1 17.297 20.4423 1.57219 -8.94946
500 1 6.27633 15.7348 9.43609 -8.94368
392 1 20.4414 20.442 1.57219 -8.94944
393 1 1.57049 11.007 4.71588 -8.94949
394 1 4.714 11.007 4.71566 -8.94594
395 1 7.86298 11.007 4.72215 -8.94784
396 1 11.0108 11.007 4.72377 -9.00493
397 1 14.1622 11.007 4.70788 -8.94175
398 1 17.3007 11.007 4.71494 -8.94907
399 1 20.4418 11.007 4.71619 -8.94995
400 1 -0.000201309 12.5797 3.14388 -8.94952
401 1 1.5704 14.1524 4.71599 -8.94982
402 1 3.14356 12.5796 3.14372 -8.94899
403 1 4.71344 14.1527 4.71543 -8.95124
404 1 6.28878 12.5787 3.14506 -8.94953
405 1 7.85537 14.1573 4.71033 -8.95369
406 1 9.43443 12.5793 3.14652 -8.95004
407 1 11.0061 14.1558 4.71155 -8.95218
408 1 12.582 12.5807 3.13819 -8.95978
409 1 14.1643 14.1638 4.70517 -8.92986
410 1 15.7282 12.5809 3.14152 -8.94751
411 1 17.3005 14.154 4.71524 -8.95072
412 1 18.8707 12.58 3.14367 -8.94926
413 1 20.4416 14.1525 4.71636 -8.95017
414 1 22.0135 15.725 3.14392 -8.9498
415 1 1.56983 17.2983 4.7155 -8.94947
416 1 3.14314 15.7251 3.14325 -8.95027
417 1 4.71231 17.3009 4.7131 -8.94522
418 1 6.28657 15.7267 3.14115 -8.95009
419 1 7.86003 17.2997 4.71556 -8.94921
420 1 9.43324 15.7263 3.14322 -8.94773
421 1 11.0064 17.2991 4.71593 -8.94803
422 1 12.5799 15.7266 3.14239 -8.94964
423 1 14.1541 17.3013 4.71476 -8.94996
424 1 15.7284 15.7287 3.14099 -8.94469
425 1 17.2974 17.2983 4.71659 -8.95021
426 1 18.8705 15.7257 3.14378 -8.94965
427 1 20.4407 17.2977 4.71652 -8.94987
428 1 22.013 18.8699 3.14396 -8.94947
429 1 1.57106 20.4422 4.71619 -8.94943
430 1 3.14302 18.8706 3.14299 -8.9484
431 1 4.71574 20.4428 4.71587 -8.95002
432 1 6.28861 18.8705 3.14355 -8.94965
433 1 7.86147 20.4424 4.71655 -8.94966
434 1 9.43397 18.8702 3.14415 -8.94939
435 1 11.0066 20.4422 4.71686 -8.9496
436 1 12.5792 18.8703 3.14429 -8.94924
437 1 14.1517 20.4424 4.71701 -8.9507
438 1 15.7251 18.8711 3.14386 -8.9495
439 1 17.2965 20.442 4.71704 -8.94975
440 1 18.8692 18.8701 3.14437 -8.94974
441 1 20.4408 20.442 4.7167 -8.94944
442 1 1.56828 11.007 7.86123 -8.94773
443 1 4.71337 11.007 7.86274 -8.94092
444 1 7.87336 11.007 7.87034 -8.95312
445 1 11.0871 11.007 7.62934 -8.17128
446 1 14.1593 11.007 7.85608 -8.96961
447 1 17.2973 11.007 7.86329 -8.9516
448 1 20.4397 11.007 7.86196 -8.94961
449 1 22.0119 12.5797 6.28876 -8.94992
450 1 1.56675 14.1534 7.86101 -8.9514
451 1 3.14046 12.5793 6.28848 -8.95001
452 1 4.70277 14.1574 7.85923 -8.95621
453 1 6.28231 12.5776 6.28927 -8.95225
454 1 7.81958 14.1829 7.83539 -8.88756
455 1 9.41815 12.5996 6.29066 -8.94931
456 1 11.0224 14.158 7.84193 -8.94635
457 1 12.6202 12.6128 6.25367 -8.85289
458 1 14.1562 14.154 7.86466 -8.95167
459 1 15.7337 12.5818 6.2866 -8.9575
460 1 17.2968 14.1521 7.86357 -8.95106
461 1 18.8703 12.5797 6.28922 -8.95177
462 1 20.4395 14.1525 7.86189 -8.95007
463 1 22.0113 15.7255 6.28861 -8.95009
464 1 1.56896 17.2988 7.86119 -8.94935
465 1 3.13847 15.7275 6.28687 -8.95005
466 1 4.71141 17.3013 7.86071 -8.94802
467 1 6.2759 15.7359 6.27965 -8.93241
468 1 7.85753 17.3033 7.86211 -8.95799
469 1 9.43189 15.7309 6.28775 -8.95185
470 1 11.0054 17.2974 7.86316 -8.95137
471 1 12.5848 15.7343 6.28416 -8.95316
472 1 14.1518 17.2978 7.86305 -8.94923
473 1 15.7264 15.7264 6.28925 -8.95113
474 1 17.2968 17.2979 7.86186 -8.94867
475 1 18.8688 15.7251 6.28948 -8.9502
476 1 20.4402 17.2979 7.86153 -8.94949
477 1 -0.00154662 18.8702 6.2888 -8.9494
478 1 1.57062 20.4423 7.86148 -8.94947
479 1 3.14213 18.8712 6.28825 -8.94927
480 1 4.71503 20.443 7.86146 -8.94955
481 1 6.28699 18.8726 6.28821 -8.95152
482 1 7.86102 20.4428 7.86215 -8.95107
483 1 9.43368 18.871 6.28928 -8.95038
484 1 11.0062 20.4417 7.86246 -8.94939
485 1 12.579 18.871 6.2897 -8.95246
486 1 14.1514 20.4419 7.86221 -8.9495
487 1 15.7241 18.8701 6.28968 -8.94972
488 1 17.2964 20.442 7.86173 -8.94941
489 1 18.8686 18.8699 6.28921 -8.94932
490 1 20.4406 20.442 7.8616 -8.94947
491 1 22.0099 12.5798 9.43429 -8.94967
492 1 3.13608 12.5806 9.43391 -8.95064
493 1 6.27177 12.5893 9.43377 -9.01871
494 1 9.35896 12.8167 9.43513 -8.35122
495 1 12.5626 12.5746 9.43326 -8.9478
496 1 15.7195 12.5777 9.4383 -8.94456
497 1 18.8671 12.5795 9.43528 -8.94785
498 1 22.0108 15.7258 9.4343 -8.94998
499 1 3.13745 15.728 9.43472 -8.94918
526 1 1.56888 17.2989 11.0076 -8.94926
527 1 4.71107 17.3015 11.0091 -8.94744
534 1 4.71488 20.4431 11.0077 -8.94948
389 1 15.7247 18.8702 0.000321239 -8.94966
383 1 6.28927 18.8696 -0.000219904 -8.94945
377 1 18.8703 15.7253 0.000248321 -8.94939
512 1 1.56656 11.007 11.0077 -8.95079
513 1 4.70393 11.007 11.0081 -8.95626
514 1 7.82876 11.007 11.0156 -9.1237
515 1 11.1523 11.007 11.2707 -8.32736
516 1 14.1451 11.007 11.0224 -8.98795
517 1 17.2956 11.007 11.0087 -8.94587
518 1 20.4394 11.007 11.0073 -8.94907
519 1 1.56685 14.1532 11.0076 -8.95143
520 1 4.70306 14.1566 11.0108 -8.95789
521 1 7.81945 14.1879 11.0441 -8.90969
522 1 11.0263 14.1588 11.0368 -8.96222
523 1 14.1581 14.156 11.0078 -8.95055
524 1 17.2984 14.1534 11.0075 -8.95036
525 1 20.44 14.1528 11.0072 -8.95013
686 1 20.442 20.442 20.4421 -8.94904
391 1 18.8699 18.8702 22.0141 -8.94908
528 1 7.85745 17.3047 11.0098 -8.95904
529 1 11.0061 17.2985 11.0089 -8.9506
530 1 14.1531 17.2993 11.0073 -8.94873
685 1 18.8704 18.8706 18.8706 -8.94877
684 1 17.2972 20.4422 20.4423 -8.94952
533 1 1.57059 20.4424 11.0072 -8.94945
381 1 3.14436 18.8697 22.0135 -8.94953
535 1 7.86096 20.4431 11.0074 -8.95139
536 1 11.0063 20.4421 11.0071 -8.94936
537 1 14.1519 20.4423 11.0068 -8.94961
683 1 15.7252 18.8708 18.871 -8.94956
539 1 20.4408 20.4421 11.0069 -8.94948
540 1 1.57037 11.007 14.1535 -8.94897
541 1 4.71486 11.007 14.1532 -8.94688
542 1 7.86732 11.007 14.1483 -8.99116
543 1 11.0211 11.007 14.1547 -9.05609
544 1 14.1683 11.007 14.17 -8.94185
545 1 17.3038 11.007 14.1576 -8.94925
546 1 20.4427 11.007 14.1538 -8.95014
547 1 22.0117 12.5799 12.5805 -8.95
548 1 1.57001 14.1528 14.1536 -8.94948
549 1 3.13904 12.5802 12.5818 -8.94759
550 1 4.71287 14.1531 14.155 -8.95065
551 1 6.28363 12.5802 12.5828 -8.97869
552 1 7.85598 14.1589 14.1639 -8.95337
553 1 9.42535 12.6028 12.5953 -8.95339
554 1 11.0097 14.1612 14.1675 -8.94662
555 1 12.633 12.6305 12.6354 -8.85651
556 1 14.1728 14.1711 14.1737 -8.92082
557 1 15.7367 12.5824 12.5867 -8.9627
558 1 17.3037 14.1555 14.1564 -8.95232
559 1 18.8713 12.5799 12.5809 -8.95249
560 1 20.4425 14.153 14.1534 -8.95059
561 1 22.0117 15.7258 12.5803 -8.95025
562 1 1.56974 17.2987 14.1538 -8.94973
563 1 3.13815 15.7277 12.5825 -8.95103
564 1 4.71145 17.3018 14.1571 -8.94449
565 1 6.27455 15.738 12.5929 -8.93053
566 1 7.86002 17.3006 14.1555 -8.94931
567 1 9.43405 15.733 12.5869 -8.95119
568 1 11.0075 17.3019 14.1566 -8.94798
569 1 12.5882 15.7402 12.5904 -8.95678
570 1 14.1568 17.3048 14.1574 -8.9503
571 1 15.7289 15.7285 12.5818 -8.95059
572 1 17.2992 17.2997 14.1536 -8.95015
573 1 18.8702 15.726 12.5801 -8.94985
574 1 20.4415 17.2983 14.1529 -8.94983
575 1 22.0125 18.8704 12.58 -8.9494
576 1 1.571 20.4423 14.1529 -8.94945
577 1 3.14187 18.8714 12.5809 -8.94922
578 1 4.71537 20.443 14.1536 -8.95005
579 1 6.28653 18.8734 12.5818 -8.9517
580 1 7.8613 20.4427 14.1532 -8.94963
581 1 9.43399 18.872 12.5813 -8.95031
582 1 11.0068 20.443 14.1532 -8.94986
583 1 12.5799 18.8729 12.5807 -8.95356
584 1 14.1526 20.4435 14.1529 -8.95115
585 1 15.7253 18.8713 12.5798 -8.9495
586 1 17.2973 20.4425 14.1524 -8.94968
587 1 18.8693 18.8704 12.5797 -8.94934
588 1 20.4412 20.4422 14.1524 -8.94945
589 1 1.57233 11.007 17.298 -8.94954
590 1 4.71674 11.007 17.2976 -8.94935
591 1 7.86272 11.007 17.2968 -8.94737
592 1 11.0091 11.007 17.3006 -8.94627
593 1 14.1577 11.007 17.3054 -8.9492
594 1 17.3009 11.007 17.3011 -8.94923
595 1 20.4432 11.007 17.2987 -8.94946
596 1 22.0141 12.5798 15.726 -8.94954
597 1 1.5723 14.1523 17.2981 -8.94955
598 1 3.14353 12.5795 15.7259 -8.94931
599 1 4.7167 14.1516 17.2979 -8.95003
600 1 6.28951 12.5783 15.7251 -8.95003
601 1 7.86193 14.1521 17.2994 -8.95273
602 1 9.43738 12.5794 15.7278 -8.95325
603 1 11.0076 14.1541 17.3025 -8.95092
604 1 12.5871 12.5832 15.7403 -8.96119
605 1 14.1566 14.1558 17.3052 -8.95193
606 1 15.7323 12.5822 15.7328 -8.94657
607 1 17.3007 14.1541 17.3008 -8.94881
608 1 18.8727 12.5805 15.7275 -8.94918
609 1 20.4431 14.1528 17.2986 -8.94935
610 1 22.0138 15.7255 15.7259 -8.94985
611 1 1.57191 17.2976 17.2982 -8.94981
612 1 3.14275 15.7254 15.7265 -8.95015
613 1 4.71565 17.2981 17.2991 -8.94959
614 1 6.28602 15.7273 15.7297 -8.95001
615 1 7.8611 17.2982 17.299 -8.9488
616 1 9.43356 15.728 15.7297 -8.94644
617 1 11.0069 17.2989 17.2997 -8.94923
618 1 12.5826 15.73 15.732 -8.94847
619 1 14.1537 17.3 17.3005 -8.94948
620 1 15.7325 15.7323 15.7329 -8.94189
621 1 17.3 17.3002 17.3003 -8.94731
622 1 18.8723 15.7268 15.727 -8.94997
623 1 20.4427 17.2982 17.2984 -8.94949
624 1 22.0133 18.8703 15.7256 -8.94951
625 1 1.5717 20.4421 17.2979 -8.94909
626 1 3.14267 18.871 15.7266 -8.94818
627 1 4.71652 20.4421 17.2979 -8.94961
628 1 6.28829 18.8708 15.7263 -8.94965
629 1 7.86152 20.4421 17.2979 -8.94935
630 1 9.43387 18.8711 15.7264 -8.94925
631 1 11.0067 20.4423 17.2981 -8.94946
632 1 12.5801 18.8719 15.7268 -8.9492
633 1 14.1523 20.4427 17.2982 -8.94953
634 1 15.7267 18.8728 15.7271 -8.94951
635 1 17.2979 20.4428 17.2983 -8.94942
636 1 18.8702 18.8708 15.7256 -8.94977
637 1 20.4418 20.4422 17.2977 -8.94947
638 1 1.57278 11.007 20.442 -8.94957
639 1 4.71728 11.007 20.4418 -8.9497
640 1 7.86211 11.007 20.4421 -8.94893
641 1 11.007 11.007 20.4434 -8.94857
642 1 14.1536 11.007 20.4439 -8.95059
643 1 17.2988 11.007 20.4432 -8.9494
644 1 20.4427 11.007 20.4424 -8.94945
645 1 22.0147 12.5797 18.8703 -8.94949
646 1 1.57274 14.1521 20.4419 -8.94955
647 1 3.14479 12.5794 18.8699 -8.9496
648 1 4.71727 14.1517 20.4418 -8.94969
649 1 6.28969 12.5791 18.8696 -8.94943
650 1 7.86198 14.1517 20.4422 -8.95026
651 1 9.43486 12.5793 18.8707 -8.94937
652 1 11.0067 14.1525 20.4432 -8.95039
653 1 12.5809 12.58 18.874 -8.95234
654 1 14.1531 14.1531 20.4438 -8.95104
655 1 15.7275 12.5805 18.8733 -8.94917
656 1 17.2986 14.153 20.4431 -8.94924
657 1 18.8713 12.58 18.8712 -8.94932
658 1 20.4427 14.1525 20.4424 -8.94942
659 1 22.0146 15.725 18.8702 -8.9495
660 1 1.57254 17.2971 20.4419 -8.94972
661 1 3.14468 15.7245 18.87 -8.94987
662 1 4.71686 17.2971 20.4418 -8.95011
663 1 6.28915 15.7246 18.8705 -8.95075
664 1 7.86158 17.2973 20.4421 -8.94948
665 1 9.434 15.7254 18.8713 -8.94961
666 1 11.0067 17.2977 20.4426 -8.94953
667 1 12.58 15.7261 18.8724 -8.94972
668 1 14.1523 17.2981 20.4429 -8.94962
669 1 15.7269 15.727 18.8729 -8.94997
670 1 17.2982 17.2984 20.4428 -8.94942
671 1 18.871 15.7258 18.871 -8.94931
672 1 20.4424 17.2976 20.4423 -8.94943
673 1 0.000279966 18.8699 18.8701 -8.94948
674 1 1.57227 20.4419 20.4419 -8.94935
675 1 3.14427 18.8698 18.8702 -8.94953
676 1 4.71697 20.4418 20.4418 -8.94949
677 1 6.28912 18.8697 18.8701 -8.94937
678 1 7.86177 20.4418 20.4419 -8.94946
679 1 9.43408 18.87 18.8703 -8.94944
680 1 11.0067 20.4419 20.4421 -8.94947
681 1 12.5795 18.8704 18.8707 -8.94939
682 1 14.1519 20.4421 20.4423 -8.94946
355 1 6.28965 12.5791 22.0142 -8.94945
357 1 9.43433 12.5792 22.0149 -8.94903
359 1 12.5797 12.5796 22.0141 -8.9518
365 1 0.000441222 15.7248 22.0139 -8.94948
367 1 3.14473 15.7244 22.0137 -8.94982
369 1 6.28924 15.7245 22.0134 -8.95061
375 1 15.7257 15.726 22.0139 -8.95012
379 1 22.014 18.8697 22.0139 -8.94949
351 1 22.0145 12.5796 22.0139 -8.94951
363 1 18.8706 12.5798 22.0142 -8.94941
385 1 9.43417 18.8697 22.014 -8.94947
387 1 12.5793 18.8699 22.0142 -8.94944
