ITEM: TIMESTEP
4
ITEM: NUMBER OF ATOMS
688
ITEM: BOX BOUNDS pp pp pp
0.0000000000000000e+00 2.2013900999999997e+01
0.0000000000000000e+00 2.2013900999999997e+01
0.0000000000000000e+00 2.2013900999999997e+01
ITEM: ATOMS id type x y z c_pot
1 1 9.10562e-16 9.05171e-16 9.09663e-16 -8.94963
2 1 1.57242 1.57242 1.57242 -8.94963
3 1 3.14484 9.41102e-16 9.39811e-16 -8.94963
4 1 4.71726 1.57242 1.57242 -8.94963
5 1 6.28969 9.41102e-16 9.40092e-16 -8.94963
6 1 7.86211 1.57242 1.57242 -8.94963
7 1 9.43453 8.97092e-16 -4.12237e-11 -8.94963
8 1 11.007 1.57242 1.57242 -8.94963
9 1 12.5794 9.46489e-16 -1.50064e-13 -8.94963
10 1 14.1518 1.57242 1.57242 -8.94963
11 1 15.7242 8.43201e-16 8.51058e-16 -8.94963
12 1 17.2966 1.57242 1.57242 -8.94963
13 1 18.8691 9.64113e-16 9.62149e-16 -8.94963
14 1 20.4415 1.57242 1.57242 -8.94963
15 1 8.60714e-16 3.14484 1.0399e-15 -8.94963
16 1 1.57242 4.71726 1.57242 -8.94963
17 1 3.14484 3.14484 8.18975e-16 -8.94963
18 1 4.71726 4.71726 1.57242 -8.94963
19 1 6.28969 3.14484 -4.9755e-11 -8.94963
20 1 7.86211 4.71726 1.57242 -8.94964
21 1 9.43453 3.14484 -2.41971e-09 -8.94963
22 1 11.007 4.71726 1.57242 -8.94963
23 1 12.5794 3.14484 -3.77989e-10 -8.94963
24 1 14.1518 4.71726 1.57242 -8.94963
25 1 15.7242 3.14484 -1.49953e-13 -8.94963
26 1 17.2966 4.71726 1.57242 -8.94963
27 1 18.8691 3.14484 8.27475e-16 -8.94963
28 1 20.4415 4.71726 1.57242 -8.94963
29 1 8.6655e-16 6.28969 1.04664e-15 -8.94963
30 1 1.57242 7.86211 1.57242 -8.94963
31 1 3.14484 6.28969 -5.54441e-11 -8.94963
32 1 4.71726 7.86211 1.57242 -8.94964
33 1 6.28969 6.28969 -4.30277e-09 -8.94963
34 1 7.86211 7.86211 1.57242 -8.94964
35 1 9.43453 6.28969 -7.50659e-08 -8.94963
36 1 11.007 7.86211 1.57242 -8.94964
37 1 12.5794 6.28969 -8.66324e-09 -8.94963
38 1 14.1518 7.86211 1.57242 -8.94963
39 1 15.7242 6.28969 -4.38826e-10 -8.94963
40 1 17.2966 7.86211 1.57242 -8.94963
41 1 18.8691 6.28969 -1.50188e-13 -8.94963
42 1 20.4415 7.86211 1.57242 -8.94963
43 1 -2.92201e-11 9.43453 -2.922e-11 -8.94963
44 1 3.14484 9.43453 -2.72768e-09 -8.94963
45 1 6.28969 9.43453 -7.91106e-08 -8.94963
46 1 9.43453 9.43453 -7.554e-07 -8.94967
47 1 12.5794 9.43453 -1.71742e-08 -8.94963
48 1 15.7242 9.43453 -5.23237e-09 -8.94963
49 1 18.8691 9.43453 -3.03176e-10 -8.94963
50 1 9.02479e-16 9.02479e-16 3.14484 -8.94963
51 1 1.57242 1.57242 4.71726 -8.94963
52 1 3.14484 8.16394e-16 3.14484 -8.94963
53 1 4.71726 1.57242 4.71726 -8.94963
54 1 6.28969 8.13278e-16 3.14484 -8.94963
55 1 7.86211 1.57242 4.71726 -8.94963
56 1 9.43453 8.88923e-16 3.14484 -8.94963
57 1 11.007 1.57242 4.71726 -8.94963
58 1 12.5794 8.11986e-16 3.14484 -8.94963
59 1 14.1518 1.57242 4.71726 -8.94963
60 1 15.7242 9.50368e-16 3.14484 -8.94963
61 1 17.2966 1.57242 4.71726 -8.94963
62 1 18.8691 8.28514e-16 3.14484 -8.94963
63 1 20.4415 1.57242 4.71726 -8.94963
64 1 8.36038e-16 3.14484 3.14484 -8.94963
65 1 1.57242 4.71726 4.71726 -8.94963
66 1 3.14484 3.14484 3.14484 -8.94963
67 1 4.71726 4.71726 4.71726 -8.94966
68 1 6.28969 3.14484 3.14484 -8.94963
69 1 7.8621 4.71726 4.71726 -8.94964
70 1 9.43453 3.14484 3.14484 -8.94963
71 1 11.007 4.71727 4.71727 -8.94962
72 1 12.5794 3.14484 3.14484 -8.94964
73 1 14.1518 4.71726 4.71726 -8.94959
74 1 15.7242 3.14484 3.14484 -8.94963
75 1 17.2966 4.71726 4.71726 -8.94963
76 1 18.8691 3.14484 3.14484 -8.94963
77 1 20.4415 4.71726 4.71726 -8.94963
78 1 -5.54441e-11 6.28969 3.14484 -8.94963
79 1 1.57242 7.86211 4.71726 -8.94964
80 1 3.14484 6.28969 3.14484 -8.94963
81 1 4.71726 7.8621 4.71726 -8.94927
82 1 6.28969 6.28969 3.14484 -8.9496
83 1 7.86196 7.862 4.71716 -8.95031
84 1 9.43453 6.2897 3.14485 -8.94956
85 1 11.0071 7.86206 4.71716 -8.95109
86 1 12.5794 6.28968 3.14484 -8.94971
87 1 14.1518 7.86211 4.71727 -8.94848
88 1 15.7242 6.28969 3.14484 -8.94964
89 1 17.2966 7.86211 4.71726 -8.94966
90 1 18.8691 6.28969 3.14484 -8.94963
91 1 20.4415 7.86211 4.71726 -8.94963
92 1 -2.72768e-09 9.43453 3.14484 -8.94963
93 1 3.14484 9.43453 3.14484 -8.94968
94 1 6.28969 9.43452 3.14484 -8.94966
95 1 9.43451 9.43451 3.14467 -8.94857
96 1 12.5794 9.43452 3.14484 -8.95015
97 1 15.7242 9.43453 3.14484 -8.94974
98 1 18.8691 9.43453 3.14484 -8.94963
99 1 9.02479e-16 9.02479e-16 6.28969 -8.94963
100 1 1.57242 1.57242 7.86211 -8.94963
101 1 3.14484 8.29808e-16 6.28969 -8.94963
102 1 4.71726 1.57242 7.86211 -8.94963
103 1 6.28969 8.15017e-16 6.28969 -8.94963
104 1 7.86211 1.57242 7.86211 -8.94962
105 1 9.43453 8.97905e-16 6.28969 -8.94963
106 1 11.007 1.57242 7.86211 -8.94967
107 1 12.5794 8.21304e-16 6.28969 -8.94963
108 1 14.1518 1.57242 7.86211 -8.94963
109 1 15.7242 9.44867e-16 6.28969 -8.94963
110 1 17.2966 1.57242 7.86211 -8.94963
111 1 18.8691 8.26607e-16 6.28969 -8.94963
112 1 20.4415 1.57242 7.86211 -8.94963
113 1 -4.9755e-11 3.14484 6.28969 -8.94963
114 1 1.57242 4.71726 7.86211 -8.94964
115 1 3.14484 3.14484 6.28969 -8.94963
116 1 4.71726 4.71726 7.8621 -8.94964
117 1 6.28969 3.14484 6.28969 -8.94963
118 1 7.8621 4.71729 7.8621 -8.94815
119 1 9.43453 3.14484 6.28969 -8.9497
120 1 11.007 4.71709 7.86209 -8.94831
121 1 12.5794 3.14484 6.28969 -8.94964
122 1 14.1518 4.71727 7.8621 -8.94963
123 1 15.7242 3.14484 6.28969 -8.94964
124 1 17.2966 4.71726 7.86211 -8.94966
125 1 18.8691 3.14484 6.28969 -8.94963
126 1 20.4415 4.71726 7.86211 -8.94963
127 1 -4.30277e-09 6.28969 6.28969 -8.94963
128 1 1.57242 7.86211 7.86211 -8.94964
129 1 3.14484 6.28969 6.28969 -8.9496
130 1 4.71716 7.862 7.86196 -8.95031
131 1 6.28972 6.28972 6.28972 -8.94989
132 1 7.86119 7.86379 7.86119 -9.00554
133 1 9.43441 6.28966 6.28971 -8.9521
134 1 11.008 7.8634 7.86272 -9.02903
135 1 12.5795 6.28955 6.28956 -8.9505
136 1 14.1525 7.86146 7.86144 -8.94748
137 1 15.7242 6.28968 6.28968 -8.94944
138 1 17.2966 7.8621 7.86211 -8.94973
139 1 18.8691 6.28969 6.28969 -8.94963
140 1 20.4415 7.86211 7.86211 -8.94963
141 1 -7.91106e-08 9.43453 6.28969 -8.94963
142 1 3.14484 9.43452 6.28969 -8.94966
143 1 6.28869 9.43352 6.28869 -8.9454
144 1 9.43325 9.43566 6.29251 -9.04531
145 1 12.5821 9.43158 6.28711 -8.97607
146 1 15.7242 9.43454 6.28973 -8.9499
147 1 18.8691 9.43453 6.28969 -8.94963
148 1 -4.12238e-11 8.51284e-16 9.43453 -8.94963
149 1 3.14484 8.38456e-16 9.43453 -8.94963
150 1 6.28969 8.41824e-16 9.43453 -8.94963
151 1 9.43453 9.07043e-16 9.43453 -8.94965
152 1 12.5794 8.16139e-16 9.43453 -8.94964
153 1 15.7242 9.59854e-16 9.43453 -8.94963
154 1 18.8691 8.32276e-16 9.43453 -8.94963
155 1 -2.41971e-09 3.14484 9.43453 -8.94963
156 1 3.14484 3.14484 9.43453 -8.94963
157 1 6.28969 3.14484 9.43453 -8.9497
158 1 9.43453 3.14481 9.43453 -8.95099
159 1 12.5794 3.14484 9.43453 -8.94979
160 1 15.7242 3.14484 9.43453 -8.94964
161 1 18.8691 3.14484 9.43453 -8.94963
162 1 -7.50659e-08 6.28969 9.43453 -8.94963
163 1 3.14485 6.2897 9.43453 -8.94956
164 1 6.28971 6.28966 9.43441 -8.9521
165 1 9.43452 6.2841 9.43452 -8.96748
166 1 12.5796 6.28907 9.43441 -8.95239
167 1 15.7242 6.28973 9.43453 -8.94972
168 1 18.8691 6.28969 9.43453 -8.94963
169 1 -7.554e-07 9.43453 9.43453 -8.94967
170 1 3.14467 9.43451 9.43451 -8.94857
171 1 6.29251 9.43566 9.43325 -9.04531
172 1 9.41223 9.34273 9.41223 -9.32634
173 1 12.5878 9.42816 9.43412 -9.03026
174 1 15.725 9.43451 9.43452 -8.95106
175 1 18.8691 9.43453 9.43453 -8.94983
176 1 1.57242 1.57242 11.007 -8.94963
177 1 4.71726 1.57242 11.007 -8.94963
178 1 7.86211 1.57242 11.007 -8.94967
179 1 11.007 1.57242 11.007 -8.94972
180 1 14.1518 1.57242 11.007 -8.94963
181 1 17.2966 1.57242 11.007 -8.94963
182 1 20.4415 1.57242 11.007 -8.94963
183 1 1.57242 4.71726 11.007 -8.94963
184 1 4.71727 4.71727 11.007 -8.94962
185 1 7.86209 4.71709 11.007 -8.94831
186 1 11.007 4.71691 11.007 -8.94897
187 1 14.1518 4.71727 11.007 -8.94966
188 1 17.2966 4.71726 11.007 -8.94966
189 1 20.4415 4.71726 11.007 -8.94963
190 1 1.57242 7.86211 11.007 -8.94964
191 1 4.71716 7.86206 11.0071 -8.95109
192 1 7.86272 7.8634 11.008 -9.02903
193 1 11.0085 7.86103 11.0085 -9.05302
194 1 14.1524 7.86156 11.0076 -8.94857
195 1 17.2966 7.8621 11.007 -8.94973
196 1 20.4415 7.86211 11.007 -8.94964
197 1 -1.50064e-13 9.44974e-16 12.5794 -8.94963
198 1 1.57242 1.57242 14.1518 -8.94963
199 1 3.14484 8.1179e-16 12.5794 -8.94963
200 1 4.71726 1.57242 14.1518 -8.94963
201 1 6.28969 8.1628e-16 12.5794 -8.94963
202 1 7.86211 1.57242 14.1518 -8.94963
203 1 9.43453 8.2077e-16 12.5794 -8.94964
204 1 11.007 1.57242 14.1518 -8.94963
205 1 12.5794 8.10893e-16 12.5794 -8.94963
206 1 14.1518 1.57242 14.1518 -8.94963
207 1 15.7242 8.15383e-16 12.5794 -8.94963
208 1 17.2966 1.57242 14.1518 -8.94963
209 1 18.8691 8.10893e-16 12.5794 -8.94963
210 1 20.4415 1.57242 14.1518 -8.94963
211 1 -3.77989e-10 3.14484 12.5794 -8.94963
212 1 1.57242 4.71726 14.1518 -8.94963
213 1 3.14484 3.14484 12.5794 -8.94964
214 1 4.71726 4.71726 14.1518 -8.94959
215 1 6.28969 3.14484 12.5794 -8.94964
216 1 7.8621 4.71727 14.1518 -8.94963
217 1 9.43453 3.14484 12.5794 -8.94979
218 1 11.007 4.71727 14.1518 -8.94966
219 1 12.5794 3.14484 12.5794 -8.94965
220 1 14.1518 4.71726 14.1518 -8.94952
221 1 15.7242 3.14484 12.5794 -8.94965
222 1 17.2966 4.71726 14.1518 -8.94963
223 1 18.8691 3.14484 12.5794 -8.94963
224 1 20.4415 4.71726 14.1518 -8.94963
225 1 -8.66324e-09 6.28969 12.5794 -8.94963
226 1 1.57242 7.86211 14.1518 -8.94963
227 1 3.14484 6.28968 12.5794 -8.94971
228 1 4.71727 7.86211 14.1518 -8.94848
229 1 6.28956 6.28955 12.5795 -8.9505
230 1 7.86144 7.86146 14.1525 -8.94748
231 1 9.43441 6.28907 12.5796 -8.95239
232 1 11.0076 7.86156 14.1524 -8.94857
233 1 12.5797 6.2894 12.5797 -8.94942
234 1 14.1518 7.86213 14.1518 -8.94993
235 1 15.7242 6.28968 12.5794 -8.94944
236 1 17.2966 7.86211 14.1518 -8.94965
237 1 18.8691 6.28969 12.5794 -8.94963
238 1 20.4415 7.86211 14.1518 -8.94963
239 1 -1.71742e-08 9.43453 12.5794 -8.94963
240 1 3.14484 9.43452 12.5794 -8.95015
241 1 6.28711 9.43158 12.5821 -8.97607
242 1 9.43412 9.42816 12.5878 -9.03026
243 1 12.5785 9.43271 12.5785 -9.00706
244 1 15.7242 9.43454 12.5793 -8.94892
245 1 18.8691 9.43453 12.5794 -8.94962
246 1 8.39608e-16 8.48308e-16 15.7242 -8.94963
247 1 1.57242 1.57242 17.2966 -8.94963
248 1 3.14484 1.05784e-15 15.7242 -8.94963
249 1 4.71726 1.57242 17.2966 -8.94963
250 1 6.28969 1.05784e-15 15.7242 -8.94963
251 1 7.86211 1.57242 17.2966 -8.94963
252 1 9.43453 9.59039e-16 15.7242 -8.94963
253 1 11.007 1.57242 17.2966 -8.94963
254 1 12.5794 8.19873e-16 15.7242 -8.94963
255 1 14.1518 1.57242 17.2966 -8.94963
256 1 15.7242 8.66525e-16 15.7242 -8.94963
257 1 17.2966 1.57242 17.2966 -8.94963
258 1 18.8691 8.31068e-16 15.7242 -8.94963
259 1 20.4415 1.57242 17.2966 -8.94963
260 1 -1.50144e-13 3.14484 15.7242 -8.94963
261 1 1.57242 4.71726 17.2966 -8.94963
262 1 3.14484 3.14484 15.7242 -8.94963
263 1 4.71726 4.71726 17.2966 -8.94963
264 1 6.28969 3.14484 15.7242 -8.94964
265 1 7.86211 4.71726 17.2966 -8.94966
266 1 9.43453 3.14484 15.7242 -8.94964
267 1 11.007 4.71726 17.2966 -8.94966
268 1 12.5794 3.14484 15.7242 -8.94965
269 1 14.1518 4.71726 17.2966 -8.94963
270 1 15.7242 3.14484 15.7242 -8.94963
271 1 17.2966 4.71726 17.2966 -8.94963
272 1 18.8691 3.14484 15.7242 -8.94963
273 1 20.4415 4.71726 17.2966 -8.94963
274 1 -4.38826e-10 6.28969 15.7242 -8.94963
275 1 1.57242 7.86211 17.2966 -8.94963
276 1 3.14484 6.28969 15.7242 -8.94964
277 1 4.71726 7.86211 17.2966 -8.94966
278 1 6.28968 6.28968 15.7242 -8.94944
279 1 7.86211 7.8621 17.2966 -8.94973
280 1 9.43453 6.28973 15.7242 -8.94972
281 1 11.007 7.8621 17.2966 -8.94973
282 1 12.5794 6.28968 15.7242 -8.94944
283 1 14.1518 7.86211 17.2966 -8.94965
284 1 15.7242 6.28969 15.7242 -8.94966
285 1 17.2966 7.86211 17.2966 -8.94963
286 1 18.8691 6.28969 15.7242 -8.94963
287 1 20.4415 7.86211 17.2966 -8.94963
288 1 -5.23237e-09 9.43453 15.7242 -8.94963
289 1 3.14484 9.43453 15.7242 -8.94974
290 1 6.28973 9.43454 15.7242 -8.9499
291 1 9.43452 9.43451 15.725 -8.95106
292 1 12.5793 9.43454 15.7242 -8.94892
293 1 15.7242 9.43453 15.7242 -8.94966
294 1 18.8691 9.43453 15.7242 -8.94963
295 1 9.63552e-16 9.61868e-16 18.8691 -8.94963
296 1 1.57242 1.57242 20.4415 -8.94963
297 1 3.14484 8.26157e-16 18.8691 -8.94963
298 1 4.71726 1.57242 20.4415 -8.94963
299 1 6.28969 8.2975e-16 18.8691 -8.94963
300 1 7.86211 1.57242 20.4415 -8.94963
301 1 9.43453 8.33343e-16 18.8691 -8.94963
302 1 11.007 1.57242 20.4415 -8.94963
303 1 12.5794 8.10893e-16 18.8691 -8.94963
304 1 14.1518 1.57242 20.4415 -8.94963
305 1 15.7242 8.28853e-16 18.8691 -8.94963
306 1 17.2966 1.57242 20.4415 -8.94963
307 1 18.8691 8.24363e-16 18.8691 -8.94963
308 1 20.4415 1.57242 20.4415 -8.94963
309 1 8.30198e-16 3.14484 18.8691 -8.94963
310 1 1.57242 4.71726 20.4415 -8.94963
311 1 3.14484 3.14484 18.8691 -8.94963
312 1 4.71726 4.71726 20.4415 -8.94963
313 1 6.28969 3.14484 18.8691 -8.94963
314 1 7.86211 4.71726 20.4415 -8.94963
315 1 9.43453 3.14484 18.8691 -8.94963
316 1 11.007 4.71726 20.4415 -8.94963
317 1 12.5794 3.14484 18.8691 -8.94963
318 1 14.1518 4.71726 20.4415 -8.94963
319 1 15.7242 3.14484 18.8691 -8.94963
320 1 17.2966 4.71726 20.4415 -8.94963
321 1 18.8691 3.14484 18.8691 -8.94963
322 1 20.4415 4.71726 20.4415 -8.94963
323 1 -1.5018e-13 6.28969 18.8691 -8.94963
324 1 1.57242 7.86211 20.4415 -8.94963
325 1 3.14484 6.28969 18.8691 -8.94963
326 1 4.71726 7.86211 20.4415 -8.94963
327 1 6.28969 6.28969 18.8691 -8.94963
328 1 7.86211 7.86211 20.4415 -8.94963
329 1 9.43453 6.28969 18.8691 -8.94963
330 1 11.007 7.86211 20.4415 -8.94964
331 1 12.5794 6.28969 18.8691 -8.94963
332 1 14.1518 7.86211 20.4415 -8.94963
333 1 15.7242 6.28969 18.8691 -8.94963
334 1 17.2966 7.86211 20.4415 -8.94963
335 1 18.8691 6.28969 18.8691 -8.94963
336 1 20.4415 7.86211 20.4415 -8.94963
337 1 -3.03176e-10 9.43453 18.8691 -8.94963
338 1 3.14484 9.43453 18.8691 -8.94963
339 1 6.28969 9.43453 18.8691 -8.94963
340 1 9.43453 9.43453 18.8691 -8.94983
341 1 12.5794 9.43453 18.8691 -8.94962
342 1 15.7242 9.43453 18.8691 -8.94963
343 1 18.8691 9.43453 18.8691 -8.94963
344 1 1.57242 11.007 1.57242 -8.94963
345 1 4.71726 11.007 1.57242 -8.94964
346 1 7.86211 11.007 1.57241 -8.94987
347 1 11.007 11.007 1.5724 -8.94981
348 1 14.1518 11.007 1.57242 -8.94961
349 1 17.2966 11.007 1.57242 -8.94963
350 1 20.4415 11.007 1.57242 -8.94963
351 1 -2.92201e-11 12.5794 -2.92199e-11 -8.94963
352 1 1.57242 14.1518 1.57242 -8.94963
353 1 3.14484 12.5794 -2.72768e-09 -8.94963
354 1 4.71726 14.1518 1.57242 -8.94964
355 1 6.28969 12.5794 -7.91106e-08 -8.94963
356 1 7.86211 14.1518 1.57242 -8.94964
357 1 9.43453 12.5794 -7.554e-07 -8.94967
358 1 11.007 14.1518 1.57242 -8.94964
359 1 12.5794 12.5794 -1.71742e-08 -8.94963
360 1 14.1518 14.1518 1.57242 -8.94963
361 1 15.7242 12.5794 -5.23237e-09 -8.94963
362 1 17.2966 14.1518 1.57242 -8.94963
363 1 18.8691 12.5794 -3.03176e-10 -8.94963
364 1 20.4415 14.1518 1.57242 -8.94963
365 1 8.09098e-16 15.7242 8.7472e-16 -8.94963
366 1 1.57242 17.2966 1.57242 -8.94963
367 1 3.14484 15.7242 -5.54439e-11 -8.94963
368 1 4.71726 17.2966 1.57242 -8.94963
369 1 6.28969 15.7242 -4.30277e-09 -8.94963
370 1 7.86211 17.2966 1.57242 -8.94964
371 1 9.43453 15.7242 -7.50659e-08 -8.94963
372 1 11.007 17.2966 1.57242 -8.94963
373 1 12.5794 15.7242 -8.66324e-09 -8.94963
374 1 14.1518 17.2966 1.57242 -8.94963
375 1 15.7242 15.7242 -4.38826e-10 -8.94963
376 1 17.2966 17.2966 1.57242 -8.94963
377 1 18.8691 15.7242 -1.50177e-13 -8.94963
378 1 20.4415 17.2966 1.57242 -8.94963
379 1 8.59362e-16 18.8691 1.06679e-15 -8.94963
380 1 1.57242 20.4415 1.57242 -8.94963
381 1 3.14484 18.8691 8.26578e-16 -8.94963
382 1 4.71726 20.4415 1.57242 -8.94963
383 1 6.28969 18.8691 -4.9755e-11 -8.94963
384 1 7.86211 20.4415 1.57242 -8.94963
385 1 9.43453 18.8691 -2.41971e-09 -8.94963
386 1 11.007 20.4415 1.57242 -8.94963
387 1 12.5794 18.8691 -3.77989e-10 -8.94963
388 1 14.1518 20.4415 1.57242 -8.94963
389 1 15.7242 18.8691 -1.50181e-13 -8.94963
390 1 17.2966 20.4415 1.57242 -8.94963
391 1 18.8691 18.8691 8.27058e-16 -8.94963
392 1 20.4415 20.4415 1.57242 -8.94963
393 1 1.57242 11.007 4.71726 -8.94964
394 1 4.71733 11.007 4.71733 -8.94989
395 1 7.86192 11.007 4.71622 -8.95454
396 1 11.0065 11.007 4.71649 -8.96913
397 1 14.1517 11.007 4.71739 -8.95078
398 1 17.2966 11.007 4.71726 -8.94967
399 1 20.4415 11.007 4.71726 -8.94963
400 1 -2.72768e-09 12.5794 3.14484 -8.94963
401 1 1.57242 14.1518 4.71726 -8.94964
402 1 3.14484 12.5794 3.14484 -8.94968
403 1 4.71726 14.1518 4.71726 -8.94927
404 1 6.28969 12.5794 3.14484 -8.94966
405 1 7.86196 14.1519 4.71716 -8.95031
406 1 9.43451 12.5794 3.14467 -8.94857
407 1 11.0071 14.1518 4.71716 -8.95109
408 1 12.5794 12.5794 3.14484 -8.95015
409 1 14.1518 14.1518 4.71727 -8.94848
410 1 15.7242 12.5794 3.14484 -8.94974
411 1 17.2966 14.1518 4.71726 -8.94966
412 1 18.8691 12.5794 3.14484 -8.94963
413 1 20.4415 14.1518 4.71726 -8.94963
414 1 -5.54441e-11 15.7242 3.14484 -8.94963
415 1 1.57242 17.2966 4.71726 -8.94963
416 1 3.14484 15.7242 3.14484 -8.94963
417 1 4.71726 17.2966 4.71726 -8.94966
418 1 6.28969 15.7242 3.14484 -8.9496
419 1 7.8621 17.2966 4.71726 -8.94964
420 1 9.43453 15.7242 3.14485 -8.94956
421 1 11.007 17.2966 4.71727 -8.94962
422 1 12.5794 15.7242 3.14484 -8.94971
423 1 14.1518 17.2966 4.71726 -8.94959
424 1 15.7242 15.7242 3.14484 -8.94964
425 1 17.2966 17.2966 4.71726 -8.94963
426 1 18.8691 15.7242 3.14484 -8.94963
427 1 20.4415 17.2966 4.71726 -8.94963
428 1 8.23633e-16 18.8691 3.14484 -8.94963
429 1 1.57242 20.4415 4.71726 -8.94963
430 1 3.14484 18.8691 3.14484 -8.94963
431 1 4.71726 20.4415 4.71726 -8.94963
432 1 6.28969 18.8691 3.14484 -8.94963
433 1 7.86211 20.4415 4.71726 -8.94963
434 1 9.43453 18.8691 3.14484 -8.94963
435 1 11.007 20.4415 4.71726 -8.94963
436 1 12.5794 18.8691 3.14484 -8.94964
437 1 14.1518 20.4415 4.71726 -8.94963
438 1 15.7242 18.8691 3.14484 -8.94963
439 1 17.2966 20.4415 4.71726 -8.94963
440 1 18.8691 18.8691 3.14484 -8.94963
441 1 20.4415 20.4415 4.71726 -8.94963
442 1 1.57241 11.007 7.86211 -8.94987
443 1 4.71622 11.007 7.86192 -8.95454
444 1 7.84709 11.007 7.84709 -9.01332
445 1 11.0436 11.007 7.78868 -9.28015
446 1 14.1543 11.007 7.86184 -9.00805
447 1 17.2966 11.007 7.8621 -8.95011
448 1 20.4415 11.007 7.86211 -8.94963
449 1 -7.91106e-08 12.5794 6.28969 -8.94963
450 1 1.57242 14.1518 7.86211 -8.94964
451 1 3.14484 12.5794 6.28969 -8.94966
452 1 4.71716 14.1519 7.86196 -8.95031
453 1 6.28869 12.5804 6.28869 -8.9454
454 1 7.86119 14.1501 7.86119 -9.00554
455 1 9.43325 12.5782 6.29251 -9.04531
456 1 11.008 14.1505 7.86272 -9.02903
457 1 12.5821 12.5823 6.28711 -8.97607
458 1 14.1525 14.1524 7.86144 -8.94748
459 1 15.7242 12.5794 6.28973 -8.9499
460 1 17.2966 14.1518 7.86211 -8.94973
461 1 18.8691 12.5794 6.28969 -8.94963
462 1 20.4415 14.1518 7.86211 -8.94963
463 1 -4.30277e-09 15.7242 6.28969 -8.94963
464 1 1.57242 17.2966 7.86211 -8.94964
465 1 3.14484 15.7242 6.28969 -8.9496
466 1 4.71726 17.2966 7.8621 -8.94964
467 1 6.28972 15.7242 6.28972 -8.94989
468 1 7.8621 17.2966 7.8621 -8.94815
469 1 9.43441 15.7242 6.28971 -8.9521
470 1 11.007 17.2968 7.86209 -8.94831
471 1 12.5795 15.7243 6.28956 -8.9505
472 1 14.1518 17.2966 7.8621 -8.94963
473 1 15.7242 15.7242 6.28968 -8.94944
474 1 17.2966 17.2966 7.86211 -8.94966
475 1 18.8691 15.7242 6.28969 -8.94963
476 1 20.4415 17.2966 7.86211 -8.94963
477 1 -4.9755e-11 18.8691 6.28969 -8.94963
478 1 1.57242 20.4415 7.86211 -8.94963
479 1 3.14484 18.8691 6.28969 -8.94963
480 1 4.71726 20.4415 7.86211 -8.94963
481 1 6.28969 18.8691 6.28969 -8.94963
482 1 7.86211 20.4415 7.86211 -8.94962
483 1 9.43453 18.8691 6.28969 -8.9497
484 1 11.007 20.4415 7.86211 -8.94967
485 1 12.5794 18.8691 6.28969 -8.94964
486 1 14.1518 20.4415 7.86211 -8.94963
487 1 15.7242 18.8691 6.28969 -8.94964
488 1 17.2966 20.4415 7.86211 -8.94963
489 1 18.8691 18.8691 6.28969 -8.94963
490 1 20.4415 20.4415 7.86211 -8.94963
491 1 -7.554e-07 12.5794 9.43453 -8.94967
492 1 3.14467 12.5794 9.43451 -8.94857
493 1 6.29251 12.5782 9.43325 -9.04531
494 1 9.41223 12.6712 9.41223 -9.32634
495 1 12.5878 12.5857 9.43412 -9.03026
496 1 15.725 12.5794 9.43452 -8.95106
497 1 18.8691 12.5794 9.43453 -8.94983
498 1 -7.50659e-08 15.7242 9.43453 -8.94963
499 1 3.14485 15.7242 9.43453 -8.94956
500 1 6.28971 15.7242 9.43441 -8.9521
501 1 9.43452 15.7298 9.43452 -8.96748
502 1 12.5796 15.7248 9.43441 -8.95239
503 1 15.7242 15.7242 9.43453 -8.94972
504 1 18.8691 15.7242 9.43453 -8.94963
505 1 -2.41971e-09 18.8691 9.43453 -8.94963
506 1 3.14484 18.8691 9.43453 -8.94963
507 1 6.28969 18.8691 9.43453 -8.9497
508 1 9.43453 18.8691 9.43453 -8.95099
509 1 12.5794 18.8691 9.43453 -8.94979
510 1 15.7242 18.8691 9.43453 -8.94964
511 1 18.8691 18.8691 9.43453 -8.94963
687 2 9.33627 11.007 10.3212 0.53763
688 2 10.3212 11.007 9.33627 0.53763
512 1 1.5724 11.007 11.007 -8.94981
513 1 4.71649 11.007 11.0065 -8.96913
514 1 7.78868 11.007 11.0436 -9.28015
515 1 11.0749 11.007 11.0749 -9.30878
516 1 14.155 11.007 11.0065 -9.01072
517 1 17.2966 11.007 11.007 -8.95028
518 1 20.4415 11.007 11.007 -8.94964
519 1 1.57242 14.1518 11.007 -8.94964
520 1 4.71716 14.1518 11.0071 -8.95109
521 1 7.86272 14.1505 11.008 -9.02903
522 1 11.0085 14.1529 11.0085 -9.05302
523 1 14.1524 14.1523 11.0076 -8.94857
524 1 17.2966 14.1518 11.007 -8.94973
525 1 20.4415 14.1518 11.007 -8.94964
526 1 1.57242 17.2966 11.007 -8.94963
527 1 4.71727 17.2966 11.007 -8.94962
528 1 7.86209 17.2968 11.007 -8.94831
529 1 11.007 17.297 11.007 -8.94897
530 1 14.1518 17.2966 11.007 -8.94966
531 1 17.2966 17.2966 11.007 -8.94966
532 1 20.4415 17.2966 11.007 -8.94963
533 1 1.57242 20.4415 11.007 -8.94963
534 1 4.71726 20.4415 11.007 -8.94963
535 1 7.86211 20.4415 11.007 -8.94967
536 1 11.007 20.4415 11.007 -8.94972
537 1 14.1518 20.4415 11.007 -8.94963
538 1 17.2966 20.4415 11.007 -8.94963
539 1 20.4415 20.4415 11.007 -8.94963
540 1 1.57242 11.007 14.1518 -8.94961
541 1 4.71739 11.007 14.1517 -8.95078
542 1 7.86184 11.007 14.1543 -9.00805
543 1 11.0065 11.007 14.155 -9.01072
544 1 14.1516 11.007 14.1516 -8.95292
545 1 17.2966 11.007 14.1518 -8.94965
546 1 20.4415 11.007 14.1518 -8.94963
547 1 -1.71742e-08 12.5794 12.5794 -8.94963
548 1 1.57242 14.1518 14.1518 -8.94963
549 1 3.14484 12.5794 12.5794 -8.95015
550 1 4.71727 14.1518 14.1518 -8.94848
551 1 6.28711 12.5823 12.5821 -8.97607
552 1 7.86144 14.1524 14.1525 -8.94748
553 1 9.43412 12.5857 12.5878 -9.03026
554 1 11.0076 14.1523 14.1524 -8.94857
555 1 12.5785 12.5812 12.5785 -9.00706
556 1 14.1518 14.1518 14.1518 -8.94993
557 1 15.7242 12.5794 12.5793 -8.94892
558 1 17.2966 14.1518 14.1518 -8.94965
559 1 18.8691 12.5794 12.5794 -8.94962
560 1 20.4415 14.1518 14.1518 -8.94963
561 1 -8.66324e-09 15.7242 12.5794 -8.94963
562 1 1.57242 17.2966 14.1518 -8.94963
563 1 3.14484 15.7242 12.5794 -8.94971
564 1 4.71726 17.2966 14.1518 -8.94959
565 1 6.28956 15.7243 12.5795 -8.9505
566 1 7.8621 17.2966 14.1518 -8.94963
567 1 9.43441 15.7248 12.5796 -8.95239
568 1 11.007 17.2966 14.1518 -8.94966
569 1 12.5797 15.7245 12.5797 -8.94942
570 1 14.1518 17.2966 14.1518 -8.94952
571 1 15.7242 15.7242 12.5794 -8.94944
572 1 17.2966 17.2966 14.1518 -8.94963
573 1 18.8691 15.7242 12.5794 -8.94963
574 1 20.4415 17.2966 14.1518 -8.94963
575 1 -3.77989e-10 18.8691 12.5794 -8.94963
576 1 1.57242 20.4415 14.1518 -8.94963
577 1 3.14484 18.8691 12.5794 -8.94964
578 1 4.71726 20.4415 14.1518 -8.94963
579 1 6.28969 18.8691 12.5794 -8.94964
580 1 7.86211 20.4415 14.1518 -8.94963
581 1 9.43453 18.8691 12.5794 -8.94979
582 1 11.007 20.4415 14.1518 -8.94963
583 1 12.5794 18.8691 12.5794 -8.94965
584 1 14.1518 20.4415 14.1518 -8.94963
585 1 15.7242 18.8691 12.5794 -8.94965
586 1 17.2966 20.4415 14.1518 -8.94963
587 1 18.8691 18.8691 12.5794 -8.94963
588 1 20.4415 20.4415 14.1518 -8.94963
589 1 1.57242 11.007 17.2966 -8.94963
590 1 4.71726 11.007 17.2966 -8.94967
591 1 7.8621 11.007 17.2966 -8.95011
592 1 11.007 11.007 17.2966 -8.95028
593 1 14.1518 11.007 17.2966 -8.94965
594 1 17.2966 11.007 17.2966 -8.94962
595 1 20.4415 11.007 17.2966 -8.94963
596 1 -5.23237e-09 12.5794 15.7242 -8.94963
597 1 1.57242 14.1518 17.2966 -8.94963
598 1 3.14484 12.5794 15.7242 -8.94974
599 1 4.71726 14.1518 17.2966 -8.94966
600 1 6.28973 12.5794 15.7242 -8.9499
601 1 7.86211 14.1518 17.2966 -8.94973
602 1 9.43452 12.5794 15.725 -8.95106
603 1 11.007 14.1518 17.2966 -8.94973
604 1 12.5793 12.5794 15.7242 -8.94892
605 1 14.1518 14.1518 17.2966 -8.94965
606 1 15.7242 12.5794 15.7242 -8.94966
607 1 17.2966 14.1518 17.2966 -8.94963
608 1 18.8691 12.5794 15.7242 -8.94963
609 1 20.4415 14.1518 17.2966 -8.94963
610 1 -4.38826e-10 15.7242 15.7242 -8.94963
611 1 1.57242 17.2966 17.2966 -8.94963
612 1 3.14484 15.7242 15.7242 -8.94964
613 1 4.71726 17.2966 17.2966 -8.94963
614 1 6.28968 15.7242 15.7242 -8.94944
615 1 7.86211 17.2966 17.2966 -8.94966
616 1 9.43453 15.7242 15.7242 -8.94972
617 1 11.007 17.2966 17.2966 -8.94966
618 1 12.5794 15.7242 15.7242 -8.94944
619 1 14.1518 17.2966 17.2966 -8.94963
620 1 15.7242 15.7242 15.7242 -8.94966
621 1 17.2966 17.2966 17.2966 -8.94963
622 1 18.8691 15.7242 15.7242 -8.94963
623 1 20.4415 17.2966 17.2966 -8.94963
624 1 -1.50177e-13 18.8691 15.7242 -8.94963
625 1 1.57242 20.4415 17.2966 -8.94963
626 1 3.14484 18.8691 15.7242 -8.94963
627 1 4.71726 20.4415 17.2966 -8.94963
628 1 6.28969 18.8691 15.7242 -8.94964
629 1 7.86211 20.4415 17.2966 -8.94963
630 1 9.43453 18.8691 15.7242 -8.94964
631 1 11.007 20.4415 17.2966 -8.94963
632 1 12.5794 18.8691 15.7242 -8.94965
633 1 14.1518 20.4415 17.2966 -8.94963
634 1 15.7242 18.8691 15.7242 -8.94963
635 1 17.2966 20.4415 17.2966 -8.94963
636 1 18.8691 18.8691 15.7242 -8.94963
637 1 20.4415 20.4415 17.2966 -8.94963
638 1 1.57242 11.007 20.4415 -8.94963
639 1 4.71726 11.007 20.4415 -8.94963
640 1 7.86211 11.007 20.4415 -8.94963
641 1 11.007 11.007 20.4415 -8.94964
642 1 14.1518 11.007 20.4415 -8.94963
643 1 17.2966 11.007 20.4415 -8.94963
644 1 20.4415 11.007 20.4415 -8.94963
645 1 -3.03176e-10 12.5794 18.8691 -8.94963
646 1 1.57242 14.1518 20.4415 -8.94963
647 1 3.14484 12.5794 18.8691 -8.94963
648 1 4.71726 14.1518 20.4415 -8.94963
649 1 6.28969 12.5794 18.8691 -8.94963
650 1 7.86211 14.1518 20.4415 -8.94963
651 1 9.43453 12.5794 18.8691 -8.94983
652 1 11.007 14.1518 20.4415 -8.94964
653 1 12.5794 12.5794 18.8691 -8.94962
654 1 14.1518 14.1518 20.4415 -8.94963
655 1 15.7242 12.5794 18.8691 -8.94963
656 1 17.2966 14.1518 20.4415 -8.94963
657 1 18.8691 12.5794 18.8691 -8.94963
658 1 20.4415 14.1518 20.4415 -8.94963
659 1 -1.50177e-13 15.7242 18.8691 -8.94963
660 1 1.57242 17.2966 20.4415 -8.94963
661 1 3.14484 15.7242 18.8691 -8.94963
662 1 4.71726 17.2966 20.4415 -8.94963
663 1 6.28969 15.7242 18.8691 -8.94963
664 1 7.86211 17.2966 20.4415 -8.94963
665 1 9.43453 15.7242 18.8691 -8.94963
666 1 11.007 17.2966 20.4415 -8.94963
667 1 12.5794 15.7242 18.8691 -8.94963
668 1 14.1518 17.2966 20.4415 -8.94963
669 1 15.7242 15.7242 18.8691 -8.94963
670 1 17.2966 17.2966 20.4415 -8.94963
671 1 18.8691 15.7242 18.8691 -8.94963
672 1 20.4415 17.2966 20.4415 -8.94963
673 1 8.19873e-16 18.8691 18.8691 -8.94963
674 1 1.57242 20.4415 20.4415 -8.94963
675 1 3.14484 18.8691 18.8691 -8.94963
676 1 4.71726 20.4415 20.4415 -8.94963
677 1 6.28969 18.8691 18.8691 -8.94963
678 1 7.86211 20.4415 20.4415 -8.94963
679 1 9.43453 18.8691 18.8691 -8.94963
680 1 11.007 20.4415 20.4415 -8.94963
681 1 12.5794 18.8691 18.8691 -8.94963
682 1 14.1518 20.4415 20.4415 -8.94963
683 1 15.7242 18.8691 18.8691 -8.94963
684 1 17.2966 20.4415 20.4415 -8.94963
685 1 18.8691 18.8691 18.8691 -8.94963
686 1 20.4415 20.4415 20.4415 -8.94963
