ITEM: TIMESTEP
6
ITEM: NUMBER OF ATOMS
688
ITEM: BOX BOUNDS pp pp pp
0.0000000000000000e+00 2.2013900999999997e+01
0.0000000000000000e+00 2.2013900999999997e+01
0.0000000000000000e+00 2.2013900999999997e+01
ITEM: ATOMS id type x y z c_pot
1 1 3.76962e-14 9.70699e-16 3.76969e-14 -8.94963
2 1 1.57242 1.57242 1.57242 -8.94963
3 1 3.14484 1.02004e-15 -1.37587e-11 -8.94963
4 1 4.71726 1.57242 1.57242 -8.94963
5 1 6.28969 1.06243e-15 2.32293e-10 -8.94963
6 1 7.86211 1.57242 1.57242 -8.94963
7 1 9.43453 9.16651e-16 -8.422e-10 -8.94963
8 1 11.007 1.57242 1.57242 -8.94963
9 1 12.5794 1.02024e-15 -1.61833e-10 -8.94963
10 1 14.1518 1.57242 1.57242 -8.94963
11 1 15.7242 8.82974e-16 -2.86996e-11 -8.94963
12 1 17.2966 1.57242 1.57242 -8.94963
13 1 18.8691 1.06556e-15 -3.58662e-12 -8.94963
14 1 20.4415 1.57242 1.57242 -8.94963
15 1 -1.68508e-11 3.14484 -1.68507e-11 -8.94963
16 1 1.57242 4.71726 1.57242 -8.94963
17 1 3.14484 3.14484 4.77141e-12 -8.94963
18 1 4.71726 4.71726 1.57242 -8.94963
19 1 6.28969 3.14484 -1.7163e-09 -8.94963
20 1 7.86211 4.71726 1.57242 -8.94964
21 1 9.43453 3.14484 -1.03868e-08 -8.94963
22 1 11.007 4.71726 1.57242 -8.94963
23 1 12.5794 3.14484 7.32085e-09 -8.94963
24 1 14.1518 4.71726 1.57242 -8.94963
25 1 15.7242 3.14484 -1.69572e-09 -8.94963
26 1 17.2966 4.71726 1.57242 -8.94963
27 1 18.8691 3.14484 -1.71775e-11 -8.94963
28 1 20.4415 4.71726 1.57242 -8.94963
29 1 8.35417e-11 6.28969 8.35419e-11 -8.94963
30 1 1.57242 7.86211 1.57242 -8.94963
31 1 3.14484 6.28969 -7.11682e-09 -8.94963
32 1 4.71726 7.86211 1.57242 -8.94963
33 1 6.28969 6.28969 -6.47458e-08 -8.94963
34 1 7.86211 7.86211 1.57242 -8.94964
35 1 9.43453 6.28969 1.50754e-07 -8.94963
36 1 11.007 7.86211 1.57242 -8.94963
37 1 12.5794 6.28969 -1.38033e-07 -8.94963
38 1 14.1518 7.86211 1.57242 -8.94964
39 1 15.7242 6.28969 2.3643e-09 -8.94963
40 1 17.2966 7.86211 1.57242 -8.94963
41 1 18.8691 6.28969 -7.88203e-10 -8.94963
42 1 20.4415 7.86211 1.57242 -8.94963
43 1 -1.40835e-09 9.43453 -1.40835e-09 -8.94963
44 1 3.14484 9.43453 9.19554e-09 -8.94963
45 1 6.28969 9.43453 -3.68531e-07 -8.94964
46 1 9.43453 9.43453 -3.3515e-06 -8.94966
47 1 12.5794 9.43453 -6.3565e-07 -8.94964
48 1 15.7242 9.43453 -2.38416e-08 -8.94963
49 1 18.8691 9.43453 3.44853e-09 -8.94963
50 1 -1.37587e-11 9.63559e-16 3.14484 -8.94963
51 1 1.57242 1.57242 4.71726 -8.94963
52 1 3.14484 9.08575e-16 3.14484 -8.94963
53 1 4.71726 1.57242 4.71726 -8.94963
54 1 6.28969 8.5943e-16 3.14484 -8.94963
55 1 7.86211 1.57242 4.71726 -8.94964
56 1 9.43453 8.7763e-16 3.14484 -8.94963
57 1 11.007 1.57242 4.71726 -8.94964
58 1 12.5794 7.75934e-16 3.14484 -8.94963
59 1 14.1518 1.57242 4.71726 -8.94963
60 1 15.7242 1.00061e-15 3.14484 -8.94963
61 1 17.2966 1.57242 4.71726 -8.94963
62 1 18.8691 8.56236e-16 3.14484 -8.94963
63 1 20.4415 1.57242 4.71726 -8.94963
64 1 4.77144e-12 3.14484 3.14484 -8.94963
65 1 1.57242 4.71726 4.71726 -8.94963
66 1 3.14484 3.14484 3.14484 -8.94963
67 1 4.71727 4.71727 4.71727 -8.94965
68 1 6.28969 3.14484 3.14484 -8.94963
69 1 7.8621 4.71725 4.71726 -8.94969
70 1 9.43453 3.14484 3.14484 -8.94963
71 1 11.007 4.71727 4.71727 -8.94965
72 1 12.5794 3.14484 3.14484 -8.94964
73 1 14.1518 4.71726 4.71726 -8.94961
74 1 15.7242 3.14484 3.14484 -8.94963
75 1 17.2966 4.71726 4.71726 -8.94963
76 1 18.8691 3.14484 3.14484 -8.94963
77 1 20.4415 4.71726 4.71726 -8.94963
78 1 -7.11682e-09 6.28969 3.14484 -8.94963
79 1 1.57242 7.86211 4.71726 -8.94963
80 1 3.14484 6.28969 3.14484 -8.94962
81 1 4.71723 7.86207 4.71723 -8.94919
82 1 6.28968 6.28968 3.14484 -8.94962
83 1 7.86201 7.86204 4.71716 -8.95045
84 1 9.43453 6.28969 3.14484 -8.94955
85 1 11.007 7.86211 4.71721 -8.95108
86 1 12.5794 6.28968 3.14484 -8.94975
87 1 14.1519 7.86203 4.71718 -8.94807
88 1 15.7242 6.28969 3.14484 -8.94961
89 1 17.2966 7.86211 4.71727 -8.94966
90 1 18.8691 6.28969 3.14484 -8.94963
91 1 20.4415 7.86211 4.71726 -8.94963
92 1 9.19554e-09 9.43453 3.14484 -8.94963
93 1 3.14485 9.43453 3.14485 -8.94968
94 1 6.28968 9.43451 3.14481 -8.94971
95 1 9.43451 9.43449 3.14471 -8.94841
96 1 12.5794 9.43451 3.14478 -8.95026
97 1 15.7242 9.43453 3.14485 -8.94975
98 1 18.8691 9.43453 3.14484 -8.94963
99 1 2.32293e-10 1.0135e-15 6.28969 -8.94963
100 1 1.57242 1.57242 7.86211 -8.94963
101 1 3.14484 8.7762e-16 6.28969 -8.94963
102 1 4.71726 1.57242 7.86211 -8.94964
103 1 6.28969 8.59266e-16 6.28969 -8.94963
104 1 7.86211 1.57242 7.86211 -8.94962
105 1 9.43453 9.02474e-16 6.28969 -8.94963
106 1 11.007 1.57242 7.86211 -8.94966
107 1 12.5794 8.14425e-16 6.28969 -8.94963
108 1 14.1518 1.57242 7.86211 -8.94964
109 1 15.7242 9.65353e-16 6.28969 -8.94963
110 1 17.2966 1.57242 7.86211 -8.94963
111 1 18.8691 8.61781e-16 6.28969 -8.94963
112 1 20.4415 1.57242 7.86211 -8.94963
113 1 -1.7163e-09 3.14484 6.28969 -8.94963
114 1 1.57242 4.71726 7.86211 -8.94964
115 1 3.14484 3.14484 6.28969 -8.94963
116 1 4.71726 4.71725 7.8621 -8.94969
117 1 6.28969 3.14484 6.28969 -8.94961
118 1 7.86204 4.71724 7.86204 -8.9482
119 1 9.43453 3.14484 6.28969 -8.94968
120 1 11.007 4.71707 7.86203 -8.94818
121 1 12.5794 3.14484 6.28968 -8.94963
122 1 14.1518 4.71724 7.8621 -8.94967
123 1 15.7242 3.14484 6.28969 -8.94963
124 1 17.2966 4.71727 7.86211 -8.94967
125 1 18.8691 3.14484 6.28969 -8.94963
126 1 20.4415 4.71726 7.86211 -8.94963
127 1 -6.47458e-08 6.28969 6.28969 -8.94963
128 1 1.57242 7.86211 7.86211 -8.94964
129 1 3.14484 6.28968 6.28968 -8.94962
130 1 4.71716 7.86204 7.86201 -8.95045
131 1 6.2897 6.28968 6.2897 -8.94951
132 1 7.86027 7.86296 7.86027 -9.00661
133 1 9.43443 6.28974 6.28978 -8.95194
134 1 11.0086 7.8631 7.86227 -9.02955
135 1 12.5795 6.28951 6.28957 -8.95052
136 1 14.1526 7.86138 7.86142 -8.94757
137 1 15.7242 6.28967 6.28966 -8.94942
138 1 17.2967 7.8621 7.8621 -8.94972
139 1 18.8691 6.28969 6.28969 -8.94963
140 1 20.4415 7.86211 7.86211 -8.94964
141 1 -3.68531e-07 9.43453 6.28969 -8.94964
142 1 3.14481 9.43451 6.28968 -8.94971
143 1 6.28849 9.43341 6.28849 -8.94555
144 1 9.43298 9.43549 6.29239 -9.04506
145 1 12.583 9.4307 6.28626 -8.97611
146 1 15.7243 9.43452 6.2897 -8.95005
147 1 18.8691 9.43453 6.28969 -8.94964
148 1 -8.422e-10 8.54418e-16 9.43453 -8.94963
149 1 3.14484 8.26729e-16 9.43453 -8.94963
150 1 6.28969 8.55621e-16 9.43453 -8.94963
151 1 9.43453 9.42888e-16 9.43453 -8.9497
152 1 12.5794 8.45499e-16 9.43453 -8.94964
153 1 15.7242 1.03181e-15 9.43453 -8.94963
154 1 18.8691 8.76391e-16 9.43453 -8.94963
155 1 -1.03868e-08 3.14484 9.43453 -8.94963
156 1 3.14484 3.14484 9.43453 -8.94963
157 1 6.28969 3.14484 9.43453 -8.94968
158 1 9.43453 3.1447 9.43453 -8.9513
159 1 12.5794 3.14483 9.43453 -8.9498
160 1 15.7242 3.14484 9.43453 -8.94963
161 1 18.8691 3.14484 9.43453 -8.94963
162 1 1.50754e-07 6.28969 9.43453 -8.94963
163 1 3.14484 6.28969 9.43453 -8.94955
164 1 6.28978 6.28974 9.43443 -8.95194
165 1 9.43452 6.2831 9.43452 -8.96791
166 1 12.5796 6.28904 9.43442 -8.95225
167 1 15.7242 6.28973 9.43453 -8.94968
168 1 18.8691 6.28969 9.43453 -8.94963
169 1 -3.3515e-06 9.43453 9.43453 -8.94966
170 1 3.14471 9.43449 9.43451 -8.94841
171 1 6.29239 9.43549 9.43298 -9.04506
172 1 9.41304 9.34476 9.41304 -9.33399
173 1 12.5874 9.42842 9.43389 -9.0306
174 1 15.7251 9.43444 9.4345 -8.95074
175 1 18.8691 9.43453 9.43453 -8.94985
176 1 1.57242 1.57242 11.007 -8.94963
177 1 4.71726 1.57242 11.007 -8.94964
178 1 7.86211 1.57242 11.007 -8.94966
179 1 11.007 1.57241 11.007 -8.94972
180 1 14.1518 1.57242 11.007 -8.94964
181 1 17.2966 1.57242 11.007 -8.94963
182 1 20.4415 1.57242 11.007 -8.94963
183 1 1.57242 4.71726 11.007 -8.94963
184 1 4.71727 4.71727 11.007 -8.94965
185 1 7.86203 4.71707 11.007 -8.94818
186 1 11.007 4.71687 11.007 -8.94879
187 1 14.1518 4.71726 11.007 -8.94969
188 1 17.2966 4.71727 11.0069 -8.94966
189 1 20.4415 4.71726 11.007 -8.94963
190 1 1.57242 7.86211 11.007 -8.94963
191 1 4.71721 7.86211 11.007 -8.95108
192 1 7.86227 7.8631 11.0086 -9.02955
193 1 11.0087 7.86095 11.0087 -9.0531
194 1 14.1525 7.86149 11.0076 -8.94863
195 1 17.2967 7.8621 11.007 -8.94974
196 1 20.4415 7.86211 11.007 -8.94964
197 1 -1.61833e-10 1.01841e-15 12.5794 -8.94963
198 1 1.57242 1.57242 14.1518 -8.94963
199 1 3.14484 7.89356e-16 12.5794 -8.94963
200 1 4.71726 1.57242 14.1518 -8.94963
201 1 6.28969 8.23596e-16 12.5794 -8.94963
202 1 7.86211 1.57242 14.1518 -8.94964
203 1 9.43453 8.67274e-16 12.5794 -8.94964
204 1 11.007 1.57242 14.1518 -8.94964
205 1 12.5794 8.33762e-16 12.5794 -8.94964
206 1 14.1518 1.57242 14.1518 -8.94963
207 1 15.7242 8.70962e-16 12.5794 -8.94963
208 1 17.2966 1.57242 14.1518 -8.94963
209 1 18.8691 8.66636e-16 12.5794 -8.94963
210 1 20.4415 1.57242 14.1518 -8.94963
211 1 7.32085e-09 3.14484 12.5794 -8.94963
212 1 1.57242 4.71726 14.1518 -8.94963
213 1 3.14484 3.14484 12.5794 -8.94964
214 1 4.71726 4.71726 14.1518 -8.94961
215 1 6.28968 3.14484 12.5794 -8.94963
216 1 7.8621 4.71724 14.1518 -8.94967
217 1 9.43453 3.14483 12.5794 -8.9498
218 1 11.007 4.71726 14.1518 -8.94969
219 1 12.5794 3.14483 12.5794 -8.94964
220 1 14.1518 4.71726 14.1518 -8.94952
221 1 15.7242 3.14484 12.5794 -8.94965
222 1 17.2966 4.71726 14.1518 -8.94962
223 1 18.8691 3.14484 12.5794 -8.94963
224 1 20.4415 4.71726 14.1518 -8.94963
225 1 -1.38033e-07 6.28969 12.5794 -8.94963
226 1 1.57242 7.86211 14.1518 -8.94964
227 1 3.14484 6.28968 12.5794 -8.94975
228 1 4.71718 7.86203 14.1519 -8.94807
229 1 6.28957 6.28951 12.5795 -8.95052
230 1 7.86142 7.86138 14.1526 -8.94757
231 1 9.43442 6.28904 12.5796 -8.95225
232 1 11.0076 7.86149 14.1525 -8.94863
233 1 12.5797 6.28935 12.5797 -8.94954
234 1 14.1518 7.86212 14.1518 -8.94955
235 1 15.7242 6.28966 12.5794 -8.94944
236 1 17.2966 7.86211 14.1518 -8.94965
237 1 18.8691 6.28969 12.5794 -8.94963
238 1 20.4415 7.86211 14.1518 -8.94963
239 1 -6.3565e-07 9.43453 12.5794 -8.94964
240 1 3.14478 9.43451 12.5794 -8.95026
241 1 6.28626 9.4307 12.583 -8.97611
242 1 9.43389 9.42842 12.5874 -9.0306
243 1 12.5793 9.43178 12.5793 -9.00818
244 1 15.7242 9.43451 12.5794 -8.94898
245 1 18.8691 9.43453 12.5794 -8.94962
246 1 -2.86996e-11 8.82422e-16 15.7242 -8.94963
247 1 1.57242 1.57242 17.2966 -8.94963
248 1 3.14484 1.12524e-15 15.7242 -8.94963
249 1 4.71726 1.57242 17.2966 -8.94963
250 1 6.28969 1.0849e-15 15.7242 -8.94963
251 1 7.86211 1.57242 17.2966 -8.94963
252 1 9.43453 1.04869e-15 15.7242 -8.94963
253 1 11.007 1.57242 17.2966 -8.94963
254 1 12.5794 8.79993e-16 15.7242 -8.94963
255 1 14.1518 1.57242 17.2966 -8.94963
256 1 15.7242 8.94798e-16 15.7242 -8.94963
257 1 17.2966 1.57242 17.2966 -8.94963
258 1 18.8691 9.30613e-16 15.7242 -8.94963
259 1 20.4415 1.57242 17.2966 -8.94963
260 1 -1.69572e-09 3.14484 15.7242 -8.94963
261 1 1.57242 4.71726 17.2966 -8.94963
262 1 3.14484 3.14484 15.7242 -8.94963
263 1 4.71726 4.71726 17.2966 -8.94963
264 1 6.28969 3.14484 15.7242 -8.94963
265 1 7.86211 4.71727 17.2966 -8.94967
266 1 9.43453 3.14484 15.7242 -8.94963
267 1 11.0069 4.71727 17.2966 -8.94966
268 1 12.5794 3.14484 15.7242 -8.94965
269 1 14.1518 4.71726 17.2966 -8.94962
270 1 15.7242 3.14484 15.7242 -8.94963
271 1 17.2966 4.71726 17.2966 -8.94963
272 1 18.8691 3.14484 15.7242 -8.94963
273 1 20.4415 4.71726 17.2966 -8.94963
274 1 2.3643e-09 6.28969 15.7242 -8.94963
275 1 1.57242 7.86211 17.2966 -8.94963
276 1 3.14484 6.28969 15.7242 -8.94961
277 1 4.71727 7.86211 17.2966 -8.94966
278 1 6.28966 6.28967 15.7242 -8.94942
279 1 7.8621 7.8621 17.2967 -8.94972
280 1 9.43453 6.28973 15.7242 -8.94968
281 1 11.007 7.8621 17.2967 -8.94974
282 1 12.5794 6.28966 15.7242 -8.94944
283 1 14.1518 7.86211 17.2966 -8.94965
284 1 15.7242 6.28969 15.7242 -8.94966
285 1 17.2966 7.86211 17.2966 -8.94963
286 1 18.8691 6.28969 15.7242 -8.94963
287 1 20.4415 7.86211 17.2966 -8.94963
288 1 -2.38416e-08 9.43453 15.7242 -8.94963
289 1 3.14485 9.43453 15.7242 -8.94975
290 1 6.2897 9.43452 15.7243 -8.95005
291 1 9.4345 9.43444 15.7251 -8.95074
292 1 12.5794 9.43451 15.7242 -8.94898
293 1 15.7242 9.43453 15.7242 -8.94971
294 1 18.8691 9.43453 15.7242 -8.94963
295 1 -3.58661e-12 1.05573e-15 18.8691 -8.94963
296 1 1.57242 1.57242 20.4415 -8.94963
297 1 3.14484 8.73206e-16 18.8691 -8.94963
298 1 4.71726 1.57242 20.4415 -8.94963
299 1 6.28969 8.75601e-16 18.8691 -8.94963
300 1 7.86211 1.57242 20.4415 -8.94963
301 1 9.43453 8.89839e-16 18.8691 -8.94963
302 1 11.007 1.57242 20.4415 -8.94963
303 1 12.5794 8.70941e-16 18.8691 -8.94963
304 1 14.1518 1.57242 20.4415 -8.94963
305 1 15.7242 9.23386e-16 18.8691 -8.94963
306 1 17.2966 1.57242 20.4415 -8.94963
307 1 18.8691 9.10131e-16 18.8691 -8.94963
308 1 20.4415 1.57242 20.4415 -8.94963
309 1 -1.71775e-11 3.14484 18.8691 -8.94963
310 1 1.57242 4.71726 20.4415 -8.94963
311 1 3.14484 3.14484 18.8691 -8.94963
312 1 4.71726 4.71726 20.4415 -8.94963
313 1 6.28969 3.14484 18.8691 -8.94963
314 1 7.86211 4.71726 20.4415 -8.94963
315 1 9.43453 3.14484 18.8691 -8.94963
316 1 11.007 4.71726 20.4415 -8.94963
317 1 12.5794 3.14484 18.8691 -8.94963
318 1 14.1518 4.71726 20.4415 -8.94963
319 1 15.7242 3.14484 18.8691 -8.94963
320 1 17.2966 4.71726 20.4415 -8.94963
321 1 18.8691 3.14484 18.8691 -8.94963
322 1 20.4415 4.71726 20.4415 -8.94963
323 1 -7.88203e-10 6.28969 18.8691 -8.94963
324 1 1.57242 7.86211 20.4415 -8.94963
325 1 3.14484 6.28969 18.8691 -8.94963
326 1 4.71726 7.86211 20.4415 -8.94963
327 1 6.28969 6.28969 18.8691 -8.94963
328 1 7.86211 7.86211 20.4415 -8.94964
329 1 9.43453 6.28969 18.8691 -8.94963
330 1 11.007 7.86211 20.4415 -8.94964
331 1 12.5794 6.28969 18.8691 -8.94963
332 1 14.1518 7.86211 20.4415 -8.94963
333 1 15.7242 6.28969 18.8691 -8.94963
334 1 17.2966 7.86211 20.4415 -8.94963
335 1 18.8691 6.28969 18.8691 -8.94963
336 1 20.4415 7.86211 20.4415 -8.94963
337 1 3.44853e-09 9.43453 18.8691 -8.94963
338 1 3.14484 9.43453 18.8691 -8.94963
339 1 6.28969 9.43453 18.8691 -8.94964
340 1 9.43453 9.43453 18.8691 -8.94985
341 1 12.5794 9.43453 18.8691 -8.94962
342 1 15.7242 9.43453 18.8691 -8.94963
343 1 18.8691 9.43453 18.8691 -8.94963
344 1 1.57242 11.007 1.57242 -8.94963
345 1 4.71727 11.007 1.57242 -8.94963
346 1 7.86211 11.007 1.5724 -8.94992
347 1 11.007 11.007 1.57238 -8.95003
348 1 14.1518 11.007 1.57242 -8.94961
349 1 17.2966 11.007 1.57242 -8.94963
350 1 20.4415 11.007 1.57242 -8.94963
351 1 -1.40835e-09 12.5794 -1.40835e-09 -8.94963
352 1 1.57242 14.1518 1.57242 -8.94963
353 1 3.14484 12.5794 9.19554e-09 -8.94963
354 1 4.71726 14.1518 1.57242 -8.94963
355 1 6.28969 12.5794 -3.68531e-07 -8.94964
356 1 7.86211 14.1518 1.57242 -8.94964
357 1 9.43453 12.5794 -3.3515e-06 -8.94966
358 1 11.007 14.1518 1.57242 -8.94963
359 1 12.5794 12.5794 -6.3565e-07 -8.94964
360 1 14.1518 14.1518 1.57242 -8.94964
361 1 15.7242 12.5794 -2.38416e-08 -8.94963
362 1 17.2966 14.1518 1.57242 -8.94963
363 1 18.8691 12.5794 3.44853e-09 -8.94963
364 1 20.4415 14.1518 1.57242 -8.94963
365 1 8.35416e-11 15.7242 8.35417e-11 -8.94963
366 1 1.57242 17.2966 1.57242 -8.94963
367 1 3.14484 15.7242 -7.11682e-09 -8.94963
368 1 4.71726 17.2966 1.57242 -8.94963
369 1 6.28969 15.7242 -6.47458e-08 -8.94963
370 1 7.86211 17.2966 1.57242 -8.94964
371 1 9.43453 15.7242 1.50754e-07 -8.94963
372 1 11.007 17.2966 1.57242 -8.94963
373 1 12.5794 15.7242 -1.38033e-07 -8.94963
374 1 14.1518 17.2966 1.57242 -8.94963
375 1 15.7242 15.7242 2.3643e-09 -8.94963
376 1 17.2966 17.2966 1.57242 -8.94963
377 1 18.8691 15.7242 -7.88203e-10 -8.94963
378 1 20.4415 17.2966 1.57242 -8.94963
379 1 -1.68508e-11 18.8691 -1.68506e-11 -8.94963
380 1 1.57242 20.4415 1.57242 -8.94963
381 1 3.14484 18.8691 4.77139e-12 -8.94963
382 1 4.71726 20.4415 1.57242 -8.94963
383 1 6.28969 18.8691 -1.7163e-09 -8.94963
384 1 7.86211 20.4415 1.57242 -8.94963
385 1 9.43453 18.8691 -1.03868e-08 -8.94963
386 1 11.007 20.4415 1.57242 -8.94963
387 1 12.5794 18.8691 7.32085e-09 -8.94963
388 1 14.1518 20.4415 1.57242 -8.94963
389 1 15.7242 18.8691 -1.69572e-09 -8.94963
390 1 17.2966 20.4415 1.57242 -8.94963
391 1 18.8691 18.8691 -1.71775e-11 -8.94963
392 1 20.4415 20.4415 1.57242 -8.94963
393 1 1.57242 11.007 4.71727 -8.94963
394 1 4.71732 11.007 4.71732 -8.94978
395 1 7.86193 11.007 4.71611 -8.95444
396 1 11.0065 11.007 4.71567 -8.96955
397 1 14.1517 11.007 4.71736 -8.9505
398 1 17.2966 11.007 4.71726 -8.94966
399 1 20.4415 11.007 4.71726 -8.94963
400 1 9.19554e-09 12.5794 3.14484 -8.94963
401 1 1.57242 14.1518 4.71726 -8.94963
402 1 3.14485 12.5794 3.14485 -8.94968
403 1 4.71723 14.1518 4.71723 -8.94919
404 1 6.28968 12.5794 3.14481 -8.94971
405 1 7.86201 14.1519 4.71716 -8.95045
406 1 9.43451 12.5794 3.14471 -8.94841
407 1 11.007 14.1518 4.71721 -8.95108
408 1 12.5794 12.5794 3.14478 -8.95026
409 1 14.1519 14.1519 4.71718 -8.94807
410 1 15.7242 12.5794 3.14485 -8.94975
411 1 17.2966 14.1518 4.71727 -8.94966
412 1 18.8691 12.5794 3.14484 -8.94963
413 1 20.4415 14.1518 4.71726 -8.94963
414 1 -7.11682e-09 15.7242 3.14484 -8.94963
415 1 1.57242 17.2966 4.71726 -8.94963
416 1 3.14484 15.7242 3.14484 -8.94962
417 1 4.71727 17.2966 4.71727 -8.94965
418 1 6.28968 15.7242 3.14484 -8.94962
419 1 7.8621 17.2966 4.71726 -8.94969
420 1 9.43453 15.7242 3.14484 -8.94955
421 1 11.007 17.2966 4.71727 -8.94965
422 1 12.5794 15.7242 3.14484 -8.94975
423 1 14.1518 17.2966 4.71726 -8.94961
424 1 15.7242 15.7242 3.14484 -8.94961
425 1 17.2966 17.2966 4.71726 -8.94963
426 1 18.8691 15.7242 3.14484 -8.94963
427 1 20.4415 17.2966 4.71726 -8.94963
428 1 4.77139e-12 18.8691 3.14484 -8.94963
429 1 1.57242 20.4415 4.71726 -8.94963
430 1 3.14484 18.8691 3.14484 -8.94963
431 1 4.71726 20.4415 4.71726 -8.94963
432 1 6.28969 18.8691 3.14484 -8.94963
433 1 7.86211 20.4415 4.71726 -8.94964
434 1 9.43453 18.8691 3.14484 -8.94963
435 1 11.007 20.4415 4.71726 -8.94964
436 1 12.5794 18.8691 3.14484 -8.94964
437 1 14.1518 20.4415 4.71726 -8.94963
438 1 15.7242 18.8691 3.14484 -8.94963
439 1 17.2966 20.4415 4.71726 -8.94963
440 1 18.8691 18.8691 3.14484 -8.94963
441 1 20.4415 20.4415 4.71726 -8.94963
442 1 1.5724 11.007 7.86211 -8.94992
443 1 4.71611 11.007 7.86193 -8.95444
444 1 7.84758 11.007 7.84758 -9.01317
445 1 11.0433 11.007 7.7884 -9.28083
446 1 14.1549 11.007 7.86176 -9.00824
447 1 17.2967 11.007 7.86209 -8.95022
448 1 20.4415 11.007 7.86211 -8.94965
449 1 -3.68531e-07 12.5794 6.28969 -8.94964
450 1 1.57242 14.1518 7.86211 -8.94964
451 1 3.14481 12.5794 6.28968 -8.94971
452 1 4.71716 14.1519 7.86201 -8.95045
453 1 6.28849 12.5805 6.28849 -8.94555
454 1 7.86027 14.1509 7.86027 -9.00661
455 1 9.43298 12.5784 6.29239 -9.04506
456 1 11.0086 14.1508 7.86227 -9.02955
457 1 12.583 12.5832 6.28626 -8.97611
458 1 14.1526 14.1525 7.86142 -8.94757
459 1 15.7243 12.5794 6.2897 -8.95005
460 1 17.2967 14.1518 7.8621 -8.94972
461 1 18.8691 12.5794 6.28969 -8.94964
462 1 20.4415 14.1518 7.86211 -8.94964
463 1 -6.47458e-08 15.7242 6.28969 -8.94963
464 1 1.57242 17.2966 7.86211 -8.94964
465 1 3.14484 15.7242 6.28968 -8.94962
466 1 4.71726 17.2966 7.8621 -8.94969
467 1 6.2897 15.7242 6.2897 -8.94951
468 1 7.86204 17.2967 7.86204 -8.9482
469 1 9.43443 15.7242 6.28978 -8.95194
470 1 11.007 17.2968 7.86203 -8.94818
471 1 12.5795 15.7244 6.28957 -8.95052
472 1 14.1518 17.2967 7.8621 -8.94967
473 1 15.7242 15.7242 6.28966 -8.94942
474 1 17.2966 17.2966 7.86211 -8.94967
475 1 18.8691 15.7242 6.28969 -8.94963
476 1 20.4415 17.2966 7.86211 -8.94963
477 1 -1.7163e-09 18.8691 6.28969 -8.94963
478 1 1.57242 20.4415 7.86211 -8.94963
479 1 3.14484 18.8691 6.28969 -8.94963
480 1 4.71726 20.4415 7.86211 -8.94964
481 1 6.28969 18.8691 6.28969 -8.94961
482 1 7.86211 20.4415 7.86211 -8.94962
483 1 9.43453 18.8691 6.28969 -8.94968
484 1 11.007 20.4415 7.86211 -8.94966
485 1 12.5794 18.8691 6.28968 -8.94963
486 1 14.1518 20.4415 7.86211 -8.94964
487 1 15.7242 18.8691 6.28969 -8.94963
488 1 17.2966 20.4415 7.86211 -8.94963
489 1 18.8691 18.8691 6.28969 -8.94963
490 1 20.4415 20.4415 7.86211 -8.94963
491 1 -3.3515e-06 12.5794 9.43453 -8.94966
492 1 3.14471 12.5794 9.43451 -8.94841
493 1 6.29239 12.5784 9.43298 -9.04506
494 1 9.41304 12.6691 9.41304 -9.33399
495 1 12.5874 12.5855 9.43389 -9.0306
496 1 15.7251 12.5795 9.4345 -8.95074
497 1 18.8691 12.5794 9.43453 -8.94985
498 1 1.50754e-07 15.7242 9.43453 -8.94963
499 1 3.14484 15.7242 9.43453 -8.94955
500 1 6.28978 15.7242 9.43443 -8.95194
501 1 9.43452 15.7308 9.43452 -8.96791
502 1 12.5796 15.7249 9.43442 -8.95225
503 1 15.7242 15.7242 9.43453 -8.94968
504 1 18.8691 15.7242 9.43453 -8.94963
505 1 -1.03868e-08 18.8691 9.43453 -8.94963
506 1 3.14484 18.8691 9.43453 -8.94963
507 1 6.28969 18.8691 9.43453 -8.94968
508 1 9.43453 18.8692 9.43453 -8.9513
509 1 12.5794 18.8691 9.43453 -8.9498
510 1 15.7242 18.8691 9.43453 -8.94963
511 1 18.8691 18.8691 9.43453 -8.94963
687 2 9.33793 11.007 10.32 0.547123
688 2 10.32 11.007 9.33793 0.547123
512 1 1.57238 11.007 11.007 -8.95003
513 1 4.71567 11.007 11.0065 -8.96955
514 1 7.7884 11.007 11.0433 -9.28083
515 1 11.0733 11.007 11.0733 -9.3155
516 1 14.1559 11.007 11.0065 -9.01098
517 1 17.2967 11.007 11.007 -8.95051
518 1 20.4415 11.007 11.007 -8.94966
519 1 1.57242 14.1518 11.007 -8.94963
520 1 4.71721 14.1518 11.007 -8.95108
521 1 7.86227 14.1508 11.0086 -9.02955
522 1 11.0087 14.153 11.0087 -9.0531
523 1 14.1525 14.1524 11.0076 -8.94863
524 1 17.2967 14.1518 11.007 -8.94974
525 1 20.4415 14.1518 11.007 -8.94964
526 1 1.57242 17.2966 11.007 -8.94963
527 1 4.71727 17.2966 11.007 -8.94965
528 1 7.86203 17.2968 11.007 -8.94818
529 1 11.007 17.297 11.007 -8.94879
530 1 14.1518 17.2966 11.007 -8.94969
531 1 17.2966 17.2966 11.0069 -8.94966
532 1 20.4415 17.2966 11.007 -8.94963
533 1 1.57242 20.4415 11.007 -8.94963
534 1 4.71726 20.4415 11.007 -8.94964
535 1 7.86211 20.4415 11.007 -8.94966
536 1 11.007 20.4415 11.007 -8.94972
537 1 14.1518 20.4415 11.007 -8.94964
538 1 17.2966 20.4415 11.007 -8.94963
539 1 20.4415 20.4415 11.007 -8.94963
540 1 1.57242 11.007 14.1518 -8.94961
541 1 4.71736 11.007 14.1517 -8.9505
542 1 7.86176 11.007 14.1549 -9.00824
543 1 11.0065 11.007 14.1559 -9.01098
544 1 14.1515 11.007 14.1515 -8.95264
545 1 17.2966 11.007 14.1518 -8.94963
546 1 20.4415 11.007 14.1518 -8.94963
547 1 -6.3565e-07 12.5794 12.5794 -8.94964
548 1 1.57242 14.1518 14.1518 -8.94964
549 1 3.14478 12.5794 12.5794 -8.95026
550 1 4.71718 14.1519 14.1519 -8.94807
551 1 6.28626 12.5832 12.583 -8.97611
552 1 7.86142 14.1525 14.1526 -8.94757
553 1 9.43389 12.5855 12.5874 -9.0306
554 1 11.0076 14.1524 14.1525 -8.94863
555 1 12.5793 12.5821 12.5793 -9.00818
556 1 14.1518 14.1518 14.1518 -8.94955
557 1 15.7242 12.5794 12.5794 -8.94898
558 1 17.2966 14.1518 14.1518 -8.94965
559 1 18.8691 12.5794 12.5794 -8.94962
560 1 20.4415 14.1518 14.1518 -8.94963
561 1 -1.38033e-07 15.7242 12.5794 -8.94963
562 1 1.57242 17.2966 14.1518 -8.94963
563 1 3.14484 15.7242 12.5794 -8.94975
564 1 4.71726 17.2966 14.1518 -8.94961
565 1 6.28957 15.7244 12.5795 -8.95052
566 1 7.8621 17.2967 14.1518 -8.94967
567 1 9.43442 15.7249 12.5796 -8.95225
568 1 11.007 17.2966 14.1518 -8.94969
569 1 12.5797 15.7246 12.5797 -8.94954
570 1 14.1518 17.2966 14.1518 -8.94952
571 1 15.7242 15.7242 12.5794 -8.94944
572 1 17.2966 17.2966 14.1518 -8.94962
573 1 18.8691 15.7242 12.5794 -8.94963
574 1 20.4415 17.2966 14.1518 -8.94963
575 1 7.32085e-09 18.8691 12.5794 -8.94963
576 1 1.57242 20.4415 14.1518 -8.94963
577 1 3.14484 18.8691 12.5794 -8.94964
578 1 4.71726 20.4415 14.1518 -8.94963
579 1 6.28968 18.8691 12.5794 -8.94963
580 1 7.86211 20.4415 14.1518 -8.94964
581 1 9.43453 18.8691 12.5794 -8.9498
582 1 11.007 20.4415 14.1518 -8.94964
583 1 12.5794 18.8691 12.5794 -8.94964
584 1 14.1518 20.4415 14.1518 -8.94963
585 1 15.7242 18.8691 12.5794 -8.94965
586 1 17.2966 20.4415 14.1518 -8.94963
587 1 18.8691 18.8691 12.5794 -8.94963
588 1 20.4415 20.4415 14.1518 -8.94963
589 1 1.57242 11.007 17.2966 -8.94963
590 1 4.71726 11.007 17.2966 -8.94966
591 1 7.86209 11.007 17.2967 -8.95022
592 1 11.007 11.007 17.2967 -8.95051
593 1 14.1518 11.007 17.2966 -8.94963
594 1 17.2966 11.007 17.2966 -8.94962
595 1 20.4415 11.007 17.2966 -8.94963
596 1 -2.38416e-08 12.5794 15.7242 -8.94963
597 1 1.57242 14.1518 17.2966 -8.94963
598 1 3.14485 12.5794 15.7242 -8.94975
599 1 4.71727 14.1518 17.2966 -8.94966
600 1 6.2897 12.5794 15.7243 -8.95005
601 1 7.8621 14.1518 17.2967 -8.94972
602 1 9.4345 12.5795 15.7251 -8.95074
603 1 11.007 14.1518 17.2967 -8.94974
604 1 12.5794 12.5794 15.7242 -8.94898
605 1 14.1518 14.1518 17.2966 -8.94965
606 1 15.7242 12.5794 15.7242 -8.94971
607 1 17.2966 14.1518 17.2966 -8.94963
608 1 18.8691 12.5794 15.7242 -8.94963
609 1 20.4415 14.1518 17.2966 -8.94963
610 1 2.3643e-09 15.7242 15.7242 -8.94963
611 1 1.57242 17.2966 17.2966 -8.94963
612 1 3.14484 15.7242 15.7242 -8.94961
613 1 4.71726 17.2966 17.2966 -8.94963
614 1 6.28966 15.7242 15.7242 -8.94942
615 1 7.86211 17.2966 17.2966 -8.94967
616 1 9.43453 15.7242 15.7242 -8.94968
617 1 11.0069 17.2966 17.2966 -8.94966
618 1 12.5794 15.7242 15.7242 -8.94944
619 1 14.1518 17.2966 17.2966 -8.94962
620 1 15.7242 15.7242 15.7242 -8.94966
621 1 17.2966 17.2966 17.2966 -8.94963
622 1 18.8691 15.7242 15.7242 -8.94963
623 1 20.4415 17.2966 17.2966 -8.94963
624 1 -1.69572e-09 18.8691 15.7242 -8.94963
625 1 1.57242 20.4415 17.2966 -8.94963
626 1 3.14484 18.8691 15.7242 -8.94963
627 1 4.71726 20.4415 17.2966 -8.94963
628 1 6.28969 18.8691 15.7242 -8.94963
629 1 7.86211 20.4415 17.2966 -8.94963
630 1 9.43453 18.8691 15.7242 -8.94963
631 1 11.007 20.4415 17.2966 -8.94963
632 1 12.5794 18.8691 15.7242 -8.94965
633 1 14.1518 20.4415 17.2966 -8.94963
634 1 15.7242 18.8691 15.7242 -8.94963
635 1 17.2966 20.4415 17.2966 -8.94963
636 1 18.8691 18.8691 15.7242 -8.94963
637 1 20.4415 20.4415 17.2966 -8.94963
638 1 1.57242 11.007 20.4415 -8.94963
639 1 4.71726 11.007 20.4415 -8.94963
640 1 7.86211 11.007 20.4415 -8.94965
641 1 11.007 11.007 20.4415 -8.94966
642 1 14.1518 11.007 20.4415 -8.94963
643 1 17.2966 11.007 20.4415 -8.94963
644 1 20.4415 11.007 20.4415 -8.94963
645 1 3.44853e-09 12.5794 18.8691 -8.94963
646 1 1.57242 14.1518 20.4415 -8.94963
647 1 3.14484 12.5794 18.8691 -8.94963
648 1 4.71726 14.1518 20.4415 -8.94963
649 1 6.28969 12.5794 18.8691 -8.94964
650 1 7.86211 14.1518 20.4415 -8.94964
651 1 9.43453 12.5794 18.8691 -8.94985
652 1 11.007 14.1518 20.4415 -8.94964
653 1 12.5794 12.5794 18.8691 -8.94962
654 1 14.1518 14.1518 20.4415 -8.94963
655 1 15.7242 12.5794 18.8691 -8.94963
656 1 17.2966 14.1518 20.4415 -8.94963
657 1 18.8691 12.5794 18.8691 -8.94963
658 1 20.4415 14.1518 20.4415 -8.94963
659 1 -7.88203e-10 15.7242 18.8691 -8.94963
660 1 1.57242 17.2966 20.4415 -8.94963
661 1 3.14484 15.7242 18.8691 -8.94963
662 1 4.71726 17.2966 20.4415 -8.94963
663 1 6.28969 15.7242 18.8691 -8.94963
664 1 7.86211 17.2966 20.4415 -8.94963
665 1 9.43453 15.7242 18.8691 -8.94963
666 1 11.007 17.2966 20.4415 -8.94963
667 1 12.5794 15.7242 18.8691 -8.94963
668 1 14.1518 17.2966 20.4415 -8.94963
669 1 15.7242 15.7242 18.8691 -8.94963
670 1 17.2966 17.2966 20.4415 -8.94963
671 1 18.8691 15.7242 18.8691 -8.94963
672 1 20.4415 17.2966 20.4415 -8.94963
673 1 -1.71775e-11 18.8691 18.8691 -8.94963
674 1 1.57242 20.4415 20.4415 -8.94963
675 1 3.14484 18.8691 18.8691 -8.94963
676 1 4.71726 20.4415 20.4415 -8.94963
677 1 6.28969 18.8691 18.8691 -8.94963
678 1 7.86211 20.4415 20.4415 -8.94963
679 1 9.43453 18.8691 18.8691 -8.94963
680 1 11.007 20.4415 20.4415 -8.94963
681 1 12.5794 18.8691 18.8691 -8.94963
682 1 14.1518 20.4415 20.4415 -8.94963
683 1 15.7242 18.8691 18.8691 -8.94963
684 1 17.2966 20.4415 20.4415 -8.94963
685 1 18.8691 18.8691 18.8691 -8.94963
686 1 20.4415 20.4415 20.4415 -8.94963
