ITEM: TIMESTEP
38
ITEM: NUMBER OF ATOMS
688
ITEM: BOX BOUNDS pp pp pp
0.0000000000000000e+00 2.2013900999999997e+01
0.0000000000000000e+00 2.2013900999999997e+01
0.0000000000000000e+00 2.2013900999999997e+01
ITEM: ATOMS id type x y z c_pot
175 1 18.87 9.43422 9.43447 -8.94976
2 1 1.57239 1.5724 1.57239 -8.94958
174 1 15.7275 9.43322 9.43372 -8.94803
4 1 4.71725 1.5724 1.57239 -8.94968
191 1 4.71599 7.8618 11.0063 -8.95068
6 1 7.8621 1.57238 1.57237 -8.94962
7 1 9.43453 1.58059e-15 -1.40758e-05 -8.94963
8 1 11.0069 1.57238 1.57237 -8.94963
173 1 12.5857 9.43167 9.42963 -9.03234
10 1 14.1518 1.57238 1.57238 -8.94964
11 1 15.7242 1.24038e-15 -1.0409e-05 -8.94964
12 1 17.2967 1.57237 1.57237 -8.9496
172 1 9.4163 9.35474 9.4163 -9.37033
14 1 20.4415 1.5724 1.57241 -8.94963
171 1 6.29028 9.43308 9.43075 -9.04061
16 1 1.57236 4.71719 1.57236 -8.94957
190 1 1.57187 7.8618 11.0068 -8.94929
18 1 4.71717 4.71714 1.57227 -8.94963
170 1 3.14337 9.43359 9.43374 -8.94665
20 1 7.86208 4.71712 1.57229 -8.94959
169 1 22.0136 9.43429 9.43438 -8.94957
22 1 11.0069 4.7171 1.57226 -8.94961
168 1 18.8694 6.28943 9.43457 -8.94956
24 1 14.1518 4.71711 1.57228 -8.94982
25 1 15.7242 3.1448 -2.55442e-05 -8.94969
26 1 17.2969 4.71703 1.57219 -8.94924
167 1 15.725 6.28885 9.43464 -8.94904
28 1 20.4415 4.71721 1.57236 -8.9496
184 1 4.71681 4.71686 11.0069 -8.94956
30 1 1.57234 7.86207 1.57234 -8.94963
166 1 12.5797 6.28845 9.43449 -8.95071
32 1 4.71703 7.86195 1.57212 -8.94972
165 1 9.43428 6.27319 9.43428 -8.97198
34 1 7.86186 7.86178 1.57189 -8.9496
164 1 6.28983 6.28888 9.43492 -8.95097
36 1 11.0068 7.8618 1.57187 -8.94929
37 1 12.5794 6.28955 -0.000106533 -8.94957
38 1 14.1524 7.86149 1.57128 -8.94986
163 1 3.14447 6.28923 9.43441 -8.94924
40 1 17.2969 7.86199 1.57217 -8.94964
180 1 14.1519 1.57225 11.007 -8.94965
42 1 20.4415 7.86208 1.57236 -8.94961
162 1 22.0138 6.28952 9.4345 -8.94958
177 1 4.71711 1.5723 11.0069 -8.94958
161 1 18.8691 3.14476 9.43454 -8.94963
160 1 15.7244 3.14453 9.43455 -8.94958
159 1 12.5796 3.14424 9.43452 -8.94938
158 1 9.43451 3.14187 9.43451 -8.9544
157 1 6.28944 3.14436 9.43458 -8.94924
50 1 22.0139 1.50741e-15 3.14484 -8.94965
51 1 1.57239 1.5724 4.71725 -8.94968
52 1 3.14477 1.30424e-15 3.14477 -8.94955
53 1 4.71708 1.57224 4.71708 -8.94952
54 1 6.28968 1.56311e-15 3.14479 -8.94964
55 1 7.8621 1.57233 4.71714 -8.94958
56 1 9.43452 1.24786e-15 3.14477 -8.94964
57 1 11.0069 1.5723 4.71711 -8.94958
58 1 12.5794 1.97154e-15 3.14477 -8.94963
59 1 14.152 1.57218 4.71708 -8.94967
60 1 15.7243 2.12608e-15 3.14476 -8.94962
61 1 17.2967 1.57235 4.71723 -8.94965
62 1 18.8691 1.60372e-15 3.14483 -8.94963
63 1 20.4415 1.5724 4.71726 -8.94963
64 1 22.0139 3.1448 3.14481 -8.94962
65 1 1.57227 4.71714 4.71717 -8.94963
66 1 3.14471 3.1447 3.14471 -8.94945
67 1 4.71674 4.71666 4.71674 -8.94895
68 1 6.28967 3.14474 3.14472 -8.94979
69 1 7.86213 4.71701 4.71695 -8.95018
70 1 9.4345 3.14467 3.14469 -8.94961
71 1 11.0069 4.71686 4.71681 -8.94956
72 1 12.5794 3.14468 3.14468 -8.94963
73 1 14.1523 4.71618 4.71666 -8.94989
74 1 15.7244 3.14455 3.14465 -8.94961
75 1 17.2969 4.71697 4.7171 -8.94958
76 1 18.8691 3.14477 3.1448 -8.94963
77 1 20.4415 4.71718 4.71721 -8.94959
78 1 22.0139 6.28961 3.14475 -8.94965
79 1 1.57212 7.86195 4.71703 -8.94972
80 1 3.14456 6.28943 3.14456 -8.94938
81 1 4.7162 7.86131 4.7162 -8.94861
82 1 6.28939 6.28934 3.14424 -8.94979
83 1 7.86138 7.86136 4.71563 -8.95115
84 1 9.43441 6.28923 3.14447 -8.94924
85 1 11.0063 7.8618 4.71599 -8.95068
86 1 12.5793 6.2893 3.14437 -8.9501
87 1 14.1556 7.85829 4.71322 -8.94346
88 1 15.7252 6.28866 3.1438 -8.94804
89 1 17.2978 7.8615 4.7166 -8.94989
90 1 18.8694 6.28949 3.14463 -8.94961
91 1 20.4417 7.862 4.71713 -8.9498
92 1 22.0139 9.4345 3.14474 -8.94961
93 1 3.14454 9.43444 3.14454 -8.94957
94 1 6.28909 9.43434 3.14377 -8.95044
95 1 9.43374 9.43359 3.14337 -8.94665
96 1 12.5808 9.43327 3.14102 -8.95171
97 1 15.7251 9.43421 3.14391 -8.94937
98 1 18.8693 9.43447 3.14463 -8.94955
99 1 22.0139 1.18647e-15 6.28968 -8.94962
100 1 1.57237 1.57238 7.8621 -8.94962
101 1 3.14479 1.48138e-15 6.28968 -8.94964
102 1 4.71714 1.57233 7.8621 -8.94958
103 1 6.28948 1.23039e-15 6.28948 -8.94974
104 1 7.86181 1.5718 7.86181 -8.95
105 1 9.43453 1.8165e-15 6.28953 -8.9495
106 1 11.0072 1.57185 7.86183 -8.94972
107 1 12.5795 1.84405e-15 6.28949 -8.94976
108 1 14.1519 1.57223 7.86208 -8.94969
109 1 15.7243 1.80126e-15 6.28966 -8.94968
110 1 17.2967 1.57235 7.8621 -8.94962
111 1 18.8691 1.11317e-15 6.28968 -8.94963
112 1 20.4415 1.5724 7.8621 -8.94963
113 1 22.0139 3.1448 6.28967 -8.94963
114 1 1.57229 4.71712 7.86208 -8.94959
115 1 3.14472 3.14474 6.28967 -8.94979
116 1 4.71695 4.71701 7.86213 -8.95018
117 1 6.28911 3.14403 6.28911 -8.94935
118 1 7.86053 4.71435 7.86053 -8.94816
119 1 9.43458 3.14436 6.28944 -8.94924
120 1 11.0083 4.71496 7.86078 -8.94662
121 1 12.5798 3.14395 6.28919 -8.94967
122 1 14.1524 4.71647 7.86208 -8.95016
123 1 15.7244 3.14454 6.28961 -8.94971
124 1 17.2969 4.71697 7.86208 -8.94963
125 1 18.8691 3.14476 6.28966 -8.94964
126 1 20.4415 4.71717 7.8621 -8.94962
127 1 22.0138 6.28955 6.28959 -8.94963
128 1 1.57189 7.86178 7.86186 -8.9496
129 1 3.14424 6.28934 6.28939 -8.94979
130 1 4.71563 7.86136 7.86138 -8.95115
131 1 6.28775 6.28767 6.28775 -8.94696
132 1 7.85545 7.85648 7.85545 -9.00975
133 1 9.43492 6.28888 6.28983 -8.95097
134 1 11.0129 7.86083 7.85818 -9.03278
135 1 12.5809 6.28692 6.28812 -8.95165
136 1 14.1553 7.85989 7.86103 -8.94812
137 1 15.7252 6.28876 6.28921 -8.94923
138 1 17.298 7.86139 7.86185 -8.94947
139 1 18.8694 6.28942 6.28955 -8.94951
140 1 20.4417 7.8619 7.86201 -8.94971
141 1 22.0138 9.43447 6.28956 -8.9499
142 1 3.14377 9.43434 6.28909 -8.95044
143 1 6.28584 9.43301 6.28584 -8.94726
144 1 9.43075 9.43308 6.29028 -9.04061
145 1 12.5937 9.42345 6.27489 -8.97351
146 1 15.728 9.43338 6.28795 -8.95207
147 1 18.8699 9.43437 6.28945 -8.9502
148 1 -1.40758e-05 1.22286e-15 9.43453 -8.94963
149 1 3.14477 9.11048e-16 9.43452 -8.94964
150 1 6.28953 1.50182e-15 9.43453 -8.9495
151 1 9.43452 1.88576e-15 9.43452 -8.95096
152 1 12.5795 1.64745e-15 9.43452 -8.94955
153 1 15.7243 1.28859e-15 9.43453 -8.94966
154 1 18.8691 1.31991e-15 9.43453 -8.94963
155 1 22.0139 3.14478 9.43452 -8.94963
156 1 3.14469 3.14467 9.4345 -8.94961
182 1 20.4415 1.5724 11.007 -8.94963
176 1 1.57237 1.57238 11.0069 -8.94963
343 1 18.8691 9.43453 18.8691 -8.94963
178 1 7.86183 1.57185 11.0072 -8.94972
179 1 11.0072 1.5718 11.0072 -8.94979
342 1 15.7244 9.43452 18.8691 -8.94961
341 1 12.5796 9.43433 18.8696 -8.94996
47 1 12.5795 9.43433 22.0132 -8.9503
183 1 1.57226 4.7171 11.0069 -8.94961
340 1 9.43447 9.43422 18.87 -8.94976
185 1 7.86078 4.71496 11.0083 -8.94662
186 1 11.0083 4.71475 11.0083 -8.94717
187 1 14.1523 4.71665 11.007 -8.94983
339 1 6.28945 9.43437 18.8699 -8.9502
338 1 3.14463 9.43447 18.8693 -8.94955
337 1 22.0138 9.43452 18.8691 -8.94963
336 1 20.4415 7.8621 20.4415 -8.94963
192 1 7.85818 7.86083 11.0129 -9.03278
193 1 11.0108 7.85945 11.0108 -9.0553
194 1 14.1538 7.86109 11.0069 -8.95009
195 1 17.2975 7.86166 11.0071 -8.94944
196 1 20.4416 7.86193 11.007 -8.94958
197 1 22.0139 9.77682e-16 12.5794 -8.94963
198 1 1.57238 1.57238 14.1518 -8.94964
199 1 3.14477 1.59155e-15 12.5794 -8.94963
200 1 4.71708 1.57218 14.152 -8.94967
201 1 6.28949 1.70623e-15 12.5795 -8.94976
202 1 7.86208 1.57223 14.1519 -8.94969
203 1 9.43452 1.86511e-15 12.5795 -8.94955
204 1 11.007 1.57225 14.1519 -8.94965
205 1 12.5796 1.55809e-15 12.5796 -8.94974
206 1 14.152 1.57221 14.152 -8.94958
207 1 15.7243 1.26013e-15 12.5794 -8.94966
208 1 17.2967 1.57237 14.1518 -8.94965
209 1 18.8691 1.23476e-15 12.5794 -8.94963
210 1 20.4415 1.5724 14.1518 -8.94963
211 1 22.0139 3.14479 12.5794 -8.94962
212 1 1.57228 4.71711 14.1518 -8.94982
213 1 3.14468 3.14468 12.5794 -8.94963
214 1 4.71666 4.71618 14.1523 -8.94989
215 1 6.28919 3.14395 12.5798 -8.94967
216 1 7.86208 4.71647 14.1524 -8.95016
217 1 9.43452 3.14424 12.5796 -8.94938
218 1 11.007 4.71665 14.1523 -8.94983
219 1 12.5799 3.14396 12.5799 -8.94954
220 1 14.1523 4.71644 14.1523 -8.94949
221 1 15.7244 3.14462 12.5794 -8.9497
222 1 17.2968 4.71706 14.1519 -8.94968
223 1 18.8691 3.14477 12.5794 -8.94962
224 1 20.4415 4.71719 14.1518 -8.94962
225 1 -0.000106533 6.28955 12.5794 -8.94957
226 1 1.57128 7.86149 14.1524 -8.94986
227 1 3.14437 6.2893 12.5793 -8.9501
228 1 4.71322 7.85829 14.1556 -8.94346
229 1 6.28812 6.28692 12.5809 -8.95165
230 1 7.86103 7.85989 14.1553 -8.94812
231 1 9.43449 6.28845 12.5797 -8.95071
232 1 11.0069 7.86109 14.1538 -8.95009
233 1 12.5807 6.28724 12.5807 -8.95061
234 1 14.1539 7.85992 14.1539 -8.94615
235 1 15.7248 6.2891 12.5796 -8.94987
236 1 17.2974 7.86165 14.1523 -8.94963
237 1 18.8693 6.2895 12.5795 -8.94958
238 1 20.4414 7.86195 14.152 -8.94983
239 1 22.0132 9.43433 12.5795 -8.9503
240 1 3.14102 9.43327 12.5808 -8.95171
241 1 6.27489 9.42345 12.5937 -8.97351
242 1 9.42963 9.43167 12.5857 -9.03234
243 1 12.5861 9.42624 12.5861 -9.00915
244 1 15.7267 9.43343 12.5805 -8.94964
245 1 18.8696 9.43433 12.5796 -8.94996
246 1 -1.0409e-05 1.20585e-15 15.7242 -8.94964
247 1 1.57237 1.57237 17.2967 -8.9496
248 1 3.14476 1.94627e-15 15.7243 -8.94962
249 1 4.71723 1.57235 17.2967 -8.94965
250 1 6.28966 1.30743e-15 15.7243 -8.94968
251 1 7.8621 1.57235 17.2967 -8.94962
252 1 9.43453 1.04632e-15 15.7243 -8.94966
253 1 11.007 1.57235 17.2967 -8.94962
254 1 12.5794 1.36001e-15 15.7243 -8.94966
255 1 14.1518 1.57237 17.2967 -8.94965
256 1 15.7243 1.6277e-15 15.7243 -8.94958
257 1 17.2967 1.57238 17.2967 -8.9496
258 1 18.8691 1.36011e-15 15.7242 -8.94964
259 1 20.4415 1.57241 17.2966 -8.94964
260 1 -2.55442e-05 3.1448 15.7242 -8.94969
261 1 1.57219 4.71703 17.2969 -8.94924
262 1 3.14465 3.14455 15.7244 -8.94961
263 1 4.7171 4.71697 17.2969 -8.94958
264 1 6.28961 3.14454 15.7244 -8.94971
265 1 7.86208 4.71697 17.2969 -8.94963
266 1 9.43455 3.14453 15.7244 -8.94958
267 1 11.007 4.717 17.2969 -8.94954
268 1 12.5794 3.14462 15.7244 -8.9497
269 1 14.1519 4.71706 17.2968 -8.94968
270 1 15.7244 3.14463 15.7244 -8.94953
271 1 17.2968 4.71713 17.2968 -8.94944
272 1 18.8691 3.14479 15.7243 -8.94964
273 1 20.4415 4.71719 17.2967 -8.94958
274 1 22.0136 6.28947 15.7244 -8.9496
275 1 1.57217 7.86199 17.2969 -8.94964
276 1 3.1438 6.28866 15.7252 -8.94804
277 1 4.7166 7.8615 17.2978 -8.94989
278 1 6.28921 6.28876 15.7252 -8.94923
279 1 7.86185 7.86139 17.298 -8.94947
280 1 9.43464 6.28885 15.725 -8.94904
281 1 11.0071 7.86166 17.2975 -8.94944
282 1 12.5796 6.2891 15.7248 -8.94987
283 1 14.1523 7.86165 17.2974 -8.94963
284 1 15.7248 6.28913 15.7248 -8.9488
285 1 17.2968 7.86208 17.2968 -8.94978
286 1 18.8692 6.28953 15.7244 -8.94959
287 1 20.4414 7.86209 17.2967 -8.94963
288 1 22.0136 9.43447 15.7244 -8.94955
289 1 3.14391 9.43421 15.7251 -8.94937
290 1 6.28795 9.43338 15.728 -8.95207
291 1 9.43372 9.43322 15.7275 -8.94803
292 1 12.5805 9.43343 15.7267 -8.94964
293 1 15.7246 9.43451 15.7246 -8.95007
294 1 18.8691 9.43452 15.7244 -8.94961
295 1 22.0139 1.82343e-15 18.8691 -8.94961
296 1 1.57241 1.5724 20.4415 -8.94963
297 1 3.14483 1.46506e-15 18.8691 -8.94963
298 1 4.71726 1.5724 20.4415 -8.94963
299 1 6.28968 9.82848e-16 18.8691 -8.94963
300 1 7.8621 1.5724 20.4415 -8.94963
301 1 9.43453 1.35586e-15 18.8691 -8.94963
302 1 11.007 1.5724 20.4415 -8.94963
303 1 12.5794 1.08274e-15 18.8691 -8.94963
304 1 14.1518 1.5724 20.4415 -8.94963
305 1 15.7242 1.72977e-15 18.8691 -8.94964
306 1 17.2966 1.57241 20.4415 -8.94964
307 1 18.8691 1.39911e-15 18.8691 -8.94963
308 1 20.4415 1.57241 20.4415 -8.94959
309 1 22.0139 3.14479 18.8691 -8.94954
310 1 1.57236 4.71721 20.4415 -8.9496
311 1 3.1448 3.14477 18.8691 -8.94963
312 1 4.71721 4.71718 20.4415 -8.94959
313 1 6.28966 3.14476 18.8691 -8.94964
314 1 7.8621 4.71717 20.4415 -8.94962
315 1 9.43454 3.14476 18.8691 -8.94963
316 1 11.007 4.71717 20.4415 -8.94962
317 1 12.5794 3.14477 18.8691 -8.94962
318 1 14.1518 4.71719 20.4415 -8.94962
319 1 15.7243 3.14479 18.8691 -8.94964
320 1 17.2967 4.71719 20.4415 -8.94958
321 1 18.8691 3.1448 18.8691 -8.94957
322 1 20.4415 4.71725 20.4415 -8.94965
323 1 22.0138 6.28966 18.8691 -8.94965
324 1 1.57236 7.86208 20.4415 -8.94961
325 1 3.14463 6.28949 18.8694 -8.94961
326 1 4.71713 7.862 20.4417 -8.9498
327 1 6.28955 6.28942 18.8694 -8.94951
328 1 7.86201 7.8619 20.4417 -8.94971
329 1 9.43457 6.28943 18.8694 -8.94956
330 1 11.007 7.86193 20.4416 -8.94958
331 1 12.5795 6.2895 18.8693 -8.94958
332 1 14.152 7.86195 20.4414 -8.94983
333 1 15.7244 6.28953 18.8692 -8.94959
334 1 17.2967 7.86209 20.4414 -8.94963
335 1 18.8691 6.28967 18.8691 -8.94967
1 1 22.0139 1.07157e-15 22.0139 -8.94962
3 1 3.14484 1.44686e-15 22.0139 -8.94965
9 1 12.5794 1.14285e-15 22.0139 -8.94963
13 1 18.8691 1.56175e-15 22.0139 -8.94961
15 1 22.0139 3.14482 22.0139 -8.9496
19 1 6.28967 3.1448 22.0139 -8.94963
21 1 9.43452 3.14478 22.0139 -8.94963
23 1 12.5794 3.14479 22.0139 -8.94962
27 1 18.8691 3.14479 22.0139 -8.94954
31 1 3.14475 6.28961 22.0139 -8.94965
33 1 6.28959 6.28955 22.0138 -8.94963
35 1 9.4345 6.28952 22.0138 -8.94958
39 1 15.7244 6.28947 22.0136 -8.9496
43 1 22.0139 9.43452 22.0139 -8.94963
45 1 6.28956 9.43447 22.0138 -8.9499
46 1 9.43438 9.43429 22.0136 -8.94957
5 1 6.28968 1.39033e-15 22.0139 -8.94962
17 1 3.14481 3.1448 22.0139 -8.94962
29 1 22.0139 6.28967 22.0139 -8.94963
189 1 20.4415 4.71717 11.007 -8.94962
188 1 17.2969 4.717 11.007 -8.94954
41 1 18.8691 6.28966 22.0138 -8.94965
181 1 17.2967 1.57235 11.007 -8.94962
44 1 3.14474 9.4345 22.0139 -8.94961
48 1 15.7244 9.43447 22.0136 -8.94955
49 1 18.8691 9.43452 22.0138 -8.94963
344 1 1.57234 11.007 1.57234 -8.94963
345 1 4.71701 11.007 1.57207 -8.94954
346 1 7.86203 11.007 1.57183 -8.95007
347 1 11.0068 11.007 1.5702 -8.95264
348 1 14.1523 11.007 1.57128 -8.94946
349 1 17.2969 11.007 1.57217 -8.9496
350 1 20.4415 11.007 1.57235 -8.94961
688 2 10.3164 11.007 9.35303 0.554707
352 1 1.57234 14.1518 1.57234 -8.94963
537 1 14.1519 20.4416 11.007 -8.94965
354 1 4.71703 14.152 1.57212 -8.94972
687 2 9.35303 11.007 10.3164 0.554707
356 1 7.86186 14.1521 1.57189 -8.9496
511 1 18.8691 18.8691 9.43454 -8.94963
358 1 11.0068 14.1521 1.57187 -8.94929
510 1 15.7244 18.8694 9.43455 -8.94958
360 1 14.1524 14.1524 1.57128 -8.94986
534 1 4.71711 20.4416 11.0069 -8.94958
362 1 17.2969 14.1519 1.57217 -8.94964
527 1 4.71681 17.297 11.0069 -8.94956
364 1 20.4415 14.1518 1.57236 -8.94961
520 1 4.71599 14.1521 11.0063 -8.95068
366 1 1.57236 17.2967 1.57236 -8.94957
509 1 12.5796 18.8697 9.43452 -8.94938
368 1 4.71717 17.2968 1.57227 -8.94963
508 1 9.43451 18.872 9.43451 -8.9544
370 1 7.86208 17.2968 1.57229 -8.94959
507 1 6.28944 18.8695 9.43458 -8.94924
372 1 11.0069 17.2968 1.57226 -8.94961
373 1 12.5794 15.7244 -0.000106533 -8.94957
374 1 14.1518 17.2968 1.57228 -8.94982
506 1 3.14469 18.8692 9.4345 -8.94961
376 1 17.2969 17.2969 1.57219 -8.94924
519 1 1.57187 14.1521 11.0068 -8.94929
378 1 20.4415 17.2967 1.57236 -8.9496
505 1 22.0139 18.8691 9.43452 -8.94963
380 1 1.57239 20.4415 1.57239 -8.94958
516 1 14.1638 11.007 11.0065 -9.014
382 1 4.71725 20.4415 1.57239 -8.94968
504 1 18.8694 15.7245 9.43457 -8.94956
384 1 7.8621 20.4415 1.57237 -8.94962
503 1 15.725 15.7251 9.43464 -8.94904
386 1 11.0069 20.4415 1.57237 -8.94963
502 1 12.5797 15.7255 9.43449 -8.95071
388 1 14.1518 20.4415 1.57238 -8.94964
389 1 15.7242 18.8691 -2.55442e-05 -8.94969
390 1 17.2967 20.4415 1.57237 -8.9496
501 1 9.43428 15.7407 9.43428 -8.97198
392 1 20.4415 20.4415 1.57241 -8.94963
393 1 1.57207 11.007 4.71701 -8.94954
394 1 4.71622 11.007 4.71622 -8.9482
395 1 7.86181 11.007 4.71471 -8.95345
396 1 11.0077 11.007 4.70536 -8.97448
397 1 14.1548 11.007 4.71369 -8.9472
398 1 17.2978 11.007 4.71661 -8.94932
399 1 20.4417 11.007 4.71711 -8.9497
400 1 22.0139 12.5794 3.14474 -8.94961
401 1 1.57212 14.152 4.71703 -8.94972
402 1 3.14454 12.5795 3.14454 -8.94957
403 1 4.7162 14.1526 4.7162 -8.94861
404 1 6.28909 12.5796 3.14377 -8.95044
405 1 7.86138 14.1525 4.71563 -8.95115
406 1 9.43374 12.5803 3.14337 -8.94665
407 1 11.0063 14.1521 4.71599 -8.95068
408 1 12.5808 12.5806 3.14102 -8.95171
409 1 14.1556 14.1556 4.71322 -8.94346
410 1 15.7251 12.5797 3.14391 -8.94937
411 1 17.2978 14.1524 4.7166 -8.94989
412 1 18.8693 12.5794 3.14463 -8.94955
413 1 20.4417 14.1519 4.71713 -8.9498
414 1 22.0139 15.7243 3.14475 -8.94965
415 1 1.57227 17.2968 4.71717 -8.94963
416 1 3.14456 15.7245 3.14456 -8.94938
417 1 4.71674 17.2972 4.71674 -8.94895
418 1 6.28939 15.7246 3.14424 -8.94979
419 1 7.86213 17.2969 4.71695 -8.95018
420 1 9.43441 15.7247 3.14447 -8.94924
421 1 11.0069 17.297 4.71681 -8.94956
422 1 12.5793 15.7246 3.14437 -8.9501
423 1 14.1523 17.2977 4.71666 -8.94989
424 1 15.7252 15.7252 3.1438 -8.94804
425 1 17.2969 17.2969 4.7171 -8.94958
426 1 18.8694 15.7244 3.14463 -8.94961
427 1 20.4415 17.2967 4.71721 -8.94959
428 1 22.0139 18.8691 3.14481 -8.94962
429 1 1.57239 20.4415 4.71725 -8.94968
430 1 3.14471 18.8692 3.14471 -8.94945
431 1 4.71708 20.4417 4.71708 -8.94952
432 1 6.28967 18.8692 3.14472 -8.94979
433 1 7.8621 20.4416 4.71714 -8.94958
434 1 9.4345 18.8692 3.14469 -8.94961
435 1 11.0069 20.4416 4.71711 -8.94958
436 1 12.5794 18.8692 3.14468 -8.94963
437 1 14.152 20.4417 4.71708 -8.94967
438 1 15.7244 18.8694 3.14465 -8.94961
439 1 17.2967 20.4415 4.71723 -8.94965
440 1 18.8691 18.8691 3.1448 -8.94963
441 1 20.4415 20.4415 4.71726 -8.94963
442 1 1.57183 11.007 7.86203 -8.95007
443 1 4.71471 11.007 7.86181 -8.95345
444 1 7.84951 11.007 7.84951 -9.01056
445 1 11.0456 11.007 7.77524 -9.26891
446 1 14.1605 11.007 7.85821 -9.0095
447 1 17.2989 11.007 7.86189 -8.95094
448 1 20.4419 11.007 7.86206 -8.94992
449 1 22.0138 12.5794 6.28956 -8.9499
450 1 1.57189 14.1521 7.86186 -8.9496
451 1 3.14377 12.5796 6.28909 -8.95044
452 1 4.71563 14.1525 7.86138 -8.95115
453 1 6.28584 12.5809 6.28584 -8.94726
454 1 7.85545 14.1574 7.85545 -9.00975
455 1 9.43075 12.5808 6.29028 -9.04061
456 1 11.0129 14.1531 7.85818 -9.03278
457 1 12.5937 12.5905 6.27489 -8.97351
458 1 14.1553 14.154 7.86103 -8.94812
459 1 15.728 12.5805 6.28795 -8.95207
460 1 17.298 14.1525 7.86185 -8.94947
461 1 18.8699 12.5795 6.28945 -8.9502
462 1 20.4417 14.152 7.86201 -8.94971
463 1 22.0138 15.7244 6.28959 -8.94963
464 1 1.57229 17.2968 7.86208 -8.94959
465 1 3.14424 15.7246 6.28939 -8.94979
466 1 4.71695 17.2969 7.86213 -8.95018
467 1 6.28775 15.7262 6.28775 -8.94696
468 1 7.86053 17.2995 7.86053 -8.94816
469 1 9.43492 15.725 6.28983 -8.95097
470 1 11.0083 17.2989 7.86078 -8.94662
471 1 12.5809 15.727 6.28812 -8.95165
472 1 14.1524 17.2974 7.86208 -8.95016
473 1 15.7252 15.7251 6.28921 -8.94923
474 1 17.2969 17.2969 7.86208 -8.94963
475 1 18.8694 15.7245 6.28955 -8.94951
476 1 20.4415 17.2967 7.8621 -8.94962
477 1 22.0139 18.8691 6.28967 -8.94963
478 1 1.57237 20.4415 7.8621 -8.94962
479 1 3.14472 18.8692 6.28967 -8.94979
480 1 4.71714 20.4416 7.8621 -8.94958
481 1 6.28911 18.8699 6.28911 -8.94935
482 1 7.86181 20.4421 7.86181 -8.95
483 1 9.43458 18.8695 6.28944 -8.94924
484 1 11.0072 20.4421 7.86183 -8.94972
485 1 12.5798 18.87 6.28919 -8.94967
486 1 14.1519 20.4417 7.86208 -8.94969
487 1 15.7244 18.8694 6.28961 -8.94971
488 1 17.2967 20.4416 7.8621 -8.94962
489 1 18.8691 18.8691 6.28966 -8.94964
490 1 20.4415 20.4415 7.8621 -8.94963
491 1 22.0136 12.5796 9.43438 -8.94957
492 1 3.14337 12.5803 9.43374 -8.94665
493 1 6.29028 12.5808 9.43075 -9.04061
494 1 9.4163 12.6592 9.4163 -9.37033
495 1 12.5857 12.5822 9.42963 -9.03234
496 1 15.7275 12.5807 9.43372 -8.94803
497 1 18.87 12.5797 9.43447 -8.94976
498 1 22.0138 15.7244 9.4345 -8.94958
499 1 3.14447 15.7247 9.43441 -8.94924
500 1 6.28983 15.725 9.43492 -8.95097
512 1 1.5702 11.007 11.0068 -8.95264
513 1 4.70536 11.007 11.0077 -8.97448
539 1 20.4415 20.4415 11.007 -8.94963
686 1 20.4415 20.4415 20.4415 -8.94959
685 1 18.8691 18.8691 18.8691 -8.94957
514 1 7.77524 11.007 11.0456 -9.26891
515 1 11.0714 11.007 11.0714 -9.3291
684 1 17.2966 20.4415 20.4415 -8.94964
517 1 17.2991 11.007 11.0071 -8.95259
518 1 20.4416 11.007 11.007 -8.95049
683 1 15.7243 18.8691 18.8691 -8.94964
682 1 14.1518 20.4415 20.4415 -8.94963
521 1 7.85818 14.1531 11.0129 -9.03278
522 1 11.0108 14.1544 11.0108 -9.0553
523 1 14.1538 14.1528 11.0069 -8.95009
524 1 17.2975 14.1522 11.0071 -8.94944
525 1 20.4416 14.152 11.007 -8.94958
526 1 1.57226 17.2968 11.0069 -8.94961
681 1 12.5794 18.8691 18.8691 -8.94962
528 1 7.86078 17.2989 11.0083 -8.94662
529 1 11.0083 17.2992 11.0083 -8.94717
530 1 14.1523 17.2972 11.007 -8.94983
680 1 11.007 20.4415 20.4415 -8.94963
679 1 9.43454 18.8691 18.8691 -8.94963
533 1 1.57237 20.4415 11.0069 -8.94963
678 1 7.8621 20.4415 20.4415 -8.94963
535 1 7.86183 20.4421 11.0072 -8.94972
536 1 11.0072 20.4421 11.0072 -8.94979
677 1 6.28966 18.8691 18.8691 -8.94964
676 1 4.71726 20.4415 20.4415 -8.94963
391 1 18.8691 18.8691 22.0139 -8.94954
540 1 1.57128 11.007 14.1523 -8.94946
541 1 4.71369 11.007 14.1548 -8.9472
542 1 7.85821 11.007 14.1605 -9.0095
543 1 11.0065 11.007 14.1638 -9.014
544 1 14.1523 11.007 14.1523 -8.95017
545 1 17.2971 11.007 14.1521 -8.94914
546 1 20.4414 11.007 14.152 -8.94965
547 1 22.0132 12.5796 12.5795 -8.9503
548 1 1.57128 14.1524 14.1524 -8.94986
549 1 3.14102 12.5806 12.5808 -8.95171
550 1 4.71322 14.1556 14.1556 -8.94346
551 1 6.27489 12.5905 12.5937 -8.97351
552 1 7.86103 14.154 14.1553 -8.94812
553 1 9.42963 12.5822 12.5857 -9.03234
554 1 11.0069 14.1528 14.1538 -8.95009
555 1 12.5861 12.5877 12.5861 -9.00915
556 1 14.1539 14.154 14.1539 -8.94615
557 1 15.7267 12.5805 12.5805 -8.94964
558 1 17.2974 14.1522 14.1523 -8.94963
559 1 18.8696 12.5796 12.5796 -8.94996
560 1 20.4414 14.152 14.152 -8.94983
561 1 -0.000106533 15.7244 12.5794 -8.94957
562 1 1.57228 17.2968 14.1518 -8.94982
563 1 3.14437 15.7246 12.5793 -8.9501
564 1 4.71666 17.2977 14.1523 -8.94989
565 1 6.28812 15.727 12.5809 -8.95165
566 1 7.86208 17.2974 14.1524 -8.95016
567 1 9.43449 15.7255 12.5797 -8.95071
568 1 11.007 17.2972 14.1523 -8.94983
569 1 12.5807 15.7267 12.5807 -8.95061
570 1 14.1523 17.2975 14.1523 -8.94949
571 1 15.7248 15.7248 12.5796 -8.94987
572 1 17.2968 17.2968 14.1519 -8.94968
573 1 18.8693 15.7244 12.5795 -8.94958
574 1 20.4415 17.2967 14.1518 -8.94962
575 1 22.0139 18.8691 12.5794 -8.94962
576 1 1.57238 20.4415 14.1518 -8.94964
577 1 3.14468 18.8692 12.5794 -8.94963
578 1 4.71708 20.4417 14.152 -8.94967
579 1 6.28919 18.87 12.5798 -8.94967
580 1 7.86208 20.4417 14.1519 -8.94969
581 1 9.43452 18.8697 12.5796 -8.94938
582 1 11.007 20.4416 14.1519 -8.94965
583 1 12.5799 18.8699 12.5799 -8.94954
584 1 14.152 20.4417 14.152 -8.94958
585 1 15.7244 18.8693 12.5794 -8.9497
586 1 17.2967 20.4415 14.1518 -8.94965
587 1 18.8691 18.8691 12.5794 -8.94962
588 1 20.4415 20.4415 14.1518 -8.94963
589 1 1.57217 11.007 17.2969 -8.9496
590 1 4.71661 11.007 17.2978 -8.94932
591 1 7.86189 11.007 17.2989 -8.95094
592 1 11.0071 11.007 17.2991 -8.95259
593 1 14.1521 11.007 17.2971 -8.94914
594 1 17.2968 11.007 17.2968 -8.9496
595 1 20.4415 11.007 17.2967 -8.94962
596 1 22.0136 12.5794 15.7244 -8.94955
597 1 1.57217 14.1519 17.2969 -8.94964
598 1 3.14391 12.5797 15.7251 -8.94937
599 1 4.7166 14.1524 17.2978 -8.94989
600 1 6.28795 12.5805 15.728 -8.95207
601 1 7.86185 14.1525 17.298 -8.94947
602 1 9.43372 12.5807 15.7275 -8.94803
603 1 11.0071 14.1522 17.2975 -8.94944
604 1 12.5805 12.5805 15.7267 -8.94964
605 1 14.1523 14.1522 17.2974 -8.94963
606 1 15.7246 12.5794 15.7246 -8.95007
607 1 17.2968 14.1518 17.2968 -8.94978
608 1 18.8691 12.5794 15.7244 -8.94961
609 1 20.4414 14.1518 17.2967 -8.94963
610 1 22.0136 15.7244 15.7244 -8.9496
611 1 1.57219 17.2969 17.2969 -8.94924
612 1 3.1438 15.7252 15.7252 -8.94804
613 1 4.7171 17.2969 17.2969 -8.94958
614 1 6.28921 15.7251 15.7252 -8.94923
615 1 7.86208 17.2969 17.2969 -8.94963
616 1 9.43464 15.7251 15.725 -8.94904
617 1 11.007 17.2969 17.2969 -8.94954
618 1 12.5796 15.7248 15.7248 -8.94987
619 1 14.1519 17.2968 17.2968 -8.94968
620 1 15.7248 15.7248 15.7248 -8.9488
621 1 17.2968 17.2968 17.2968 -8.94944
622 1 18.8692 15.7244 15.7244 -8.94959
623 1 20.4415 17.2967 17.2967 -8.94958
624 1 -2.55442e-05 18.8691 15.7242 -8.94969
625 1 1.57237 20.4415 17.2967 -8.9496
626 1 3.14465 18.8694 15.7244 -8.94961
627 1 4.71723 20.4415 17.2967 -8.94965
628 1 6.28961 18.8694 15.7244 -8.94971
629 1 7.8621 20.4416 17.2967 -8.94962
630 1 9.43455 18.8694 15.7244 -8.94958
631 1 11.007 20.4415 17.2967 -8.94962
632 1 12.5794 18.8693 15.7244 -8.9497
633 1 14.1518 20.4415 17.2967 -8.94965
634 1 15.7244 18.8693 15.7244 -8.94953
635 1 17.2967 20.4415 17.2967 -8.9496
636 1 18.8691 18.8691 15.7243 -8.94964
637 1 20.4415 20.4415 17.2966 -8.94964
638 1 1.57235 11.007 20.4415 -8.94961
639 1 4.71711 11.007 20.4417 -8.9497
640 1 7.86206 11.007 20.4419 -8.94992
641 1 11.007 11.007 20.4416 -8.95049
642 1 14.152 11.007 20.4414 -8.94965
643 1 17.2967 11.007 20.4415 -8.94962
644 1 20.4415 11.007 20.4415 -8.94963
645 1 22.0138 12.5794 18.8691 -8.94963
646 1 1.57236 14.1518 20.4415 -8.94961
647 1 3.14463 12.5794 18.8693 -8.94955
648 1 4.71713 14.1519 20.4417 -8.9498
649 1 6.28945 12.5795 18.8699 -8.9502
650 1 7.86201 14.152 20.4417 -8.94971
651 1 9.43447 12.5797 18.87 -8.94976
652 1 11.007 14.152 20.4416 -8.94958
653 1 12.5796 12.5796 18.8696 -8.94996
654 1 14.152 14.152 20.4414 -8.94983
655 1 15.7244 12.5794 18.8691 -8.94961
656 1 17.2967 14.1518 20.4414 -8.94963
657 1 18.8691 12.5794 18.8691 -8.94963
658 1 20.4415 14.1518 20.4415 -8.94963
659 1 22.0138 15.7242 18.8691 -8.94965
660 1 1.57236 17.2967 20.4415 -8.9496
661 1 3.14463 15.7244 18.8694 -8.94961
662 1 4.71721 17.2967 20.4415 -8.94959
663 1 6.28955 15.7245 18.8694 -8.94951
664 1 7.8621 17.2967 20.4415 -8.94962
665 1 9.43457 15.7245 18.8694 -8.94956
666 1 11.007 17.2967 20.4415 -8.94962
667 1 12.5795 15.7244 18.8693 -8.94958
668 1 14.1518 17.2967 20.4415 -8.94962
669 1 15.7244 15.7244 18.8692 -8.94959
670 1 17.2967 17.2967 20.4415 -8.94958
671 1 18.8691 15.7242 18.8691 -8.94967
672 1 20.4415 17.2967 20.4415 -8.94965
673 1 22.0139 18.8691 18.8691 -8.94954
674 1 1.57241 20.4415 20.4415 -8.94963
675 1 3.1448 18.8691 18.8691 -8.94963
351 1 22.0139 12.5794 22.0139 -8.94963
355 1 6.28956 12.5794 22.0138 -8.9499
357 1 9.43438 12.5796 22.0136 -8.94957
359 1 12.5795 12.5796 22.0132 -8.9503
367 1 3.14475 15.7243 22.0139 -8.94965
369 1 6.28959 15.7244 22.0138 -8.94963
371 1 9.4345 15.7244 22.0138 -8.94958
375 1 15.7244 15.7244 22.0136 -8.9496
379 1 22.0139 18.8691 22.0139 -8.9496
383 1 6.28967 18.8691 22.0139 -8.94963
385 1 9.43452 18.8691 22.0139 -8.94963
387 1 12.5794 18.8691 22.0139 -8.94962
353 1 3.14474 12.5794 22.0139 -8.94961
538 1 17.2967 20.4415 11.007 -8.94962
361 1 15.7244 12.5794 22.0136 -8.94955
363 1 18.8691 12.5794 22.0138 -8.94963
532 1 20.4415 17.2967 11.007 -8.94962
531 1 17.2969 17.2969 11.007 -8.94954
365 1 22.0139 15.7242 22.0139 -8.94963
377 1 18.8691 15.7242 22.0138 -8.94965
381 1 3.14481 18.8691 22.0139 -8.94962
