ITEM: TIMESTEP
31
ITEM: NUMBER OF ATOMS
688
ITEM: BOX BOUNDS pp pp pp
0.0000000000000000e+00 2.2013900999999997e+01
0.0000000000000000e+00 2.2013900999999997e+01
0.0000000000000000e+00 2.2013900999999997e+01
ITEM: ATOMS id type x y z c_pot
175 1 18.8696 9.43435 9.4345 -8.9498
2 1 1.57242 1.57242 1.57242 -8.94961
174 1 15.7269 9.43337 9.43404 -8.94826
4 1 4.71727 1.57242 1.57242 -8.94966
191 1 4.7166 7.86207 11.0061 -8.95079
6 1 7.8621 1.57241 1.57241 -8.94962
7 1 9.43453 1.43151e-15 -1.27556e-06 -8.94963
8 1 11.007 1.57241 1.57241 -8.94963
173 1 12.5855 9.43117 9.43067 -9.03235
10 1 14.1518 1.57242 1.57242 -8.94964
11 1 15.7242 1.08163e-15 -4.6224e-07 -8.94964
12 1 17.2966 1.57241 1.57241 -8.94962
172 1 9.4164 9.35428 9.4164 -9.36957
14 1 20.4415 1.57242 1.57242 -8.94963
171 1 6.291 9.43346 9.43083 -9.04149
16 1 1.5724 4.71724 1.5724 -8.94959
190 1 1.5722 7.86197 11.0068 -8.94937
18 1 4.71724 4.71723 1.57237 -8.94965
170 1 3.14395 9.43382 9.43392 -8.94679
20 1 7.8621 4.71722 1.57238 -8.94961
169 1 22.0138 9.4344 9.43446 -8.94958
22 1 11.0069 4.71721 1.57236 -8.94962
168 1 18.8692 6.28959 9.43455 -8.94959
24 1 14.1518 4.71724 1.5724 -8.94979
25 1 15.7242 3.14484 -4.08285e-07 -8.94967
26 1 17.2967 4.71718 1.57234 -8.94941
167 1 15.7247 6.28913 9.43461 -8.9491
28 1 20.4415 4.71725 1.57241 -8.94962
184 1 4.71702 4.71711 11.0068 -8.94959
30 1 1.5724 7.8621 1.5724 -8.94965
166 1 12.5796 6.28859 9.43457 -8.95086
32 1 4.71716 7.86202 1.57226 -8.94967
165 1 9.4343 6.27431 9.4343 -8.97143
34 1 7.862 7.86195 1.57213 -8.94963
164 1 6.28996 6.28936 9.43485 -8.95097
36 1 11.0068 7.86197 1.5722 -8.94937
37 1 12.5794 6.28965 -1.73292e-05 -8.9496
38 1 14.1521 7.8618 1.57182 -8.94982
163 1 3.14467 6.28943 9.43449 -8.94929
40 1 17.2967 7.86209 1.57236 -8.94968
180 1 14.1518 1.57234 11.0069 -8.94968
42 1 20.4415 7.86211 1.57241 -8.94963
162 1 22.0139 6.28963 9.43452 -8.94961
177 1 4.71722 1.57239 11.0069 -8.94962
161 1 18.8691 3.14482 9.43453 -8.94964
160 1 15.7243 3.1447 9.43453 -8.94958
159 1 12.5795 3.1445 9.43451 -8.94953
158 1 9.43451 3.14252 9.43451 -8.95406
157 1 6.28958 3.14466 9.43455 -8.94931
50 1 22.0139 1.39265e-15 3.14484 -8.94964
51 1 1.57242 1.57242 4.71727 -8.94966
52 1 3.14483 1.34349e-15 3.14483 -8.9496
53 1 4.7172 1.57234 4.7172 -8.94956
54 1 6.28969 9.32132e-16 3.14484 -8.94965
55 1 7.86212 1.57241 4.71723 -8.94961
56 1 9.43453 1.27817e-15 3.14483 -8.94965
57 1 11.0069 1.57239 4.71722 -8.94962
58 1 12.5794 1.34616e-15 3.14483 -8.94964
59 1 14.1519 1.57232 4.7172 -8.94964
60 1 15.7242 1.73939e-15 3.14482 -8.94962
61 1 17.2967 1.5724 4.71725 -8.94964
62 1 18.8691 1.77611e-15 3.14484 -8.94963
63 1 20.4415 1.57242 4.71726 -8.94964
64 1 22.0139 3.14484 3.14484 -8.94963
65 1 1.57237 4.71723 4.71724 -8.94965
66 1 3.1448 3.14479 3.1448 -8.94952
67 1 4.71698 4.71691 4.71698 -8.94907
68 1 6.2897 3.14483 3.14481 -8.94975
69 1 7.86219 4.71722 4.71713 -8.95011
70 1 9.43452 3.14478 3.14479 -8.94962
71 1 11.0068 4.71711 4.71702 -8.94959
72 1 12.5794 3.14481 3.14479 -8.94964
73 1 14.1521 4.71666 4.71695 -8.9498
74 1 15.7243 3.14473 3.14477 -8.94961
75 1 17.2967 4.71716 4.7172 -8.94959
76 1 18.8691 3.14483 3.14483 -8.94963
77 1 20.4415 4.71724 4.71725 -8.94962
78 1 22.0139 6.28966 3.14482 -8.94963
79 1 1.57226 7.86202 4.71716 -8.94967
80 1 3.14471 6.28956 3.14471 -8.94941
81 1 4.71655 7.8615 4.71655 -8.94859
82 1 6.28956 6.28952 3.14452 -8.94979
83 1 7.86169 7.86169 4.716 -8.95123
84 1 9.43449 6.28943 3.14467 -8.94929
85 1 11.0061 7.86207 4.7166 -8.95079
86 1 12.5792 6.28958 3.1447 -8.95009
87 1 14.1545 7.85927 4.71436 -8.94395
88 1 15.7247 6.28915 3.14428 -8.94841
89 1 17.2972 7.86181 4.71693 -8.94983
90 1 18.8692 6.28962 3.14477 -8.94962
91 1 20.4415 7.86207 4.71722 -8.94973
92 1 22.0139 9.43452 3.14482 -8.94961
93 1 3.14472 9.43449 3.14472 -8.94962
94 1 6.2893 9.43439 3.14407 -8.95032
95 1 9.43392 9.43382 3.14395 -8.94679
96 1 12.5803 9.43366 3.14225 -8.95151
97 1 15.7246 9.43442 3.14447 -8.94953
98 1 18.8691 9.43452 3.14478 -8.94958
99 1 22.0139 1.07713e-15 6.28969 -8.94963
100 1 1.57241 1.57241 7.8621 -8.94962
101 1 3.14484 8.86734e-16 6.28969 -8.94965
102 1 4.71723 1.57241 7.86212 -8.94961
103 1 6.2896 1.6663e-15 6.2896 -8.9497
104 1 7.86194 1.57206 7.86194 -8.94988
105 1 9.43453 1.82233e-15 6.28964 -8.94953
106 1 11.0071 1.57208 7.86194 -8.94969
107 1 12.5794 1.599e-15 6.28961 -8.94972
108 1 14.1518 1.57234 7.8621 -8.9497
109 1 15.7242 1.68368e-15 6.28968 -8.94966
110 1 17.2967 1.5724 7.8621 -8.94962
111 1 18.8691 3.95521e-16 6.28969 -8.94963
112 1 20.4415 1.57242 7.86211 -8.94963
113 1 22.0139 3.14484 6.28969 -8.94963
114 1 1.57238 4.71722 7.8621 -8.94961
115 1 3.14481 3.14483 6.2897 -8.94975
116 1 4.71713 4.71722 7.86219 -8.95011
117 1 6.28936 3.14437 6.28936 -8.9494
118 1 7.86084 4.71513 7.86084 -8.94819
119 1 9.43455 3.14466 6.28958 -8.94931
120 1 11.0081 4.71556 7.86101 -8.94679
121 1 12.5796 3.14431 6.28939 -8.94964
122 1 14.1522 4.71676 7.8621 -8.95009
123 1 15.7243 3.14472 6.28965 -8.94968
124 1 17.2967 4.71715 7.86209 -8.94965
125 1 18.8691 3.14482 6.28968 -8.94964
126 1 20.4415 4.71725 7.86211 -8.94963
127 1 22.0139 6.28964 6.28966 -8.94963
128 1 1.57213 7.86195 7.862 -8.94963
129 1 3.14452 6.28952 6.28956 -8.94979
130 1 4.716 7.86169 7.86169 -8.95123
131 1 6.28817 6.28812 6.28817 -8.94708
132 1 7.85552 7.85708 7.85552 -9.0099
133 1 9.43485 6.28936 6.28996 -8.95097
134 1 11.0125 7.86101 7.85881 -9.03245
135 1 12.5804 6.28752 6.28862 -8.95144
136 1 14.1546 7.86021 7.86141 -8.94806
137 1 15.7248 6.28916 6.28938 -8.94927
138 1 17.2975 7.86168 7.86194 -8.94952
139 1 18.8692 6.28958 6.28962 -8.94955
140 1 20.4416 7.86203 7.86207 -8.94971
141 1 22.0138 9.43451 6.28964 -8.94984
142 1 3.14407 9.43439 6.2893 -8.95032
143 1 6.28625 9.43317 6.28625 -8.94715
144 1 9.43083 9.43346 6.291 -9.04149
145 1 12.5921 9.42411 6.27696 -8.97375
146 1 15.7269 9.43373 6.28862 -8.95184
147 1 18.8695 9.43446 6.28957 -8.95007
148 1 -1.27556e-06 8.708e-16 9.43453 -8.94963
149 1 3.14483 1.04085e-15 9.43453 -8.94965
150 1 6.28964 1.76366e-15 9.43453 -8.94953
151 1 9.43452 1.95362e-15 9.43452 -8.95076
152 1 12.5794 1.55368e-15 9.43452 -8.9496
153 1 15.7242 6.66609e-16 9.43453 -8.94965
154 1 18.8691 9.62347e-16 9.43453 -8.94963
155 1 22.0139 3.14483 9.43453 -8.94964
156 1 3.14479 3.14478 9.43452 -8.94962
182 1 20.4415 1.57242 11.007 -8.94964
176 1 1.57241 1.57241 11.007 -8.94963
343 1 18.8691 9.43453 18.8691 -8.94963
178 1 7.86194 1.57208 11.0071 -8.94969
179 1 11.0071 1.57204 11.0071 -8.94975
342 1 15.7242 9.43454 18.8691 -8.94962
341 1 12.5795 9.43442 18.8694 -8.94984
47 1 12.5795 9.43444 22.0136 -8.95012
183 1 1.57236 4.71721 11.0069 -8.94962
340 1 9.4345 9.43435 18.8696 -8.9498
185 1 7.86101 4.71556 11.0081 -8.94679
186 1 11.008 4.71532 11.008 -8.94729
187 1 14.1521 4.71684 11.007 -8.94984
339 1 6.28957 9.43446 18.8695 -8.95007
338 1 3.14478 9.43452 18.8691 -8.94958
337 1 22.0139 9.43453 18.8691 -8.94964
336 1 20.4415 7.86211 20.4415 -8.94963
192 1 7.85881 7.86101 11.0125 -9.03245
193 1 11.0107 7.8595 11.0107 -9.05469
194 1 14.1535 7.86104 11.0071 -8.94987
195 1 17.2972 7.86183 11.0071 -8.94953
196 1 20.4415 7.86204 11.007 -8.94963
197 1 22.0139 1.24293e-15 12.5794 -8.94963
198 1 1.57242 1.57242 14.1518 -8.94964
199 1 3.14483 1.35565e-15 12.5794 -8.94964
200 1 4.7172 1.57232 14.1519 -8.94964
201 1 6.28961 1.25871e-15 12.5794 -8.94972
202 1 7.8621 1.57234 14.1518 -8.9497
203 1 9.43452 1.49271e-15 12.5794 -8.9496
204 1 11.0069 1.57234 14.1518 -8.94968
205 1 12.5795 8.89398e-16 12.5795 -8.94971
206 1 14.1519 1.57233 14.1519 -8.94958
207 1 15.7242 1.28553e-15 12.5794 -8.94966
208 1 17.2967 1.57241 14.1518 -8.94964
209 1 18.8691 7.93319e-16 12.5794 -8.94963
210 1 20.4415 1.57242 14.1518 -8.94963
211 1 22.0139 3.14483 12.5794 -8.94963
212 1 1.5724 4.71724 14.1518 -8.94979
213 1 3.14479 3.14481 12.5794 -8.94964
214 1 4.71695 4.71666 14.1521 -8.9498
215 1 6.28939 3.14431 12.5796 -8.94964
216 1 7.8621 4.71676 14.1522 -8.95009
217 1 9.43451 3.1445 12.5795 -8.94953
218 1 11.007 4.71684 14.1521 -8.94984
219 1 12.5797 3.14428 12.5797 -8.94955
220 1 14.1521 4.71679 14.1521 -8.94946
221 1 15.7243 3.14474 12.5794 -8.94968
222 1 17.2967 4.71718 14.1519 -8.94963
223 1 18.8691 3.14483 12.5794 -8.94963
224 1 20.4415 4.71725 14.1518 -8.94963
225 1 -1.73292e-05 6.28965 12.5794 -8.9496
226 1 1.57182 7.8618 14.1521 -8.94982
227 1 3.1447 6.28958 12.5792 -8.95009
228 1 4.71436 7.85927 14.1545 -8.94395
229 1 6.28862 6.28752 12.5804 -8.95144
230 1 7.86141 7.86021 14.1546 -8.94806
231 1 9.43457 6.28859 12.5796 -8.95086
232 1 11.0071 7.86104 14.1535 -8.94987
233 1 12.5804 6.28765 12.5804 -8.95037
234 1 14.1534 7.86049 14.1534 -8.94664
235 1 15.7246 6.28929 12.5796 -8.94971
236 1 17.297 7.86187 14.1521 -8.9496
237 1 18.8692 6.28961 12.5794 -8.94961
238 1 20.4415 7.86205 14.1519 -8.94975
239 1 22.0136 9.43444 12.5795 -8.95012
240 1 3.14225 9.43366 12.5803 -8.95151
241 1 6.27696 9.42411 12.5921 -8.97375
242 1 9.43067 9.43117 12.5855 -9.03235
243 1 12.5852 9.42674 12.5852 -9.01007
244 1 15.726 9.4337 12.5803 -8.94951
245 1 18.8694 9.43442 12.5795 -8.94984
246 1 -4.6224e-07 1.36587e-15 15.7242 -8.94964
247 1 1.57241 1.57241 17.2966 -8.94962
248 1 3.14482 1.51393e-15 15.7242 -8.94962
249 1 4.71725 1.5724 17.2967 -8.94964
250 1 6.28968 1.67887e-15 15.7242 -8.94966
251 1 7.8621 1.5724 17.2967 -8.94962
252 1 9.43453 4.32669e-16 15.7242 -8.94965
253 1 11.007 1.5724 17.2967 -8.94962
254 1 12.5794 1.28504e-15 15.7242 -8.94966
255 1 14.1518 1.57241 17.2967 -8.94964
256 1 15.7242 1.80248e-15 15.7242 -8.9496
257 1 17.2966 1.57241 17.2966 -8.94962
258 1 18.8691 1.69567e-15 15.7242 -8.94963
259 1 20.4415 1.57242 17.2966 -8.94964
260 1 -4.08285e-07 3.14484 15.7242 -8.94967
261 1 1.57234 4.71718 17.2967 -8.94941
262 1 3.14477 3.14473 15.7243 -8.94961
263 1 4.7172 4.71716 17.2967 -8.94959
264 1 6.28965 3.14472 15.7243 -8.94968
265 1 7.86209 4.71715 17.2967 -8.94965
266 1 9.43453 3.1447 15.7243 -8.94958
267 1 11.007 4.71716 17.2968 -8.94958
268 1 12.5794 3.14474 15.7243 -8.94968
269 1 14.1519 4.71718 17.2967 -8.94963
270 1 15.7243 3.14476 15.7243 -8.94957
271 1 17.2967 4.71722 17.2967 -8.94953
272 1 18.8691 3.14483 15.7242 -8.94963
273 1 20.4415 4.71725 17.2967 -8.94961
274 1 22.0138 6.28962 15.7243 -8.94962
275 1 1.57236 7.86209 17.2967 -8.94968
276 1 3.14428 6.28915 15.7247 -8.94841
277 1 4.71693 7.86181 17.2972 -8.94983
278 1 6.28938 6.28916 15.7248 -8.94927
279 1 7.86194 7.86168 17.2975 -8.94952
280 1 9.43461 6.28913 15.7247 -8.9491
281 1 11.0071 7.86183 17.2972 -8.94953
282 1 12.5796 6.28929 15.7246 -8.94971
283 1 14.1521 7.86187 17.297 -8.9496
284 1 15.7245 6.2894 15.7245 -8.94902
285 1 17.2967 7.86212 17.2967 -8.94975
286 1 18.8691 6.28964 15.7243 -8.9496
287 1 20.4415 7.86211 17.2966 -8.94964
288 1 22.0138 9.43452 15.7243 -8.94959
289 1 3.14447 9.43442 15.7246 -8.94953
290 1 6.28862 9.43373 15.7269 -8.95184
291 1 9.43404 9.43337 15.7269 -8.94826
292 1 12.5803 9.4337 15.726 -8.94951
293 1 15.7243 9.43459 15.7243 -8.95006
294 1 18.8691 9.43454 15.7242 -8.94962
295 1 22.0139 1.62428e-15 18.8691 -8.94963
296 1 1.57242 1.57242 20.4415 -8.94963
297 1 3.14484 1.51619e-15 18.8691 -8.94963
298 1 4.71726 1.57242 20.4415 -8.94964
299 1 6.28969 4.55839e-17 18.8691 -8.94963
300 1 7.86211 1.57242 20.4415 -8.94963
301 1 9.43453 8.20786e-16 18.8691 -8.94963
302 1 11.007 1.57242 20.4415 -8.94964
303 1 12.5794 7.83588e-16 18.8691 -8.94963
304 1 14.1518 1.57242 20.4415 -8.94963
305 1 15.7242 1.80457e-15 18.8691 -8.94963
306 1 17.2966 1.57242 20.4415 -8.94964
307 1 18.8691 1.87499e-15 18.8691 -8.94963
308 1 20.4415 1.57242 20.4415 -8.94962
309 1 22.0139 3.14483 18.8691 -8.9496
310 1 1.57241 4.71725 20.4415 -8.94962
311 1 3.14483 3.14483 18.8691 -8.94963
312 1 4.71725 4.71724 20.4415 -8.94962
313 1 6.28968 3.14482 18.8691 -8.94964
314 1 7.86211 4.71725 20.4415 -8.94963
315 1 9.43453 3.14482 18.8691 -8.94964
316 1 11.007 4.71724 20.4415 -8.94963
317 1 12.5794 3.14483 18.8691 -8.94963
318 1 14.1518 4.71725 20.4415 -8.94963
319 1 15.7242 3.14483 18.8691 -8.94963
320 1 17.2967 4.71725 20.4415 -8.94961
321 1 18.8691 3.14484 18.8691 -8.94961
322 1 20.4415 4.71726 20.4415 -8.94965
323 1 22.0139 6.28969 18.8691 -8.94965
324 1 1.57241 7.86211 20.4415 -8.94963
325 1 3.14477 6.28962 18.8692 -8.94962
326 1 4.71722 7.86207 20.4415 -8.94973
327 1 6.28962 6.28958 18.8692 -8.94955
328 1 7.86207 7.86203 20.4416 -8.94971
329 1 9.43455 6.28959 18.8692 -8.94959
330 1 11.007 7.86204 20.4415 -8.94963
331 1 12.5794 6.28961 18.8692 -8.94961
332 1 14.1519 7.86205 20.4415 -8.94975
333 1 15.7243 6.28964 18.8691 -8.9496
334 1 17.2966 7.86211 20.4415 -8.94964
335 1 18.8691 6.28969 18.8691 -8.94966
1 1 22.0139 1.57048e-15 22.0139 -8.94963
3 1 3.14484 1.2959e-15 22.0139 -8.94964
9 1 12.5794 1.14629e-15 22.0139 -8.94963
13 1 18.8691 1.65372e-15 22.0139 -8.94963
15 1 22.0139 3.14484 22.0139 -8.94962
19 1 6.28969 3.14484 22.0139 -8.94963
21 1 9.43453 3.14483 22.0139 -8.94964
23 1 12.5794 3.14483 22.0139 -8.94963
27 1 18.8691 3.14483 22.0139 -8.9496
31 1 3.14482 6.28966 22.0139 -8.94963
33 1 6.28966 6.28964 22.0139 -8.94963
35 1 9.43452 6.28963 22.0139 -8.94961
39 1 15.7243 6.28962 22.0138 -8.94962
43 1 22.0139 9.43453 22.0139 -8.94964
45 1 6.28964 9.43451 22.0138 -8.94984
46 1 9.43446 9.4344 22.0138 -8.94958
5 1 6.28969 1.61819e-15 22.0139 -8.94963
17 1 3.14484 3.14484 22.0139 -8.94963
29 1 22.0139 6.28969 22.0139 -8.94964
189 1 20.4415 4.71724 11.007 -8.94963
188 1 17.2968 4.71716 11.007 -8.94958
41 1 18.8691 6.28969 22.0139 -8.94965
181 1 17.2967 1.5724 11.007 -8.94962
44 1 3.14482 9.43452 22.0139 -8.94961
48 1 15.7243 9.43452 22.0138 -8.94959
49 1 18.8691 9.43453 22.0139 -8.94964
344 1 1.5724 11.007 1.5724 -8.94965
345 1 4.71716 11.007 1.57224 -8.94953
346 1 7.86211 11.007 1.57205 -8.95011
347 1 11.0068 11.007 1.57095 -8.95224
348 1 14.152 11.007 1.5719 -8.94945
349 1 17.2967 11.007 1.57236 -8.94965
350 1 20.4415 11.007 1.57241 -8.94963
688 2 10.3149 11.007 9.35079 0.562612
352 1 1.5724 14.1518 1.5724 -8.94965
537 1 14.1518 20.4416 11.0069 -8.94968
354 1 4.71716 14.1519 1.57226 -8.94967
687 2 9.35079 11.007 10.3149 0.562612
356 1 7.862 14.152 1.57213 -8.94963
511 1 18.8691 18.8691 9.43453 -8.94964
358 1 11.0068 14.1519 1.5722 -8.94937
510 1 15.7243 18.8692 9.43453 -8.94958
360 1 14.1521 14.1521 1.57182 -8.94982
534 1 4.71722 20.4415 11.0069 -8.94962
362 1 17.2967 14.1518 1.57236 -8.94968
527 1 4.71702 17.2968 11.0068 -8.94959
364 1 20.4415 14.1518 1.57241 -8.94963
520 1 4.7166 14.1518 11.0061 -8.95079
366 1 1.5724 17.2967 1.5724 -8.94959
509 1 12.5795 18.8694 9.43451 -8.94953
368 1 4.71724 17.2967 1.57237 -8.94965
508 1 9.43451 18.8714 9.43451 -8.95406
370 1 7.8621 17.2967 1.57238 -8.94961
507 1 6.28958 18.8692 9.43455 -8.94931
372 1 11.0069 17.2967 1.57236 -8.94962
373 1 12.5794 15.7242 -1.73292e-05 -8.9496
374 1 14.1518 17.2967 1.5724 -8.94979
506 1 3.14479 18.8691 9.43452 -8.94962
376 1 17.2967 17.2967 1.57234 -8.94941
519 1 1.5722 14.1519 11.0068 -8.94937
378 1 20.4415 17.2966 1.57241 -8.94962
505 1 22.0139 18.8691 9.43453 -8.94964
380 1 1.57242 20.4415 1.57242 -8.94961
516 1 14.1626 11.007 11.0066 -9.01339
382 1 4.71727 20.4415 1.57242 -8.94966
504 1 18.8692 15.7243 9.43455 -8.94959
384 1 7.8621 20.4415 1.57241 -8.94962
503 1 15.7247 15.7248 9.43461 -8.9491
386 1 11.007 20.4415 1.57241 -8.94963
502 1 12.5796 15.7253 9.43457 -8.95086
388 1 14.1518 20.4415 1.57242 -8.94964
389 1 15.7242 18.8691 -4.08285e-07 -8.94967
390 1 17.2966 20.4415 1.57241 -8.94962
501 1 9.4343 15.7396 9.4343 -8.97143
392 1 20.4415 20.4415 1.57242 -8.94963
393 1 1.57224 11.007 4.71716 -8.94953
394 1 4.71657 11.007 4.71657 -8.94837
395 1 7.86185 11.007 4.7151 -8.95358
396 1 11.0072 11.007 4.70723 -8.97399
397 1 14.1536 11.007 4.71511 -8.94756
398 1 17.2972 11.007 4.71696 -8.94934
399 1 20.4415 11.007 4.71721 -8.94966
400 1 22.0139 12.5794 3.14482 -8.94961
401 1 1.57226 14.1519 4.71716 -8.94967
402 1 3.14472 12.5794 3.14472 -8.94962
403 1 4.71655 14.1524 4.71655 -8.94859
404 1 6.2893 12.5795 3.14407 -8.95032
405 1 7.86169 14.1522 4.716 -8.95123
406 1 9.43392 12.5801 3.14395 -8.94679
407 1 11.0061 14.1518 4.7166 -8.95079
408 1 12.5803 12.5802 3.14225 -8.95151
409 1 14.1545 14.1546 4.71436 -8.94395
410 1 15.7246 12.5795 3.14447 -8.94953
411 1 17.2972 14.1521 4.71693 -8.94983
412 1 18.8691 12.5794 3.14478 -8.94958
413 1 20.4415 14.1518 4.71722 -8.94973
414 1 22.0139 15.7242 3.14482 -8.94963
415 1 1.57237 17.2967 4.71724 -8.94965
416 1 3.14471 15.7243 3.14471 -8.94941
417 1 4.71698 17.297 4.71698 -8.94907
418 1 6.28956 15.7244 3.14452 -8.94979
419 1 7.86219 17.2967 4.71713 -8.95011
420 1 9.43449 15.7245 3.14467 -8.94929
421 1 11.0068 17.2968 4.71702 -8.94959
422 1 12.5792 15.7243 3.1447 -8.95009
423 1 14.1521 17.2972 4.71695 -8.9498
424 1 15.7247 15.7248 3.14428 -8.94841
425 1 17.2967 17.2967 4.7172 -8.94959
426 1 18.8692 15.7243 3.14477 -8.94962
427 1 20.4415 17.2967 4.71725 -8.94962
428 1 22.0139 18.8691 3.14484 -8.94963
429 1 1.57242 20.4415 4.71727 -8.94966
430 1 3.1448 18.8691 3.1448 -8.94952
431 1 4.7172 20.4416 4.7172 -8.94956
432 1 6.2897 18.8691 3.14481 -8.94975
433 1 7.86212 20.4415 4.71723 -8.94961
434 1 9.43452 18.8691 3.14479 -8.94962
435 1 11.0069 20.4415 4.71722 -8.94962
436 1 12.5794 18.8691 3.14479 -8.94964
437 1 14.1519 20.4416 4.7172 -8.94964
438 1 15.7243 18.8692 3.14477 -8.94961
439 1 17.2967 20.4415 4.71725 -8.94964
440 1 18.8691 18.8691 3.14483 -8.94963
441 1 20.4415 20.4415 4.71726 -8.94964
442 1 1.57205 11.007 7.86211 -8.95011
443 1 4.7151 11.007 7.86185 -8.95358
444 1 7.84988 11.007 7.84988 -9.01036
445 1 11.0451 11.007 7.77782 -9.27193
446 1 14.1594 11.007 7.85949 -9.00957
447 1 17.2982 11.007 7.86203 -8.9509
448 1 20.4417 11.007 7.86209 -8.9499
449 1 22.0138 12.5794 6.28964 -8.94984
450 1 1.57213 14.152 7.862 -8.94963
451 1 3.14407 12.5795 6.2893 -8.95032
452 1 4.716 14.1522 7.86169 -8.95123
453 1 6.28625 12.5807 6.28625 -8.94715
454 1 7.85552 14.1568 7.85552 -9.0099
455 1 9.43083 12.5804 6.291 -9.04149
456 1 11.0125 14.1529 7.85881 -9.03245
457 1 12.5921 12.5898 6.27696 -8.97375
458 1 14.1546 14.1537 7.86141 -8.94806
459 1 15.7269 12.5802 6.28862 -8.95184
460 1 17.2975 14.1522 7.86194 -8.94952
461 1 18.8695 12.5794 6.28957 -8.95007
462 1 20.4416 14.1519 7.86207 -8.94971
463 1 22.0139 15.7243 6.28966 -8.94963
464 1 1.57238 17.2967 7.8621 -8.94961
465 1 3.14452 15.7244 6.28956 -8.94979
466 1 4.71713 17.2967 7.86219 -8.95011
467 1 6.28817 15.7258 6.28817 -8.94708
468 1 7.86084 17.2988 7.86084 -8.94819
469 1 9.43485 15.7245 6.28996 -8.95097
470 1 11.0081 17.2983 7.86101 -8.94679
471 1 12.5804 15.7264 6.28862 -8.95144
472 1 14.1522 17.2971 7.8621 -8.95009
473 1 15.7248 15.7247 6.28938 -8.94927
474 1 17.2967 17.2967 7.86209 -8.94965
475 1 18.8692 15.7243 6.28962 -8.94955
476 1 20.4415 17.2967 7.86211 -8.94963
477 1 22.0139 18.8691 6.28969 -8.94963
478 1 1.57241 20.4415 7.8621 -8.94962
479 1 3.14481 18.8691 6.2897 -8.94975
480 1 4.71723 20.4415 7.86212 -8.94961
481 1 6.28936 18.8695 6.28936 -8.9494
482 1 7.86194 20.4418 7.86194 -8.94988
483 1 9.43455 18.8692 6.28958 -8.94931
484 1 11.0071 20.4418 7.86194 -8.94969
485 1 12.5796 18.8696 6.28939 -8.94964
486 1 14.1518 20.4416 7.8621 -8.9497
487 1 15.7243 18.8692 6.28965 -8.94968
488 1 17.2967 20.4415 7.8621 -8.94962
489 1 18.8691 18.8691 6.28968 -8.94964
490 1 20.4415 20.4415 7.86211 -8.94963
491 1 22.0138 12.5795 9.43446 -8.94958
492 1 3.14395 12.5801 9.43392 -8.94679
493 1 6.291 12.5804 9.43083 -9.04149
494 1 9.4164 12.6596 9.4164 -9.36957
495 1 12.5855 12.5827 9.43067 -9.03235
496 1 15.7269 12.5805 9.43404 -8.94826
497 1 18.8696 12.5795 9.4345 -8.9498
498 1 22.0139 15.7243 9.43452 -8.94961
499 1 3.14467 15.7245 9.43449 -8.94929
500 1 6.28996 15.7245 9.43485 -8.95097
512 1 1.57095 11.007 11.0068 -8.95224
513 1 4.70723 11.007 11.0072 -8.97399
539 1 20.4415 20.4415 11.007 -8.94964
686 1 20.4415 20.4415 20.4415 -8.94962
685 1 18.8691 18.8691 18.8691 -8.94961
514 1 7.77782 11.007 11.0451 -9.27193
515 1 11.0699 11.007 11.0699 -9.33181
684 1 17.2966 20.4415 20.4415 -8.94964
517 1 17.2985 11.007 11.007 -8.9523
518 1 20.4416 11.007 11.007 -8.95031
683 1 15.7242 18.8691 18.8691 -8.94963
682 1 14.1518 20.4415 20.4415 -8.94963
521 1 7.85881 14.1529 11.0125 -9.03245
522 1 11.0107 14.1544 11.0107 -9.05469
523 1 14.1535 14.1529 11.0071 -8.94987
524 1 17.2972 14.1521 11.0071 -8.94953
525 1 20.4415 14.1519 11.007 -8.94963
526 1 1.57236 17.2967 11.0069 -8.94962
681 1 12.5794 18.8691 18.8691 -8.94963
528 1 7.86101 17.2983 11.0081 -8.94679
529 1 11.008 17.2986 11.008 -8.94729
530 1 14.1521 17.2971 11.007 -8.94984
680 1 11.007 20.4415 20.4415 -8.94964
679 1 9.43453 18.8691 18.8691 -8.94964
533 1 1.57241 20.4415 11.007 -8.94963
678 1 7.86211 20.4415 20.4415 -8.94963
535 1 7.86194 20.4418 11.0071 -8.94969
536 1 11.0071 20.4419 11.0071 -8.94975
677 1 6.28968 18.8691 18.8691 -8.94964
676 1 4.71726 20.4415 20.4415 -8.94964
391 1 18.8691 18.8691 22.0139 -8.9496
540 1 1.5719 11.007 14.152 -8.94945
541 1 4.71511 11.007 14.1536 -8.94756
542 1 7.85949 11.007 14.1594 -9.00957
543 1 11.0066 11.007 14.1626 -9.01339
544 1 14.1519 11.007 14.1519 -8.9505
545 1 17.2968 11.007 14.1519 -8.9492
546 1 20.4414 11.007 14.1518 -8.94962
547 1 22.0136 12.5795 12.5795 -8.95012
548 1 1.57182 14.1521 14.1521 -8.94982
549 1 3.14225 12.5802 12.5803 -8.95151
550 1 4.71436 14.1546 14.1545 -8.94395
551 1 6.27696 12.5898 12.5921 -8.97375
552 1 7.86141 14.1537 14.1546 -8.94806
553 1 9.43067 12.5827 12.5855 -9.03235
554 1 11.0071 14.1529 14.1535 -8.94987
555 1 12.5852 12.5872 12.5852 -9.01007
556 1 14.1534 14.1534 14.1534 -8.94664
557 1 15.726 12.5802 12.5803 -8.94951
558 1 17.297 14.152 14.1521 -8.9496
559 1 18.8694 12.5795 12.5795 -8.94984
560 1 20.4415 14.1518 14.1519 -8.94975
561 1 -1.73292e-05 15.7242 12.5794 -8.9496
562 1 1.5724 17.2967 14.1518 -8.94979
563 1 3.1447 15.7243 12.5792 -8.95009
564 1 4.71695 17.2972 14.1521 -8.9498
565 1 6.28862 15.7264 12.5804 -8.95144
566 1 7.8621 17.2971 14.1522 -8.95009
567 1 9.43457 15.7253 12.5796 -8.95086
568 1 11.007 17.2971 14.1521 -8.94984
569 1 12.5804 15.7263 12.5804 -8.95037
570 1 14.1521 17.2971 14.1521 -8.94946
571 1 15.7246 15.7246 12.5796 -8.94971
572 1 17.2967 17.2967 14.1519 -8.94963
573 1 18.8692 15.7243 12.5794 -8.94961
574 1 20.4415 17.2967 14.1518 -8.94963
575 1 22.0139 18.8691 12.5794 -8.94963
576 1 1.57242 20.4415 14.1518 -8.94964
577 1 3.14479 18.8691 12.5794 -8.94964
578 1 4.7172 20.4416 14.1519 -8.94964
579 1 6.28939 18.8696 12.5796 -8.94964
580 1 7.8621 20.4416 14.1518 -8.9497
581 1 9.43451 18.8694 12.5795 -8.94953
582 1 11.0069 20.4416 14.1518 -8.94968
583 1 12.5797 18.8696 12.5797 -8.94955
584 1 14.1519 20.4416 14.1519 -8.94958
585 1 15.7243 18.8692 12.5794 -8.94968
586 1 17.2967 20.4415 14.1518 -8.94964
587 1 18.8691 18.8691 12.5794 -8.94963
588 1 20.4415 20.4415 14.1518 -8.94963
589 1 1.57236 11.007 17.2967 -8.94965
590 1 4.71696 11.007 17.2972 -8.94934
591 1 7.86203 11.007 17.2982 -8.9509
592 1 11.007 11.007 17.2985 -8.9523
593 1 14.1519 11.007 17.2968 -8.9492
594 1 17.2967 11.007 17.2967 -8.94961
595 1 20.4415 11.007 17.2966 -8.94964
596 1 22.0138 12.5794 15.7243 -8.94959
597 1 1.57236 14.1518 17.2967 -8.94968
598 1 3.14447 12.5795 15.7246 -8.94953
599 1 4.71693 14.1521 17.2972 -8.94983
600 1 6.28862 12.5802 15.7269 -8.95184
601 1 7.86194 14.1522 17.2975 -8.94952
602 1 9.43404 12.5805 15.7269 -8.94826
603 1 11.0071 14.1521 17.2972 -8.94953
604 1 12.5803 12.5802 15.726 -8.94951
605 1 14.1521 14.152 17.297 -8.9496
606 1 15.7243 12.5793 15.7243 -8.95006
607 1 17.2967 14.1518 17.2967 -8.94975
608 1 18.8691 12.5794 15.7242 -8.94962
609 1 20.4415 14.1518 17.2966 -8.94964
610 1 22.0138 15.7243 15.7243 -8.94962
611 1 1.57234 17.2967 17.2967 -8.94941
612 1 3.14428 15.7248 15.7247 -8.94841
613 1 4.7172 17.2967 17.2967 -8.94959
614 1 6.28938 15.7247 15.7248 -8.94927
615 1 7.86209 17.2967 17.2967 -8.94965
616 1 9.43461 15.7248 15.7247 -8.9491
617 1 11.007 17.2967 17.2968 -8.94958
618 1 12.5796 15.7246 15.7246 -8.94971
619 1 14.1519 17.2967 17.2967 -8.94963
620 1 15.7245 15.7245 15.7245 -8.94902
621 1 17.2967 17.2967 17.2967 -8.94953
622 1 18.8691 15.7243 15.7243 -8.9496
623 1 20.4415 17.2967 17.2967 -8.94961
624 1 -4.08285e-07 18.8691 15.7242 -8.94967
625 1 1.57241 20.4415 17.2966 -8.94962
626 1 3.14477 18.8692 15.7243 -8.94961
627 1 4.71725 20.4415 17.2967 -8.94964
628 1 6.28965 18.8692 15.7243 -8.94968
629 1 7.8621 20.4415 17.2967 -8.94962
630 1 9.43453 18.8692 15.7243 -8.94958
631 1 11.007 20.4415 17.2967 -8.94962
632 1 12.5794 18.8692 15.7243 -8.94968
633 1 14.1518 20.4415 17.2967 -8.94964
634 1 15.7243 18.8691 15.7243 -8.94957
635 1 17.2966 20.4415 17.2966 -8.94962
636 1 18.8691 18.8691 15.7242 -8.94963
637 1 20.4415 20.4415 17.2966 -8.94964
638 1 1.57241 11.007 20.4415 -8.94963
639 1 4.71721 11.007 20.4415 -8.94966
640 1 7.86209 11.007 20.4417 -8.9499
641 1 11.007 11.007 20.4416 -8.95031
642 1 14.1518 11.007 20.4414 -8.94962
643 1 17.2966 11.007 20.4415 -8.94964
644 1 20.4415 11.007 20.4415 -8.94963
645 1 22.0139 12.5794 18.8691 -8.94964
646 1 1.57241 14.1518 20.4415 -8.94963
647 1 3.14478 12.5794 18.8691 -8.94958
648 1 4.71722 14.1518 20.4415 -8.94973
649 1 6.28957 12.5794 18.8695 -8.95007
650 1 7.86207 14.1519 20.4416 -8.94971
651 1 9.4345 12.5795 18.8696 -8.9498
652 1 11.007 14.1519 20.4415 -8.94963
653 1 12.5795 12.5795 18.8694 -8.94984
654 1 14.1519 14.1518 20.4415 -8.94975
655 1 15.7242 12.5794 18.8691 -8.94962
656 1 17.2966 14.1518 20.4415 -8.94964
657 1 18.8691 12.5794 18.8691 -8.94963
658 1 20.4415 14.1518 20.4415 -8.94963
659 1 22.0139 15.7242 18.8691 -8.94965
660 1 1.57241 17.2966 20.4415 -8.94962
661 1 3.14477 15.7243 18.8692 -8.94962
662 1 4.71725 17.2967 20.4415 -8.94962
663 1 6.28962 15.7243 18.8692 -8.94955
664 1 7.86211 17.2967 20.4415 -8.94963
665 1 9.43455 15.7243 18.8692 -8.94959
666 1 11.007 17.2967 20.4415 -8.94963
667 1 12.5794 15.7243 18.8692 -8.94961
668 1 14.1518 17.2967 20.4415 -8.94963
669 1 15.7243 15.7243 18.8691 -8.9496
670 1 17.2967 17.2967 20.4415 -8.94961
671 1 18.8691 15.7242 18.8691 -8.94966
672 1 20.4415 17.2966 20.4415 -8.94965
673 1 22.0139 18.8691 18.8691 -8.9496
674 1 1.57242 20.4415 20.4415 -8.94963
675 1 3.14483 18.8691 18.8691 -8.94963
351 1 22.0139 12.5794 22.0139 -8.94964
355 1 6.28964 12.5794 22.0138 -8.94984
357 1 9.43446 12.5795 22.0138 -8.94958
359 1 12.5795 12.5795 22.0136 -8.95012
367 1 3.14482 15.7242 22.0139 -8.94963
369 1 6.28966 15.7243 22.0139 -8.94963
371 1 9.43452 15.7243 22.0139 -8.94961
375 1 15.7243 15.7243 22.0138 -8.94962
379 1 22.0139 18.8691 22.0139 -8.94962
383 1 6.28969 18.8691 22.0139 -8.94963
385 1 9.43453 18.8691 22.0139 -8.94964
387 1 12.5794 18.8691 22.0139 -8.94963
353 1 3.14482 12.5794 22.0139 -8.94961
538 1 17.2967 20.4415 11.007 -8.94962
361 1 15.7243 12.5794 22.0138 -8.94959
363 1 18.8691 12.5794 22.0139 -8.94964
532 1 20.4415 17.2967 11.007 -8.94963
531 1 17.2968 17.2967 11.007 -8.94958
365 1 22.0139 15.7242 22.0139 -8.94964
377 1 18.8691 15.7242 22.0139 -8.94965
381 1 3.14484 18.8691 22.0139 -8.94963
