ITEM: TIMESTEP
8
ITEM: NUMBER OF ATOMS
688
ITEM: BOX BOUNDS pp pp pp
0.0000000000000000e+00 2.2013900999999997e+01
0.0000000000000000e+00 2.2013900999999997e+01
0.0000000000000000e+00 2.2013900999999997e+01
ITEM: ATOMS id type x y z c_pot
1 1 -5.76672e-12 1.20682e-15 -5.76669e-12 -8.94963
2 1 1.57242 1.57242 1.57242 -8.94963
3 1 3.14484 1.09973e-15 -1.5866e-09 -8.94963
4 1 4.71726 1.57242 1.57242 -8.94963
5 1 6.28969 1.25481e-15 7.75799e-09 -8.94963
6 1 7.86211 1.57242 1.57242 -8.94963
7 1 9.43453 1.04158e-15 -2.54855e-10 -8.94963
8 1 11.007 1.57242 1.57242 -8.94963
9 1 12.5794 1.3022e-15 -3.57296e-09 -8.94963
10 1 14.1518 1.57242 1.57242 -8.94963
11 1 15.7242 8.79113e-16 7.61486e-10 -8.94963
12 1 17.2966 1.57242 1.57242 -8.94963
13 1 18.8691 1.35235e-15 -1.25721e-10 -8.94963
14 1 20.4415 1.57242 1.57242 -8.94963
15 1 -1.8011e-09 3.14484 -1.8011e-09 -8.94963
16 1 1.57242 4.71726 1.57242 -8.94963
17 1 3.14484 3.14484 8.26365e-09 -8.94963
18 1 4.71726 4.71726 1.57242 -8.94963
19 1 6.28969 3.14484 -1.31177e-08 -8.94963
20 1 7.86211 4.71726 1.57242 -8.94964
21 1 9.43453 3.14484 1.52354e-08 -8.94963
22 1 11.007 4.71726 1.57242 -8.94963
23 1 12.5794 3.14484 2.85866e-08 -8.94963
24 1 14.1518 4.71726 1.57242 -8.94965
25 1 15.7242 3.14484 -9.1102e-09 -8.94963
26 1 17.2966 4.71726 1.57242 -8.94963
27 1 18.8691 3.14484 -2.96199e-09 -8.94963
28 1 20.4415 4.71726 1.57242 -8.94963
29 1 1.10379e-08 6.28969 1.10379e-08 -8.94963
30 1 1.57242 7.86211 1.57242 -8.94964
31 1 3.14484 6.28969 -1.80163e-07 -8.94963
32 1 4.71726 7.8621 1.57242 -8.94963
33 1 6.28969 6.28969 -1.9258e-07 -8.94963
34 1 7.8621 7.8621 1.57241 -8.94964
35 1 9.43453 6.28969 2.14048e-07 -8.94963
36 1 11.007 7.8621 1.57242 -8.94961
37 1 12.5794 6.28969 -1.42778e-07 -8.94963
38 1 14.1518 7.8621 1.57241 -8.94967
39 1 15.7242 6.28969 -3.8528e-07 -8.94963
40 1 17.2966 7.86211 1.57242 -8.94965
41 1 18.8691 6.28969 1.6103e-08 -8.94963
42 1 20.4415 7.86211 1.57242 -8.94963
43 1 -2.33741e-08 9.43453 -2.33741e-08 -8.94963
44 1 3.14484 9.43453 3.92264e-07 -8.94963
45 1 6.28968 9.43453 -4.0264e-06 -8.94966
46 1 9.43453 9.43453 -8.56735e-06 -8.94964
47 1 12.5794 9.43453 -8.04941e-06 -8.94969
48 1 15.7242 9.43453 4.58653e-07 -8.94963
49 1 18.8691 9.43453 -4.68979e-08 -8.94963
50 1 -1.5866e-09 1.02455e-15 3.14484 -8.94963
51 1 1.57242 1.57242 4.71726 -8.94963
52 1 3.14484 1.23887e-15 3.14484 -8.94963
53 1 4.71726 1.57242 4.71726 -8.94963
54 1 6.28969 9.92625e-16 3.14484 -8.94963
55 1 7.86211 1.57242 4.71726 -8.94964
56 1 9.43453 8.08429e-16 3.14484 -8.94963
57 1 11.0069 1.57242 4.71727 -8.94964
58 1 12.5794 7.65846e-16 3.14484 -8.94963
59 1 14.1518 1.57242 4.71726 -8.94963
60 1 15.7242 1.11339e-15 3.14484 -8.94963
61 1 17.2966 1.57242 4.71726 -8.94963
62 1 18.8691 1.03713e-15 3.14484 -8.94963
63 1 20.4415 1.57242 4.71726 -8.94963
64 1 8.26365e-09 3.14484 3.14484 -8.94963
65 1 1.57242 4.71726 4.71726 -8.94963
66 1 3.14484 3.14484 3.14484 -8.94963
67 1 4.71726 4.71726 4.71726 -8.94961
68 1 6.28969 3.14484 3.14484 -8.94964
69 1 7.86211 4.71726 4.71726 -8.94981
70 1 9.43453 3.14484 3.14484 -8.94962
71 1 11.0069 4.71727 4.71726 -8.94968
72 1 12.5794 3.14484 3.14484 -8.94964
73 1 14.1518 4.71724 4.71725 -8.94965
74 1 15.7242 3.14484 3.14484 -8.94963
75 1 17.2966 4.71726 4.71726 -8.94962
76 1 18.8691 3.14484 3.14484 -8.94963
77 1 20.4415 4.71726 4.71726 -8.94963
78 1 -1.80163e-07 6.28969 3.14484 -8.94963
79 1 1.57242 7.8621 4.71726 -8.94963
80 1 3.14484 6.28968 3.14484 -8.94959
81 1 4.71715 7.86199 4.71715 -8.949
82 1 6.28968 6.28968 3.14484 -8.94967
83 1 7.8621 7.86209 4.71709 -8.95076
84 1 9.43453 6.28967 3.14484 -8.94952
85 1 11.0067 7.86221 4.7173 -8.95104
86 1 12.5794 6.2897 3.14485 -8.94985
87 1 14.1522 7.86174 4.71686 -8.94703
88 1 15.7242 6.28967 3.14483 -8.94948
89 1 17.2966 7.8621 4.71726 -8.94967
90 1 18.8691 6.28969 3.14484 -8.94963
91 1 20.4415 7.86211 4.71726 -8.94963
92 1 3.92264e-07 9.43453 3.14484 -8.94963
93 1 3.14485 9.43453 3.14485 -8.9497
94 1 6.28963 9.43448 3.14471 -8.94983
95 1 9.43446 9.4344 3.14475 -8.948
96 1 12.5795 9.43445 3.14455 -8.95054
97 1 15.7242 9.43454 3.14486 -8.94978
98 1 18.8691 9.43453 3.14484 -8.94963
99 1 7.75799e-09 1.11781e-15 6.28969 -8.94963
100 1 1.57242 1.57242 7.86211 -8.94963
101 1 3.14484 9.97731e-16 6.28969 -8.94963
102 1 4.71726 1.57242 7.86211 -8.94964
103 1 6.28969 1.1797e-15 6.28969 -8.94963
104 1 7.8621 1.57241 7.8621 -8.94961
105 1 9.43453 1.04459e-15 6.28969 -8.94963
106 1 11.007 1.5724 7.8621 -8.94964
107 1 12.5794 7.55629e-16 6.28969 -8.94964
108 1 14.1518 1.57242 7.86211 -8.94965
109 1 15.7242 1.0651e-15 6.28969 -8.94963
110 1 17.2966 1.57242 7.86211 -8.94963
111 1 18.8691 7.71517e-16 6.28969 -8.94963
112 1 20.4415 1.57242 7.86211 -8.94963
113 1 -1.31177e-08 3.14484 6.28969 -8.94963
114 1 1.57242 4.71726 7.86211 -8.94964
115 1 3.14484 3.14484 6.28969 -8.94964
116 1 4.71726 4.71726 7.86211 -8.94981
117 1 6.28968 3.14483 6.28968 -8.94957
118 1 7.86186 4.71705 7.86186 -8.94826
119 1 9.43452 3.14485 6.28969 -8.94963
120 1 11.0072 4.71695 7.86185 -8.94785
121 1 12.5794 3.14482 6.28967 -8.94961
122 1 14.1518 4.71718 7.86208 -8.94978
123 1 15.7242 3.14484 6.28968 -8.94963
124 1 17.2966 4.71727 7.86211 -8.94967
125 1 18.8691 3.14484 6.28969 -8.94964
126 1 20.4415 4.71726 7.86211 -8.94963
127 1 -1.9258e-07 6.28969 6.28969 -8.94963
128 1 1.57241 7.8621 7.8621 -8.94964
129 1 3.14484 6.28968 6.28968 -8.94967
130 1 4.71709 7.86209 7.8621 -8.95076
131 1 6.28957 6.28951 6.28957 -8.94865
132 1 7.85831 7.86109 7.85831 -9.00859
133 1 9.43452 6.28988 6.28991 -8.95157
134 1 11.01 7.86243 7.86123 -9.03062
135 1 12.5795 6.2893 6.28954 -8.95062
136 1 14.1529 7.86117 7.8614 -8.94775
137 1 15.7243 6.28963 6.28962 -8.94939
138 1 17.2967 7.86207 7.86207 -8.9497
139 1 18.8691 6.28968 6.28968 -8.94963
140 1 20.4415 7.86211 7.86211 -8.94965
141 1 -4.0264e-06 9.43453 6.28968 -8.94966
142 1 3.14471 9.43448 6.28963 -8.94983
143 1 6.28799 9.43321 6.28799 -8.94593
144 1 9.43233 9.43505 6.29212 -9.04439
145 1 12.5852 9.4287 6.28416 -8.97595
146 1 15.7245 9.43443 6.28959 -8.95044
147 1 18.8691 9.43453 6.28968 -8.94968
148 1 -2.54855e-10 9.25748e-16 9.43453 -8.94963
149 1 3.14484 7.41816e-16 9.43453 -8.94963
150 1 6.28969 1.01201e-15 9.43453 -8.94963
151 1 9.43453 1.16533e-15 9.43453 -8.94986
152 1 12.5794 9.61584e-16 9.43453 -8.94965
153 1 15.7242 1.10451e-15 9.43453 -8.94963
154 1 18.8691 1.01319e-15 9.43453 -8.94963
155 1 1.52354e-08 3.14484 9.43453 -8.94963
156 1 3.14484 3.14484 9.43453 -8.94962
157 1 6.28969 3.14485 9.43452 -8.94963
158 1 9.43452 3.1444 9.43452 -8.95204
159 1 12.5794 3.1448 9.43452 -8.94982
160 1 15.7242 3.14485 9.43453 -8.94962
161 1 18.8691 3.14484 9.43453 -8.94963
162 1 2.14048e-07 6.28969 9.43453 -8.94963
163 1 3.14484 6.28967 9.43453 -8.94952
164 1 6.28991 6.28988 9.43452 -8.95157
165 1 9.43448 6.28072 9.43448 -8.96886
166 1 12.5795 6.28896 9.43446 -8.95191
167 1 15.7242 6.28969 9.43453 -8.94957
168 1 18.8691 6.28969 9.43453 -8.94963
169 1 -8.56735e-06 9.43453 9.43453 -8.94964
170 1 3.14475 9.4344 9.43446 -8.948
171 1 6.29212 9.43505 9.43233 -9.04439
172 1 9.41473 9.3491 9.41473 -9.34997
173 1 12.5865 9.42909 9.43329 -9.03135
174 1 15.7254 9.43423 9.43445 -8.94999
175 1 18.8691 9.43453 9.43453 -8.94987
176 1 1.57242 1.57242 11.007 -8.94963
177 1 4.71727 1.57242 11.0069 -8.94964
178 1 7.8621 1.5724 11.007 -8.94964
179 1 11.007 1.57239 11.007 -8.9497
180 1 14.1518 1.57242 11.007 -8.94965
181 1 17.2966 1.57242 11.007 -8.94963
182 1 20.4415 1.57242 11.007 -8.94963
183 1 1.57242 4.71726 11.007 -8.94963
184 1 4.71726 4.71727 11.0069 -8.94968
185 1 7.86185 4.71695 11.0072 -8.94785
186 1 11.0072 4.71672 11.0072 -8.94834
187 1 14.1518 4.71721 11.007 -8.94975
188 1 17.2966 4.71727 11.0069 -8.94966
189 1 20.4415 4.71726 11.007 -8.94963
190 1 1.57242 7.8621 11.007 -8.94961
191 1 4.7173 7.86221 11.0067 -8.95104
192 1 7.86123 7.86243 11.01 -9.03062
193 1 11.0093 7.8607 11.0093 -9.05332
194 1 14.1527 7.86133 11.0076 -8.94883
195 1 17.2967 7.86208 11.007 -8.94974
196 1 20.4415 7.86211 11.007 -8.94965
197 1 -3.57296e-09 1.30326e-15 12.5794 -8.94963
198 1 1.57242 1.57242 14.1518 -8.94963
199 1 3.14484 7.86926e-16 12.5794 -8.94963
200 1 4.71726 1.57242 14.1518 -8.94963
201 1 6.28969 8.01014e-16 12.5794 -8.94964
202 1 7.86211 1.57242 14.1518 -8.94965
203 1 9.43453 1.02544e-15 12.5794 -8.94965
204 1 11.007 1.57242 14.1518 -8.94965
205 1 12.5794 7.20926e-16 12.5794 -8.94964
206 1 14.1518 1.57242 14.1518 -8.94963
207 1 15.7242 9.88192e-16 12.5794 -8.94963
208 1 17.2966 1.57242 14.1518 -8.94963
209 1 18.8691 9.81018e-16 12.5794 -8.94963
210 1 20.4415 1.57242 14.1518 -8.94963
211 1 2.85866e-08 3.14484 12.5794 -8.94963
212 1 1.57242 4.71726 14.1518 -8.94965
213 1 3.14484 3.14484 12.5794 -8.94964
214 1 4.71725 4.71724 14.1518 -8.94965
215 1 6.28967 3.14482 12.5794 -8.94961
216 1 7.86208 4.71718 14.1518 -8.94978
217 1 9.43452 3.1448 12.5794 -8.94982
218 1 11.007 4.71721 14.1518 -8.94975
219 1 12.5794 3.1448 12.5794 -8.94962
220 1 14.1518 4.71724 14.1518 -8.94951
221 1 15.7242 3.14484 12.5794 -8.94965
222 1 17.2966 4.71726 14.1518 -8.94961
223 1 18.8691 3.14484 12.5794 -8.94964
224 1 20.4415 4.71726 14.1518 -8.94963
225 1 -1.42778e-07 6.28969 12.5794 -8.94963
226 1 1.57241 7.8621 14.1518 -8.94967
227 1 3.14485 6.2897 12.5794 -8.94985
228 1 4.71686 7.86174 14.1522 -8.94703
229 1 6.28954 6.2893 12.5795 -8.95062
230 1 7.8614 7.86117 14.1529 -8.94775
231 1 9.43446 6.28896 12.5795 -8.95191
232 1 11.0076 7.86133 14.1527 -8.94883
233 1 12.5797 6.28914 12.5797 -8.9498
234 1 14.1519 7.86201 14.1519 -8.94867
235 1 15.7243 6.28962 12.5794 -8.94946
236 1 17.2966 7.86211 14.1518 -8.94963
237 1 18.8691 6.28968 12.5794 -8.94964
238 1 20.4415 7.86211 14.1518 -8.94963
239 1 -8.04941e-06 9.43453 12.5794 -8.94969
240 1 3.14455 9.43445 12.5795 -8.95054
241 1 6.28416 9.4287 12.5852 -8.97595
242 1 9.43329 9.42909 12.5865 -9.03135
243 1 12.5812 9.42983 12.5812 -9.01024
244 1 15.7243 9.43442 12.5795 -8.94909
245 1 18.8691 9.43453 12.5794 -8.94962
246 1 7.61486e-10 8.7451e-16 15.7242 -8.94963
247 1 1.57242 1.57242 17.2966 -8.94963
248 1 3.14484 1.27534e-15 15.7242 -8.94963
249 1 4.71726 1.57242 17.2966 -8.94963
250 1 6.28969 1.22011e-15 15.7242 -8.94963
251 1 7.86211 1.57242 17.2966 -8.94963
252 1 9.43453 1.16294e-15 15.7242 -8.94963
253 1 11.007 1.57242 17.2966 -8.94963
254 1 12.5794 9.89963e-16 15.7242 -8.94963
255 1 14.1518 1.57242 17.2966 -8.94963
256 1 15.7242 8.34122e-16 15.7242 -8.94963
257 1 17.2966 1.57242 17.2966 -8.94963
258 1 18.8691 1.25161e-15 15.7242 -8.94963
259 1 20.4415 1.57242 17.2966 -8.94963
260 1 -9.1102e-09 3.14484 15.7242 -8.94963
261 1 1.57242 4.71726 17.2966 -8.94963
262 1 3.14484 3.14484 15.7242 -8.94963
263 1 4.71726 4.71726 17.2966 -8.94962
264 1 6.28968 3.14484 15.7242 -8.94963
265 1 7.86211 4.71727 17.2966 -8.94967
266 1 9.43453 3.14485 15.7242 -8.94962
267 1 11.0069 4.71727 17.2966 -8.94966
268 1 12.5794 3.14484 15.7242 -8.94965
269 1 14.1518 4.71726 17.2966 -8.94961
270 1 15.7242 3.14484 15.7242 -8.94962
271 1 17.2966 4.71726 17.2966 -8.94963
272 1 18.8691 3.14484 15.7242 -8.94963
273 1 20.4415 4.71726 17.2966 -8.94963
274 1 -3.8528e-07 6.28969 15.7242 -8.94963
275 1 1.57242 7.86211 17.2966 -8.94965
276 1 3.14483 6.28967 15.7242 -8.94948
277 1 4.71726 7.8621 17.2966 -8.94967
278 1 6.28962 6.28963 15.7243 -8.94939
279 1 7.86207 7.86207 17.2967 -8.9497
280 1 9.43453 6.28969 15.7242 -8.94957
281 1 11.007 7.86208 17.2967 -8.94974
282 1 12.5794 6.28962 15.7243 -8.94946
283 1 14.1518 7.86211 17.2966 -8.94963
284 1 15.7242 6.28969 15.7242 -8.94962
285 1 17.2966 7.86211 17.2966 -8.94964
286 1 18.8691 6.28969 15.7242 -8.94963
287 1 20.4415 7.86211 17.2966 -8.94963
288 1 4.58653e-07 9.43453 15.7242 -8.94963
289 1 3.14486 9.43454 15.7242 -8.94978
290 1 6.28959 9.43443 15.7245 -8.95044
291 1 9.43445 9.43423 15.7254 -8.94999
292 1 12.5795 9.43442 15.7243 -8.94909
293 1 15.7242 9.43455 15.7242 -8.94984
294 1 18.8691 9.43453 15.7242 -8.94964
295 1 -1.25721e-10 1.35319e-15 18.8691 -8.94963
296 1 1.57242 1.57242 20.4415 -8.94963
297 1 3.14484 1.07843e-15 18.8691 -8.94963
298 1 4.71726 1.57242 20.4415 -8.94963
299 1 6.28969 8.54027e-16 18.8691 -8.94963
300 1 7.86211 1.57242 20.4415 -8.94963
301 1 9.43453 1.07474e-15 18.8691 -8.94963
302 1 11.007 1.57242 20.4415 -8.94963
303 1 12.5794 1.00102e-15 18.8691 -8.94963
304 1 14.1518 1.57242 20.4415 -8.94963
305 1 15.7242 1.23633e-15 18.8691 -8.94963
306 1 17.2966 1.57242 20.4415 -8.94963
307 1 18.8691 1.10298e-15 18.8691 -8.94963
308 1 20.4415 1.57242 20.4415 -8.94963
309 1 -2.96199e-09 3.14484 18.8691 -8.94963
310 1 1.57242 4.71726 20.4415 -8.94963
311 1 3.14484 3.14484 18.8691 -8.94963
312 1 4.71726 4.71726 20.4415 -8.94963
313 1 6.28969 3.14484 18.8691 -8.94964
314 1 7.86211 4.71726 20.4415 -8.94963
315 1 9.43453 3.14484 18.8691 -8.94963
316 1 11.007 4.71726 20.4415 -8.94963
317 1 12.5794 3.14484 18.8691 -8.94964
318 1 14.1518 4.71726 20.4415 -8.94963
319 1 15.7242 3.14484 18.8691 -8.94963
320 1 17.2966 4.71726 20.4415 -8.94963
321 1 18.8691 3.14484 18.8691 -8.94963
322 1 20.4415 4.71726 20.4415 -8.94963
323 1 1.6103e-08 6.28969 18.8691 -8.94963
324 1 1.57242 7.86211 20.4415 -8.94963
325 1 3.14484 6.28969 18.8691 -8.94963
326 1 4.71726 7.86211 20.4415 -8.94963
327 1 6.28968 6.28968 18.8691 -8.94963
328 1 7.86211 7.86211 20.4415 -8.94965
329 1 9.43453 6.28969 18.8691 -8.94963
330 1 11.007 7.86211 20.4415 -8.94965
331 1 12.5794 6.28968 18.8691 -8.94964
332 1 14.1518 7.86211 20.4415 -8.94963
333 1 15.7242 6.28969 18.8691 -8.94963
334 1 17.2966 7.86211 20.4415 -8.94963
335 1 18.8691 6.28969 18.8691 -8.94963
336 1 20.4415 7.86211 20.4415 -8.94963
337 1 -4.68979e-08 9.43453 18.8691 -8.94963
338 1 3.14484 9.43453 18.8691 -8.94963
339 1 6.28968 9.43453 18.8691 -8.94968
340 1 9.43453 9.43453 18.8691 -8.94987
341 1 12.5794 9.43453 18.8691 -8.94962
342 1 15.7242 9.43453 18.8691 -8.94964
343 1 18.8691 9.43453 18.8691 -8.94963
344 1 1.57242 11.007 1.57242 -8.94963
345 1 4.71727 11.007 1.57242 -8.94961
346 1 7.86211 11.007 1.57234 -8.95005
347 1 11.0069 11.007 1.57228 -8.95057
348 1 14.1518 11.007 1.57242 -8.94959
349 1 17.2966 11.007 1.57242 -8.94964
350 1 20.4415 11.007 1.57242 -8.94963
351 1 -2.33741e-08 12.5794 -2.33741e-08 -8.94963
352 1 1.57242 14.1518 1.57242 -8.94964
353 1 3.14484 12.5794 3.92264e-07 -8.94963
354 1 4.71726 14.1518 1.57242 -8.94963
355 1 6.28968 12.5794 -4.0264e-06 -8.94966
356 1 7.8621 14.1518 1.57241 -8.94964
357 1 9.43453 12.5794 -8.56735e-06 -8.94964
358 1 11.007 14.1518 1.57242 -8.94961
359 1 12.5794 12.5794 -8.04941e-06 -8.94969
360 1 14.1518 14.1518 1.57241 -8.94967
361 1 15.7242 12.5794 4.58653e-07 -8.94963
362 1 17.2966 14.1518 1.57242 -8.94965
363 1 18.8691 12.5794 -4.68979e-08 -8.94963
364 1 20.4415 14.1518 1.57242 -8.94963
365 1 1.10379e-08 15.7242 1.10379e-08 -8.94963
366 1 1.57242 17.2966 1.57242 -8.94963
367 1 3.14484 15.7242 -1.80163e-07 -8.94963
368 1 4.71726 17.2966 1.57242 -8.94963
369 1 6.28969 15.7242 -1.9258e-07 -8.94963
370 1 7.86211 17.2966 1.57242 -8.94964
371 1 9.43453 15.7242 2.14048e-07 -8.94963
372 1 11.007 17.2966 1.57242 -8.94963
373 1 12.5794 15.7242 -1.42778e-07 -8.94963
374 1 14.1518 17.2966 1.57242 -8.94965
375 1 15.7242 15.7242 -3.8528e-07 -8.94963
376 1 17.2966 17.2966 1.57242 -8.94963
377 1 18.8691 15.7242 1.6103e-08 -8.94963
378 1 20.4415 17.2966 1.57242 -8.94963
379 1 -1.8011e-09 18.8691 -1.8011e-09 -8.94963
380 1 1.57242 20.4415 1.57242 -8.94963
381 1 3.14484 18.8691 8.26365e-09 -8.94963
382 1 4.71726 20.4415 1.57242 -8.94963
383 1 6.28969 18.8691 -1.31177e-08 -8.94963
384 1 7.86211 20.4415 1.57242 -8.94963
385 1 9.43453 18.8691 1.52354e-08 -8.94963
386 1 11.007 20.4415 1.57242 -8.94963
387 1 12.5794 18.8691 2.85866e-08 -8.94963
388 1 14.1518 20.4415 1.57242 -8.94963
389 1 15.7242 18.8691 -9.1102e-09 -8.94963
390 1 17.2966 20.4415 1.57242 -8.94963
391 1 18.8691 18.8691 -2.96199e-09 -8.94963
392 1 20.4415 20.4415 1.57242 -8.94963
393 1 1.57242 11.007 4.71727 -8.94961
394 1 4.71728 11.007 4.71728 -8.94948
395 1 7.86194 11.007 4.71584 -8.95421
396 1 11.0065 11.007 4.71368 -8.97059
397 1 14.1518 11.007 4.71721 -8.94979
398 1 17.2966 11.007 4.71727 -8.94961
399 1 20.4415 11.007 4.71726 -8.94963
400 1 3.92264e-07 12.5794 3.14484 -8.94963
401 1 1.57242 14.1518 4.71726 -8.94963
402 1 3.14485 12.5794 3.14485 -8.9497
403 1 4.71715 14.1519 4.71715 -8.949
404 1 6.28963 12.5794 3.14471 -8.94983
405 1 7.8621 14.1518 4.71709 -8.95076
406 1 9.43446 12.5795 3.14475 -8.948
407 1 11.0067 14.1517 4.7173 -8.95104
408 1 12.5795 12.5794 3.14455 -8.95054
409 1 14.1522 14.1522 4.71686 -8.94703
410 1 15.7242 12.5794 3.14486 -8.94978
411 1 17.2966 14.1518 4.71726 -8.94967
412 1 18.8691 12.5794 3.14484 -8.94963
413 1 20.4415 14.1518 4.71726 -8.94963
414 1 -1.80163e-07 15.7242 3.14484 -8.94963
415 1 1.57242 17.2966 4.71726 -8.94963
416 1 3.14484 15.7242 3.14484 -8.94959
417 1 4.71726 17.2966 4.71726 -8.94961
418 1 6.28968 15.7242 3.14484 -8.94967
419 1 7.86211 17.2966 4.71726 -8.94981
420 1 9.43453 15.7242 3.14484 -8.94952
421 1 11.0069 17.2966 4.71726 -8.94968
422 1 12.5794 15.7242 3.14485 -8.94985
423 1 14.1518 17.2967 4.71725 -8.94965
424 1 15.7242 15.7242 3.14483 -8.94948
425 1 17.2966 17.2966 4.71726 -8.94962
426 1 18.8691 15.7242 3.14484 -8.94963
427 1 20.4415 17.2966 4.71726 -8.94963
428 1 8.26365e-09 18.8691 3.14484 -8.94963
429 1 1.57242 20.4415 4.71726 -8.94963
430 1 3.14484 18.8691 3.14484 -8.94963
431 1 4.71726 20.4415 4.71726 -8.94963
432 1 6.28969 18.8691 3.14484 -8.94964
433 1 7.86211 20.4415 4.71726 -8.94964
434 1 9.43453 18.8691 3.14484 -8.94962
435 1 11.0069 20.4415 4.71727 -8.94964
436 1 12.5794 18.8691 3.14484 -8.94964
437 1 14.1518 20.4415 4.71726 -8.94963
438 1 15.7242 18.8691 3.14484 -8.94963
439 1 17.2966 20.4415 4.71726 -8.94963
440 1 18.8691 18.8691 3.14484 -8.94963
441 1 20.4415 20.4415 4.71726 -8.94963
442 1 1.57234 11.007 7.86211 -8.95005
443 1 4.71584 11.007 7.86194 -8.95421
444 1 7.84865 11.007 7.84865 -9.01263
445 1 11.0429 11.007 7.78725 -9.28143
446 1 14.156 11.007 7.86154 -9.00866
447 1 17.2969 11.007 7.86207 -8.95048
448 1 20.4415 11.007 7.86211 -8.9497
449 1 -4.0264e-06 12.5794 6.28968 -8.94966
450 1 1.57241 14.1518 7.8621 -8.94964
451 1 3.14471 12.5794 6.28963 -8.94983
452 1 4.71709 14.1518 7.8621 -8.95076
453 1 6.28799 12.5807 6.28799 -8.94593
454 1 7.85831 14.1528 7.85831 -9.00859
455 1 9.43233 12.5789 6.29212 -9.04439
456 1 11.01 14.1515 7.86123 -9.03062
457 1 12.5852 12.5852 6.28416 -8.97595
458 1 14.1529 14.1527 7.8614 -8.94775
459 1 15.7245 12.5795 6.28959 -8.95044
460 1 17.2967 14.1518 7.86207 -8.9497
461 1 18.8691 12.5794 6.28968 -8.94968
462 1 20.4415 14.1518 7.86211 -8.94965
463 1 -1.9258e-07 15.7242 6.28969 -8.94963
464 1 1.57242 17.2966 7.86211 -8.94964
465 1 3.14484 15.7242 6.28968 -8.94967
466 1 4.71726 17.2966 7.86211 -8.94981
467 1 6.28957 15.7244 6.28957 -8.94865
468 1 7.86186 17.2968 7.86186 -8.94826
469 1 9.43452 15.724 6.28991 -8.95157
470 1 11.0072 17.297 7.86185 -8.94785
471 1 12.5795 15.7246 6.28954 -8.95062
472 1 14.1518 17.2967 7.86208 -8.94978
473 1 15.7243 15.7243 6.28962 -8.94939
474 1 17.2966 17.2966 7.86211 -8.94967
475 1 18.8691 15.7242 6.28968 -8.94963
476 1 20.4415 17.2966 7.86211 -8.94963
477 1 -1.31177e-08 18.8691 6.28969 -8.94963
478 1 1.57242 20.4415 7.86211 -8.94963
479 1 3.14484 18.8691 6.28969 -8.94964
480 1 4.71726 20.4415 7.86211 -8.94964
481 1 6.28968 18.8691 6.28968 -8.94957
482 1 7.8621 20.4415 7.8621 -8.94961
483 1 9.43452 18.869 6.28969 -8.94963
484 1 11.007 20.4415 7.8621 -8.94964
485 1 12.5794 18.8691 6.28967 -8.94961
486 1 14.1518 20.4415 7.86211 -8.94965
487 1 15.7242 18.8691 6.28968 -8.94963
488 1 17.2966 20.4415 7.86211 -8.94963
489 1 18.8691 18.8691 6.28969 -8.94964
490 1 20.4415 20.4415 7.86211 -8.94963
491 1 -8.56735e-06 12.5794 9.43453 -8.94964
492 1 3.14475 12.5795 9.43446 -8.948
493 1 6.29212 12.5789 9.43233 -9.04439
494 1 9.41473 12.6648 9.41473 -9.34997
495 1 12.5865 12.5848 9.43329 -9.03135
496 1 15.7254 12.5797 9.43445 -8.94999
497 1 18.8691 12.5794 9.43453 -8.94987
498 1 2.14048e-07 15.7242 9.43453 -8.94963
499 1 3.14484 15.7242 9.43453 -8.94952
500 1 6.28991 15.724 9.43452 -8.95157
501 1 9.43448 15.7332 9.43448 -8.96886
502 1 12.5795 15.7249 9.43446 -8.95191
503 1 15.7242 15.7242 9.43453 -8.94957
504 1 18.8691 15.7242 9.43453 -8.94963
505 1 1.52354e-08 18.8691 9.43453 -8.94963
506 1 3.14484 18.8691 9.43453 -8.94962
507 1 6.28969 18.869 9.43452 -8.94963
508 1 9.43452 18.8695 9.43452 -8.95204
509 1 12.5794 18.8691 9.43452 -8.94982
510 1 15.7242 18.8691 9.43453 -8.94962
511 1 18.8691 18.8691 9.43453 -8.94963
687 2 9.34175 11.007 10.3175 0.566178
688 2 10.3175 11.007 9.34175 0.566178
512 1 1.57228 11.007 11.0069 -8.95057
513 1 4.71368 11.007 11.0065 -8.97059
514 1 7.78725 11.007 11.0429 -9.28143
515 1 11.07 11.007 11.07 -9.32839
516 1 14.1579 11.007 11.0065 -9.01152
517 1 17.2969 11.007 11.007 -8.95105
518 1 20.4415 11.007 11.007 -8.94973
519 1 1.57242 14.1518 11.007 -8.94961
520 1 4.7173 14.1517 11.0067 -8.95104
521 1 7.86123 14.1515 11.01 -9.03062
522 1 11.0093 14.1532 11.0093 -9.05332
523 1 14.1527 14.1526 11.0076 -8.94883
524 1 17.2967 14.1518 11.007 -8.94974
525 1 20.4415 14.1518 11.007 -8.94965
526 1 1.57242 17.2966 11.007 -8.94963
527 1 4.71726 17.2966 11.0069 -8.94968
528 1 7.86185 17.297 11.0072 -8.94785
529 1 11.0072 17.2972 11.0072 -8.94834
530 1 14.1518 17.2967 11.007 -8.94975
531 1 17.2966 17.2966 11.0069 -8.94966
532 1 20.4415 17.2966 11.007 -8.94963
533 1 1.57242 20.4415 11.007 -8.94963
534 1 4.71727 20.4415 11.0069 -8.94964
535 1 7.8621 20.4415 11.007 -8.94964
536 1 11.007 20.4415 11.007 -8.9497
537 1 14.1518 20.4415 11.007 -8.94965
538 1 17.2966 20.4415 11.007 -8.94963
539 1 20.4415 20.4415 11.007 -8.94963
540 1 1.57242 11.007 14.1518 -8.94959
541 1 4.71721 11.007 14.1518 -8.94979
542 1 7.86154 11.007 14.156 -9.00866
543 1 11.0065 11.007 14.1579 -9.01152
544 1 14.1514 11.007 14.1514 -8.95199
545 1 17.2966 11.007 14.1518 -8.94958
546 1 20.4415 11.007 14.1518 -8.94963
547 1 -8.04941e-06 12.5794 12.5794 -8.94969
548 1 1.57241 14.1518 14.1518 -8.94967
549 1 3.14455 12.5794 12.5795 -8.95054
550 1 4.71686 14.1522 14.1522 -8.94703
551 1 6.28416 12.5852 12.5852 -8.97595
552 1 7.8614 14.1527 14.1529 -8.94775
553 1 9.43329 12.5848 12.5865 -9.03135
554 1 11.0076 14.1526 14.1527 -8.94883
555 1 12.5812 12.5841 12.5812 -9.01024
556 1 14.1519 14.1519 14.1519 -8.94867
557 1 15.7243 12.5795 12.5795 -8.94909
558 1 17.2966 14.1518 14.1518 -8.94963
559 1 18.8691 12.5794 12.5794 -8.94962
560 1 20.4415 14.1518 14.1518 -8.94963
561 1 -1.42778e-07 15.7242 12.5794 -8.94963
562 1 1.57242 17.2966 14.1518 -8.94965
563 1 3.14485 15.7242 12.5794 -8.94985
564 1 4.71725 17.2967 14.1518 -8.94965
565 1 6.28954 15.7246 12.5795 -8.95062
566 1 7.86208 17.2967 14.1518 -8.94978
567 1 9.43446 15.7249 12.5795 -8.95191
568 1 11.007 17.2967 14.1518 -8.94975
569 1 12.5797 15.7248 12.5797 -8.9498
570 1 14.1518 17.2967 14.1518 -8.94951
571 1 15.7243 15.7243 12.5794 -8.94946
572 1 17.2966 17.2966 14.1518 -8.94961
573 1 18.8691 15.7242 12.5794 -8.94964
574 1 20.4415 17.2966 14.1518 -8.94963
575 1 2.85866e-08 18.8691 12.5794 -8.94963
576 1 1.57242 20.4415 14.1518 -8.94963
577 1 3.14484 18.8691 12.5794 -8.94964
578 1 4.71726 20.4415 14.1518 -8.94963
579 1 6.28967 18.8691 12.5794 -8.94961
580 1 7.86211 20.4415 14.1518 -8.94965
581 1 9.43452 18.8691 12.5794 -8.94982
582 1 11.007 20.4415 14.1518 -8.94965
583 1 12.5794 18.8691 12.5794 -8.94962
584 1 14.1518 20.4415 14.1518 -8.94963
585 1 15.7242 18.8691 12.5794 -8.94965
586 1 17.2966 20.4415 14.1518 -8.94963
587 1 18.8691 18.8691 12.5794 -8.94964
588 1 20.4415 20.4415 14.1518 -8.94963
589 1 1.57242 11.007 17.2966 -8.94964
590 1 4.71727 11.007 17.2966 -8.94961
591 1 7.86207 11.007 17.2969 -8.95048
592 1 11.007 11.007 17.2969 -8.95105
593 1 14.1518 11.007 17.2966 -8.94958
594 1 17.2966 11.007 17.2966 -8.94962
595 1 20.4415 11.007 17.2966 -8.94963
596 1 4.58653e-07 12.5794 15.7242 -8.94963
597 1 1.57242 14.1518 17.2966 -8.94965
598 1 3.14486 12.5794 15.7242 -8.94978
599 1 4.71726 14.1518 17.2966 -8.94967
600 1 6.28959 12.5795 15.7245 -8.95044
601 1 7.86207 14.1518 17.2967 -8.9497
602 1 9.43445 12.5797 15.7254 -8.94999
603 1 11.007 14.1518 17.2967 -8.94974
604 1 12.5795 12.5795 15.7243 -8.94909
605 1 14.1518 14.1518 17.2966 -8.94963
606 1 15.7242 12.5794 15.7242 -8.94984
607 1 17.2966 14.1518 17.2966 -8.94964
608 1 18.8691 12.5794 15.7242 -8.94964
609 1 20.4415 14.1518 17.2966 -8.94963
610 1 -3.8528e-07 15.7242 15.7242 -8.94963
611 1 1.57242 17.2966 17.2966 -8.94963
612 1 3.14483 15.7242 15.7242 -8.94948
613 1 4.71726 17.2966 17.2966 -8.94962
614 1 6.28962 15.7243 15.7243 -8.94939
615 1 7.86211 17.2966 17.2966 -8.94967
616 1 9.43453 15.7242 15.7242 -8.94957
617 1 11.0069 17.2966 17.2966 -8.94966
618 1 12.5794 15.7243 15.7243 -8.94946
619 1 14.1518 17.2966 17.2966 -8.94961
620 1 15.7242 15.7242 15.7242 -8.94962
621 1 17.2966 17.2966 17.2966 -8.94963
622 1 18.8691 15.7242 15.7242 -8.94963
623 1 20.4415 17.2966 17.2966 -8.94963
624 1 -9.1102e-09 18.8691 15.7242 -8.94963
625 1 1.57242 20.4415 17.2966 -8.94963
626 1 3.14484 18.8691 15.7242 -8.94963
627 1 4.71726 20.4415 17.2966 -8.94963
628 1 6.28968 18.8691 15.7242 -8.94963
629 1 7.86211 20.4415 17.2966 -8.94963
630 1 9.43453 18.8691 15.7242 -8.94962
631 1 11.007 20.4415 17.2966 -8.94963
632 1 12.5794 18.8691 15.7242 -8.94965
633 1 14.1518 20.4415 17.2966 -8.94963
634 1 15.7242 18.8691 15.7242 -8.94962
635 1 17.2966 20.4415 17.2966 -8.94963
636 1 18.8691 18.8691 15.7242 -8.94963
637 1 20.4415 20.4415 17.2966 -8.94963
638 1 1.57242 11.007 20.4415 -8.94963
639 1 4.71726 11.007 20.4415 -8.94963
640 1 7.86211 11.007 20.4415 -8.9497
641 1 11.007 11.007 20.4415 -8.94973
642 1 14.1518 11.007 20.4415 -8.94963
643 1 17.2966 11.007 20.4415 -8.94963
644 1 20.4415 11.007 20.4415 -8.94963
645 1 -4.68979e-08 12.5794 18.8691 -8.94963
646 1 1.57242 14.1518 20.4415 -8.94963
647 1 3.14484 12.5794 18.8691 -8.94963
648 1 4.71726 14.1518 20.4415 -8.94963
649 1 6.28968 12.5794 18.8691 -8.94968
650 1 7.86211 14.1518 20.4415 -8.94965
651 1 9.43453 12.5794 18.8691 -8.94987
652 1 11.007 14.1518 20.4415 -8.94965
653 1 12.5794 12.5794 18.8691 -8.94962
654 1 14.1518 14.1518 20.4415 -8.94963
655 1 15.7242 12.5794 18.8691 -8.94964
656 1 17.2966 14.1518 20.4415 -8.94963
657 1 18.8691 12.5794 18.8691 -8.94963
658 1 20.4415 14.1518 20.4415 -8.94963
659 1 1.6103e-08 15.7242 18.8691 -8.94963
660 1 1.57242 17.2966 20.4415 -8.94963
661 1 3.14484 15.7242 18.8691 -8.94963
662 1 4.71726 17.2966 20.4415 -8.94963
663 1 6.28968 15.7242 18.8691 -8.94963
664 1 7.86211 17.2966 20.4415 -8.94963
665 1 9.43453 15.7242 18.8691 -8.94963
666 1 11.007 17.2966 20.4415 -8.94963
667 1 12.5794 15.7242 18.8691 -8.94964
668 1 14.1518 17.2966 20.4415 -8.94963
669 1 15.7242 15.7242 18.8691 -8.94963
670 1 17.2966 17.2966 20.4415 -8.94963
671 1 18.8691 15.7242 18.8691 -8.94963
672 1 20.4415 17.2966 20.4415 -8.94963
673 1 -2.96199e-09 18.8691 18.8691 -8.94963
674 1 1.57242 20.4415 20.4415 -8.94963
675 1 3.14484 18.8691 18.8691 -8.94963
676 1 4.71726 20.4415 20.4415 -8.94963
677 1 6.28969 18.8691 18.8691 -8.94964
678 1 7.86211 20.4415 20.4415 -8.94963
679 1 9.43453 18.8691 18.8691 -8.94963
680 1 11.007 20.4415 20.4415 -8.94963
681 1 12.5794 18.8691 18.8691 -8.94964
682 1 14.1518 20.4415 20.4415 -8.94963
683 1 15.7242 18.8691 18.8691 -8.94963
684 1 17.2966 20.4415 20.4415 -8.94963
685 1 18.8691 18.8691 18.8691 -8.94963
686 1 20.4415 20.4415 20.4415 -8.94963
