ITEM: TIMESTEP
36
ITEM: NUMBER OF ATOMS
688
ITEM: BOX BOUNDS pp pp pp
0.0000000000000000e+00 2.2013900999999997e+01
0.0000000000000000e+00 2.2013900999999997e+01
0.0000000000000000e+00 2.2013900999999997e+01
ITEM: ATOMS id type x y z c_pot
175 1 18.8698 9.43426 9.43448 -8.94978
2 1 1.5724 1.57241 1.5724 -8.94959
174 1 15.7273 9.43326 9.43384 -8.94809
4 1 4.71726 1.57241 1.5724 -8.94967
191 1 4.71621 7.8619 11.0062 -8.95071
6 1 7.8621 1.5724 1.57239 -8.94962
7 1 9.43453 1.83654e-15 -7.39223e-06 -8.94963
8 1 11.0069 1.57239 1.57239 -8.94963
173 1 12.5856 9.43152 9.42996 -9.03235
10 1 14.1518 1.5724 1.5724 -8.94964
11 1 15.7242 1.21553e-15 -4.79375e-06 -8.94964
12 1 17.2967 1.57238 1.57239 -8.94961
172 1 9.41634 9.35455 9.41634 -9.3701
14 1 20.4415 1.57241 1.57242 -8.94963
171 1 6.29053 9.43319 9.43075 -9.04088
16 1 1.57238 4.71722 1.57238 -8.94958
190 1 1.572 7.86187 11.0068 -8.94931
18 1 4.7172 4.71718 1.57231 -8.94964
170 1 3.14357 9.43366 9.43378 -8.94668
20 1 7.86209 4.71716 1.57232 -8.9496
169 1 22.0137 9.43433 9.43441 -8.94958
22 1 11.0069 4.71715 1.5723 -8.94962
168 1 18.8693 6.2895 9.43456 -8.94957
24 1 14.1518 4.71717 1.57233 -8.94981
25 1 15.7242 3.14482 -1.21565e-05 -8.94968
26 1 17.2968 4.71709 1.57225 -8.9493
167 1 15.7249 6.28894 9.43463 -8.94906
28 1 20.4415 4.71723 1.57238 -8.94961
184 1 4.71688 4.71695 11.0069 -8.94957
30 1 1.57237 7.86208 1.57237 -8.94964
166 1 12.5796 6.28849 9.43453 -8.95074
32 1 4.71708 7.86198 1.57217 -8.9497
165 1 9.43428 6.27349 9.43428 -8.97183
34 1 7.86191 7.86184 1.57197 -8.94961
164 1 6.28988 6.28904 9.4349 -8.95096
36 1 11.0068 7.86187 1.572 -8.94931
37 1 12.5794 6.28959 -6.69646e-05 -8.94958
38 1 14.1523 7.86161 1.57148 -8.94985
163 1 3.14454 6.2893 9.43444 -8.94925
40 1 17.2968 7.86204 1.57225 -8.94966
180 1 14.1519 1.57229 11.007 -8.94966
42 1 20.4415 7.8621 1.57238 -8.94962
162 1 22.0138 6.28957 9.43451 -8.94959
177 1 4.71716 1.57233 11.0069 -8.94959
161 1 18.8691 3.14479 9.43453 -8.94963
160 1 15.7244 3.14459 9.43454 -8.94958
159 1 12.5795 3.14433 9.43451 -8.94942
158 1 9.43451 3.14206 9.43451 -8.95431
157 1 6.28949 3.14447 9.43457 -8.94926
50 1 22.0139 1.37308e-15 3.14484 -8.94965
51 1 1.5724 1.57241 4.71726 -8.94967
52 1 3.14479 1.11065e-15 3.14479 -8.94957
53 1 4.71712 1.57228 4.71712 -8.94953
54 1 6.28969 1.0686e-15 3.14481 -8.94965
55 1 7.86211 1.57236 4.71718 -8.94959
56 1 9.43452 1.10248e-15 3.1448 -8.94965
57 1 11.0069 1.57233 4.71716 -8.94959
58 1 12.5794 1.88038e-15 3.1448 -8.94963
59 1 14.1519 1.57223 4.71713 -8.94966
60 1 15.7243 1.94365e-15 3.14479 -8.94962
61 1 17.2967 1.57238 4.71724 -8.94964
62 1 18.8691 1.47627e-15 3.14483 -8.94963
63 1 20.4415 1.57241 4.71726 -8.94964
64 1 22.0139 3.14482 3.14483 -8.94963
65 1 1.57231 4.71718 4.7172 -8.94964
66 1 3.14475 3.14473 3.14475 -8.94947
67 1 4.71682 4.71674 4.71682 -8.94898
68 1 6.28968 3.14478 3.14476 -8.94978
69 1 7.86215 4.7171 4.71701 -8.95016
70 1 9.4345 3.14472 3.14473 -8.94961
71 1 11.0069 4.71695 4.71688 -8.94957
72 1 12.5793 3.14473 3.14472 -8.94963
73 1 14.1522 4.71635 4.71677 -8.94986
74 1 15.7243 3.14462 3.1447 -8.94961
75 1 17.2968 4.71705 4.71714 -8.94958
76 1 18.8691 3.1448 3.14481 -8.94963
77 1 20.4415 4.71721 4.71723 -8.9496
78 1 22.0139 6.28963 3.14478 -8.94964
79 1 1.57217 7.86198 4.71708 -8.9497
80 1 3.14462 6.28948 3.14462 -8.94938
81 1 4.71632 7.86138 4.71632 -8.9486
82 1 6.28945 6.28941 3.14433 -8.94979
83 1 7.86147 7.86147 4.71574 -8.95119
84 1 9.43444 6.2893 3.14454 -8.94925
85 1 11.0062 7.8619 4.71621 -8.95071
86 1 12.5792 6.28941 3.1445 -8.9501
87 1 14.1553 7.85859 4.71359 -8.94358
88 1 15.725 6.28883 3.14397 -8.94814
89 1 17.2976 7.86161 4.71672 -8.94987
90 1 18.8693 6.28954 3.14469 -8.94961
91 1 20.4416 7.86203 4.71717 -8.94978
92 1 22.0139 9.43451 3.14478 -8.94961
93 1 3.1446 9.43446 3.1446 -8.94958
94 1 6.28916 9.43436 3.14387 -8.95041
95 1 9.43378 9.43366 3.14357 -8.94668
96 1 12.5806 9.43339 3.14143 -8.95166
97 1 15.7249 9.43429 3.14412 -8.94942
98 1 18.8693 9.43449 3.14469 -8.94956
99 1 22.0139 1.15997e-15 6.28968 -8.94963
100 1 1.57239 1.5724 7.8621 -8.94962
101 1 3.14481 1.01979e-15 6.28969 -8.94965
102 1 4.71718 1.57236 7.86211 -8.94959
103 1 6.28953 8.45132e-16 6.28953 -8.94973
104 1 7.86185 1.57188 7.86185 -8.94997
105 1 9.43453 2.10382e-15 6.28957 -8.94951
106 1 11.0072 1.57193 7.86186 -8.94971
107 1 12.5795 1.65083e-15 6.28954 -8.94975
108 1 14.1519 1.57227 7.86209 -8.9497
109 1 15.7243 1.55241e-15 6.28967 -8.94967
110 1 17.2967 1.57237 7.8621 -8.94962
111 1 18.8691 6.78994e-16 6.28968 -8.94963
112 1 20.4415 1.57241 7.86211 -8.94963
113 1 22.0139 3.14482 6.28968 -8.94963
114 1 1.57232 4.71716 7.86209 -8.9496
115 1 3.14476 3.14478 6.28968 -8.94978
116 1 4.71701 4.7171 7.86215 -8.95016
117 1 6.28919 3.14414 6.28919 -8.94936
118 1 7.86062 4.7146 7.86062 -8.94817
119 1 9.43457 3.14447 6.28949 -8.94926
120 1 11.0083 4.71514 7.86085 -8.94666
121 1 12.5797 3.14407 6.28926 -8.94966
122 1 14.1523 4.71657 7.86209 -8.95014
123 1 15.7244 3.14461 6.28963 -8.9497
124 1 17.2969 4.71704 7.86209 -8.94964
125 1 18.8691 3.14479 6.28967 -8.94964
126 1 20.4415 4.7172 7.8621 -8.94962
127 1 22.0138 6.28959 6.28962 -8.94963
128 1 1.57197 7.86184 7.86191 -8.94961
129 1 3.14433 6.28941 6.28945 -8.94979
130 1 4.71574 7.86147 7.86147 -8.95119
131 1 6.28787 6.28781 6.28787 -8.94698
132 1 7.85545 7.85663 7.85545 -9.00979
133 1 9.4349 6.28904 6.28988 -8.95096
134 1 11.0128 7.86087 7.85838 -9.03267
135 1 12.5808 6.2871 6.28829 -8.9516
136 1 14.1551 7.85999 7.86119 -8.94809
137 1 15.7251 6.28891 6.28928 -8.94924
138 1 17.2978 7.86149 7.86189 -8.94948
139 1 18.8693 6.28949 6.28958 -8.94952
140 1 20.4416 7.86195 7.86203 -8.94971
141 1 22.0138 9.43449 6.2896 -8.94989
142 1 3.14387 9.43436 6.28916 -8.95041
143 1 6.28596 9.43308 6.28596 -8.94725
144 1 9.43075 9.43319 6.29053 -9.04088
145 1 12.5932 9.42361 6.27552 -8.97354
146 1 15.7276 9.43349 6.2882 -8.95202
147 1 18.8698 9.43441 6.2895 -8.95017
148 1 -7.39223e-06 9.3506e-16 9.43453 -8.94963
149 1 3.1448 8.09808e-16 9.43452 -8.94965
150 1 6.28957 1.97508e-15 9.43453 -8.94951
151 1 9.43452 2.1379e-15 9.43452 -8.95091
152 1 12.5795 1.73308e-15 9.43452 -8.94957
153 1 15.7243 1.01649e-15 9.43453 -8.94966
154 1 18.8691 1.2298e-15 9.43453 -8.94963
155 1 22.0139 3.14481 9.43453 -8.94963
156 1 3.14473 3.14472 9.4345 -8.94961
182 1 20.4415 1.57241 11.007 -8.94963
176 1 1.57239 1.57239 11.0069 -8.94963
343 1 18.8691 9.43453 18.8691 -8.94963
178 1 7.86186 1.57193 11.0072 -8.94971
179 1 11.0072 1.57188 11.0072 -8.94978
342 1 15.7243 9.43453 18.8691 -8.94961
341 1 12.5796 9.43436 18.8695 -8.94992
47 1 12.5795 9.43438 22.0133 -8.95025
183 1 1.5723 4.71715 11.0069 -8.94962
340 1 9.43448 9.43426 18.8698 -8.94978
185 1 7.86085 4.71514 11.0083 -8.94666
186 1 11.0082 4.71492 11.0082 -8.9472
187 1 14.1523 4.71671 11.007 -8.94983
339 1 6.2895 9.43441 18.8698 -8.95017
338 1 3.14469 9.43449 18.8693 -8.94956
337 1 22.0139 9.43453 18.8691 -8.94964
336 1 20.4415 7.86211 20.4415 -8.94963
192 1 7.85838 7.86087 11.0128 -9.03267
193 1 11.0108 7.85943 11.0108 -9.0551
194 1 14.1537 7.86107 11.007 -8.95004
195 1 17.2974 7.86172 11.0071 -8.94947
196 1 20.4416 7.86198 11.007 -8.9496
197 1 22.0139 8.40894e-16 12.5794 -8.94963
198 1 1.5724 1.5724 14.1518 -8.94964
199 1 3.1448 1.82478e-15 12.5794 -8.94963
200 1 4.71713 1.57223 14.1519 -8.94966
201 1 6.28954 1.37603e-15 12.5795 -8.94975
202 1 7.86209 1.57227 14.1519 -8.9497
203 1 9.43452 1.48914e-15 12.5795 -8.94957
204 1 11.007 1.57229 14.1519 -8.94966
205 1 12.5795 1.30433e-15 12.5795 -8.94973
206 1 14.1519 1.57225 14.1519 -8.94958
207 1 15.7243 1.37914e-15 12.5794 -8.94966
208 1 17.2967 1.57238 14.1518 -8.94965
209 1 18.8691 1.41347e-15 12.5794 -8.94963
210 1 20.4415 1.57241 14.1518 -8.94963
211 1 22.0139 3.14481 12.5794 -8.94963
212 1 1.57233 4.71717 14.1518 -8.94981
213 1 3.14472 3.14473 12.5793 -8.94963
214 1 4.71677 4.71635 14.1522 -8.94986
215 1 6.28926 3.14407 12.5797 -8.94966
216 1 7.86209 4.71657 14.1523 -8.95014
217 1 9.43451 3.14433 12.5795 -8.94942
218 1 11.007 4.71671 14.1523 -8.94983
219 1 12.5798 3.14406 12.5798 -8.94955
220 1 14.1522 4.71655 14.1522 -8.94947
221 1 15.7244 3.14466 12.5794 -8.94969
222 1 17.2968 4.71711 14.1519 -8.94967
223 1 18.8691 3.14479 12.5794 -8.94962
224 1 20.4415 4.71722 14.1518 -8.94963
225 1 -6.69646e-05 6.28959 12.5794 -8.94958
226 1 1.57148 7.86161 14.1523 -8.94985
227 1 3.1445 6.28941 12.5792 -8.9501
228 1 4.71359 7.85859 14.1553 -8.94358
229 1 6.28829 6.2871 12.5808 -8.9516
230 1 7.86119 7.85999 14.1551 -8.94809
231 1 9.43453 6.28849 12.5796 -8.95074
232 1 11.007 7.86107 14.1537 -8.95004
233 1 12.5806 6.28735 12.5806 -8.95053
234 1 14.1538 7.86009 14.1538 -8.9463
235 1 15.7248 6.28917 12.5796 -8.94982
236 1 17.2973 7.86173 14.1522 -8.94962
237 1 18.8692 6.28954 12.5794 -8.94959
238 1 20.4414 7.86199 14.1519 -8.9498
239 1 22.0133 9.43438 12.5795 -8.95025
240 1 3.14143 9.43339 12.5806 -8.95166
241 1 6.27552 9.42361 12.5932 -8.97354
242 1 9.42996 9.43152 12.5856 -9.03235
243 1 12.5858 9.42639 12.5858 -9.00942
244 1 15.7265 9.43351 12.5805 -8.9496
245 1 18.8695 9.43436 12.5796 -8.94992
246 1 -4.79375e-06 1.55039e-15 15.7242 -8.94964
247 1 1.57239 1.57238 17.2967 -8.94961
248 1 3.14479 1.54038e-15 15.7243 -8.94962
249 1 4.71724 1.57238 17.2967 -8.94964
250 1 6.28967 1.19917e-15 15.7243 -8.94967
251 1 7.8621 1.57237 17.2967 -8.94962
252 1 9.43453 7.63048e-16 15.7243 -8.94966
253 1 11.007 1.57237 17.2967 -8.94962
254 1 12.5794 1.34844e-15 15.7243 -8.94966
255 1 14.1518 1.57238 17.2967 -8.94965
256 1 15.7243 1.5688e-15 15.7243 -8.94959
257 1 17.2967 1.5724 17.2967 -8.9496
258 1 18.8691 1.30991e-15 15.7242 -8.94964
259 1 20.4415 1.57241 17.2966 -8.94964
260 1 -1.21565e-05 3.14482 15.7242 -8.94968
261 1 1.57225 4.71709 17.2968 -8.9493
262 1 3.1447 3.14462 15.7243 -8.94961
263 1 4.71714 4.71705 17.2968 -8.94958
264 1 6.28963 3.14461 15.7244 -8.9497
265 1 7.86209 4.71704 17.2969 -8.94964
266 1 9.43454 3.14459 15.7244 -8.94958
267 1 11.007 4.71706 17.2969 -8.94955
268 1 12.5794 3.14466 15.7244 -8.94969
269 1 14.1519 4.71711 17.2968 -8.94967
270 1 15.7243 3.14469 15.7243 -8.94954
271 1 17.2967 4.71717 17.2967 -8.94947
272 1 18.8691 3.14481 15.7242 -8.94964
273 1 20.4415 4.71722 17.2967 -8.94959
274 1 22.0137 6.28953 15.7244 -8.94961
275 1 1.57225 7.86204 17.2968 -8.94966
276 1 3.14397 6.28883 15.725 -8.94814
277 1 4.71672 7.86161 17.2976 -8.94987
278 1 6.28928 6.28891 15.7251 -8.94924
279 1 7.86189 7.86149 17.2978 -8.94948
280 1 9.43463 6.28894 15.7249 -8.94906
281 1 11.0071 7.86172 17.2974 -8.94947
282 1 12.5796 6.28917 15.7248 -8.94982
283 1 14.1522 7.86173 17.2973 -8.94962
284 1 15.7247 6.28923 15.7247 -8.94886
285 1 17.2967 7.8621 17.2967 -8.94977
286 1 18.8692 6.28957 15.7243 -8.9496
287 1 20.4415 7.8621 17.2967 -8.94963
288 1 22.0137 9.4345 15.7243 -8.94956
289 1 3.14412 9.43429 15.7249 -8.94942
290 1 6.2882 9.43349 15.7276 -8.95202
291 1 9.43384 9.43326 15.7273 -8.94809
292 1 12.5805 9.43351 15.7265 -8.9496
293 1 15.7245 9.43454 15.7245 -8.95007
294 1 18.8691 9.43453 15.7243 -8.94961
295 1 22.0139 1.44808e-15 18.8691 -8.94962
296 1 1.57242 1.57241 20.4415 -8.94963
297 1 3.14483 1.64396e-15 18.8691 -8.94963
298 1 4.71726 1.57241 20.4415 -8.94964
299 1 6.28968 2.79473e-16 18.8691 -8.94963
300 1 7.86211 1.57241 20.4415 -8.94963
301 1 9.43453 1.16363e-15 18.8691 -8.94963
302 1 11.007 1.57241 20.4415 -8.94963
303 1 12.5794 1.01674e-15 18.8691 -8.94963
304 1 14.1518 1.57241 20.4415 -8.94963
305 1 15.7242 1.59381e-15 18.8691 -8.94964
306 1 17.2966 1.57241 20.4415 -8.94964
307 1 18.8691 1.73378e-15 18.8691 -8.94963
308 1 20.4415 1.57241 20.4415 -8.9496
309 1 22.0139 3.14481 18.8691 -8.94956
310 1 1.57238 4.71723 20.4415 -8.94961
311 1 3.14481 3.1448 18.8691 -8.94963
312 1 4.71723 4.71721 20.4415 -8.9496
313 1 6.28967 3.14479 18.8691 -8.94964
314 1 7.8621 4.7172 20.4415 -8.94962
315 1 9.43453 3.14479 18.8691 -8.94963
316 1 11.007 4.7172 20.4415 -8.94962
317 1 12.5794 3.14479 18.8691 -8.94962
318 1 14.1518 4.71722 20.4415 -8.94963
319 1 15.7242 3.14481 18.8691 -8.94964
320 1 17.2967 4.71722 20.4415 -8.94959
321 1 18.8691 3.14482 18.8691 -8.94959
322 1 20.4415 4.71726 20.4415 -8.94965
323 1 22.0139 6.28967 18.8691 -8.94966
324 1 1.57238 7.8621 20.4415 -8.94962
325 1 3.14469 6.28954 18.8693 -8.94961
326 1 4.71717 7.86203 20.4416 -8.94978
327 1 6.28958 6.28949 18.8693 -8.94952
328 1 7.86203 7.86195 20.4416 -8.94971
329 1 9.43456 6.2895 18.8693 -8.94957
330 1 11.007 7.86198 20.4416 -8.9496
331 1 12.5794 6.28954 18.8692 -8.94959
332 1 14.1519 7.86199 20.4414 -8.9498
333 1 15.7243 6.28957 18.8692 -8.9496
334 1 17.2967 7.8621 20.4415 -8.94963
335 1 18.8691 6.28968 18.8691 -8.94967
1 1 22.0139 1.5594e-15 22.0139 -8.94962
3 1 3.14484 1.30734e-15 22.0139 -8.94965
9 1 12.5794 1.02352e-15 22.0139 -8.94963
13 1 18.8691 1.64545e-15 22.0139 -8.94962
15 1 22.0139 3.14483 22.0139 -8.94961
19 1 6.28968 3.14482 22.0139 -8.94963
21 1 9.43453 3.14481 22.0139 -8.94963
23 1 12.5794 3.14481 22.0139 -8.94963
27 1 18.8691 3.14481 22.0139 -8.94956
31 1 3.14478 6.28963 22.0139 -8.94964
33 1 6.28962 6.28959 22.0138 -8.94963
35 1 9.43451 6.28957 22.0138 -8.94959
39 1 15.7244 6.28953 22.0137 -8.94961
43 1 22.0139 9.43453 22.0139 -8.94964
45 1 6.2896 9.43449 22.0138 -8.94989
46 1 9.43441 9.43433 22.0137 -8.94958
5 1 6.28968 1.5061e-15 22.0139 -8.94963
17 1 3.14483 3.14482 22.0139 -8.94963
29 1 22.0139 6.28968 22.0139 -8.94964
189 1 20.4415 4.7172 11.007 -8.94962
188 1 17.2969 4.71706 11.007 -8.94955
41 1 18.8691 6.28967 22.0139 -8.94966
181 1 17.2967 1.57237 11.007 -8.94962
44 1 3.14478 9.43451 22.0139 -8.94961
48 1 15.7243 9.4345 22.0137 -8.94956
49 1 18.8691 9.43453 22.0139 -8.94964
344 1 1.57237 11.007 1.57237 -8.94964
345 1 4.71707 11.007 1.57213 -8.94953
346 1 7.86206 11.007 1.57191 -8.95008
347 1 11.0068 11.007 1.57045 -8.95252
348 1 14.1522 11.007 1.57151 -8.94945
349 1 17.2968 11.007 1.57225 -8.94962
350 1 20.4415 11.007 1.57238 -8.94962
688 2 10.3158 11.007 9.35228 0.556868
352 1 1.57237 14.1518 1.57237 -8.94964
537 1 14.1519 20.4416 11.007 -8.94966
354 1 4.71708 14.1519 1.57217 -8.9497
687 2 9.35228 11.007 10.3158 0.556868
356 1 7.86191 14.1521 1.57197 -8.94961
511 1 18.8691 18.8691 9.43453 -8.94963
358 1 11.0068 14.152 1.572 -8.94931
510 1 15.7244 18.8693 9.43454 -8.94958
360 1 14.1523 14.1523 1.57148 -8.94985
534 1 4.71716 20.4416 11.0069 -8.94959
362 1 17.2968 14.1519 1.57225 -8.94966
527 1 4.71688 17.297 11.0069 -8.94957
364 1 20.4415 14.1518 1.57238 -8.94962
520 1 4.71621 14.152 11.0062 -8.95071
366 1 1.57238 17.2967 1.57238 -8.94958
509 1 12.5795 18.8696 9.43451 -8.94942
368 1 4.7172 17.2967 1.57231 -8.94964
508 1 9.43451 18.8718 9.43451 -8.95431
370 1 7.86209 17.2967 1.57232 -8.9496
507 1 6.28949 18.8694 9.43457 -8.94926
372 1 11.0069 17.2968 1.5723 -8.94962
373 1 12.5794 15.7243 -6.69646e-05 -8.94958
374 1 14.1518 17.2967 1.57233 -8.94981
506 1 3.14473 18.8692 9.4345 -8.94961
376 1 17.2968 17.2968 1.57225 -8.9493
519 1 1.572 14.152 11.0068 -8.94931
378 1 20.4415 17.2967 1.57238 -8.94961
505 1 22.0139 18.8691 9.43453 -8.94963
380 1 1.5724 20.4415 1.5724 -8.94959
516 1 14.1634 11.007 11.0066 -9.01381
382 1 4.71726 20.4415 1.5724 -8.94967
504 1 18.8693 15.7244 9.43456 -8.94957
384 1 7.8621 20.4415 1.57239 -8.94962
503 1 15.7249 15.725 9.43463 -8.94906
386 1 11.0069 20.4415 1.57239 -8.94963
502 1 12.5796 15.7254 9.43453 -8.95074
388 1 14.1518 20.4415 1.5724 -8.94964
389 1 15.7242 18.8691 -1.21565e-05 -8.94968
390 1 17.2967 20.4415 1.57239 -8.94961
501 1 9.43428 15.7404 9.43428 -8.97183
392 1 20.4415 20.4415 1.57242 -8.94963
393 1 1.57213 11.007 4.71707 -8.94953
394 1 4.71633 11.007 4.71633 -8.94824
395 1 7.86182 11.007 4.71485 -8.95348
396 1 11.0075 11.007 4.70595 -8.97438
397 1 14.1544 11.007 4.71418 -8.94729
398 1 17.2975 11.007 4.71674 -8.94932
399 1 20.4416 11.007 4.71715 -8.94969
400 1 22.0139 12.5794 3.14478 -8.94961
401 1 1.57217 14.1519 4.71708 -8.9497
402 1 3.1446 12.5794 3.1446 -8.94958
403 1 4.71632 14.1525 4.71632 -8.9486
404 1 6.28916 12.5795 3.14387 -8.95041
405 1 7.86147 14.1524 4.71574 -8.95119
406 1 9.43378 12.5802 3.14357 -8.94668
407 1 11.0062 14.152 4.71621 -8.95071
408 1 12.5806 12.5805 3.14143 -8.95166
409 1 14.1553 14.1553 4.71359 -8.94358
410 1 15.7249 12.5796 3.14412 -8.94942
411 1 17.2976 14.1523 4.71672 -8.94987
412 1 18.8693 12.5794 3.14469 -8.94956
413 1 20.4416 14.1519 4.71717 -8.94978
414 1 22.0139 15.7243 3.14478 -8.94964
415 1 1.57231 17.2967 4.7172 -8.94964
416 1 3.14462 15.7244 3.14462 -8.94938
417 1 4.71682 17.2972 4.71682 -8.94898
418 1 6.28945 15.7245 3.14433 -8.94979
419 1 7.86215 17.2968 4.71701 -8.95016
420 1 9.43444 15.7246 3.14454 -8.94925
421 1 11.0069 17.297 4.71688 -8.94957
422 1 12.5792 15.7245 3.1445 -8.9501
423 1 14.1522 17.2976 4.71677 -8.94986
424 1 15.725 15.7251 3.14397 -8.94814
425 1 17.2968 17.2968 4.71714 -8.94958
426 1 18.8693 15.7244 3.14469 -8.94961
427 1 20.4415 17.2967 4.71723 -8.9496
428 1 22.0139 18.8691 3.14483 -8.94963
429 1 1.5724 20.4415 4.71726 -8.94967
430 1 3.14475 18.8692 3.14475 -8.94947
431 1 4.71712 20.4416 4.71712 -8.94953
432 1 6.28968 18.8691 3.14476 -8.94978
433 1 7.86211 20.4415 4.71718 -8.94959
434 1 9.4345 18.8692 3.14473 -8.94961
435 1 11.0069 20.4416 4.71716 -8.94959
436 1 12.5793 18.8692 3.14472 -8.94963
437 1 14.1519 20.4417 4.71713 -8.94966
438 1 15.7243 18.8693 3.1447 -8.94961
439 1 17.2967 20.4415 4.71724 -8.94964
440 1 18.8691 18.8691 3.14481 -8.94963
441 1 20.4415 20.4415 4.71726 -8.94964
442 1 1.57191 11.007 7.86206 -8.95008
443 1 4.71485 11.007 7.86182 -8.95348
444 1 7.84967 11.007 7.84967 -9.01041
445 1 11.0455 11.007 7.77595 -9.26975
446 1 14.1602 11.007 7.85865 -9.00954
447 1 17.2986 11.007 7.86195 -8.95092
448 1 20.4418 11.007 7.86208 -8.94991
449 1 22.0138 12.5794 6.2896 -8.94989
450 1 1.57197 14.1521 7.86191 -8.94961
451 1 3.14387 12.5795 6.28916 -8.95041
452 1 4.71574 14.1524 7.86147 -8.95119
453 1 6.28596 12.5808 6.28596 -8.94725
454 1 7.85545 14.1573 7.85545 -9.00979
455 1 9.43075 12.5807 6.29053 -9.04088
456 1 11.0128 14.153 7.85838 -9.03267
457 1 12.5932 12.5903 6.27552 -8.97354
458 1 14.1551 14.1539 7.86119 -8.94809
459 1 15.7276 12.5804 6.2882 -8.95202
460 1 17.2978 14.1524 7.86189 -8.94948
461 1 18.8698 12.5795 6.2895 -8.95017
462 1 20.4416 14.1519 7.86203 -8.94971
463 1 22.0138 15.7243 6.28962 -8.94963
464 1 1.57232 17.2967 7.86209 -8.9496
465 1 3.14433 15.7245 6.28945 -8.94979
466 1 4.71701 17.2968 7.86215 -8.95016
467 1 6.28787 15.7261 6.28787 -8.94698
468 1 7.86062 17.2993 7.86062 -8.94817
469 1 9.4349 15.7249 6.28988 -8.95096
470 1 11.0083 17.2988 7.86085 -8.94666
471 1 12.5808 15.7268 6.28829 -8.9516
472 1 14.1523 17.2973 7.86209 -8.95014
473 1 15.7251 15.725 6.28928 -8.94924
474 1 17.2969 17.2969 7.86209 -8.94964
475 1 18.8693 15.7244 6.28958 -8.94952
476 1 20.4415 17.2967 7.8621 -8.94962
477 1 22.0139 18.8691 6.28968 -8.94963
478 1 1.57239 20.4415 7.8621 -8.94962
479 1 3.14476 18.8691 6.28968 -8.94978
480 1 4.71718 20.4415 7.86211 -8.94959
481 1 6.28919 18.8698 6.28919 -8.94936
482 1 7.86185 20.442 7.86185 -8.94997
483 1 9.43457 18.8694 6.28949 -8.94926
484 1 11.0072 20.442 7.86186 -8.94971
485 1 12.5797 18.8698 6.28926 -8.94966
486 1 14.1519 20.4416 7.86209 -8.9497
487 1 15.7244 18.8693 6.28963 -8.9497
488 1 17.2967 20.4415 7.8621 -8.94962
489 1 18.8691 18.8691 6.28967 -8.94964
490 1 20.4415 20.4415 7.86211 -8.94963
491 1 22.0137 12.5796 9.43441 -8.94958
492 1 3.14357 12.5802 9.43378 -8.94668
493 1 6.29053 12.5807 9.43075 -9.04088
494 1 9.41634 12.6593 9.41634 -9.3701
495 1 12.5856 12.5824 9.42996 -9.03235
496 1 15.7273 12.5806 9.43384 -8.94809
497 1 18.8698 12.5796 9.43448 -8.94978
498 1 22.0138 15.7243 9.43451 -8.94959
499 1 3.14454 15.7246 9.43444 -8.94925
500 1 6.28988 15.7249 9.4349 -8.95096
512 1 1.57045 11.007 11.0068 -8.95252
513 1 4.70595 11.007 11.0075 -8.97438
539 1 20.4415 20.4415 11.007 -8.94963
686 1 20.4415 20.4415 20.4415 -8.9496
685 1 18.8691 18.8691 18.8691 -8.94959
514 1 7.77595 11.007 11.0455 -9.26975
515 1 11.0709 11.007 11.0709 -9.3298
684 1 17.2966 20.4415 20.4415 -8.94964
517 1 17.2989 11.007 11.0071 -8.95251
518 1 20.4416 11.007 11.007 -8.95043
683 1 15.7242 18.8691 18.8691 -8.94964
682 1 14.1518 20.4415 20.4415 -8.94963
521 1 7.85838 14.153 11.0128 -9.03267
522 1 11.0108 14.1545 11.0108 -9.0551
523 1 14.1537 14.1528 11.007 -8.95004
524 1 17.2974 14.1522 11.0071 -8.94947
525 1 20.4416 14.1519 11.007 -8.9496
526 1 1.5723 17.2968 11.0069 -8.94962
681 1 12.5794 18.8691 18.8691 -8.94962
528 1 7.86085 17.2988 11.0083 -8.94666
529 1 11.0082 17.299 11.0082 -8.9472
530 1 14.1523 17.2972 11.007 -8.94983
680 1 11.007 20.4415 20.4415 -8.94963
679 1 9.43453 18.8691 18.8691 -8.94963
533 1 1.57239 20.4415 11.0069 -8.94963
678 1 7.86211 20.4415 20.4415 -8.94963
535 1 7.86186 20.442 11.0072 -8.94971
536 1 11.0072 20.442 11.0072 -8.94978
677 1 6.28967 18.8691 18.8691 -8.94964
676 1 4.71726 20.4415 20.4415 -8.94964
391 1 18.8691 18.8691 22.0139 -8.94956
540 1 1.57151 11.007 14.1522 -8.94945
541 1 4.71418 11.007 14.1544 -8.94729
542 1 7.85865 11.007 14.1602 -9.00954
543 1 11.0066 11.007 14.1634 -9.01381
544 1 14.1522 11.007 14.1522 -8.95027
545 1 17.297 11.007 14.152 -8.94915
546 1 20.4414 11.007 14.1519 -8.94964
547 1 22.0133 12.5795 12.5795 -8.95025
548 1 1.57148 14.1523 14.1523 -8.94985
549 1 3.14143 12.5805 12.5806 -8.95166
550 1 4.71359 14.1553 14.1553 -8.94358
551 1 6.27552 12.5903 12.5932 -8.97354
552 1 7.86119 14.1539 14.1551 -8.94809
553 1 9.42996 12.5824 12.5856 -9.03235
554 1 11.007 14.1528 14.1537 -8.95004
555 1 12.5858 12.5875 12.5858 -9.00942
556 1 14.1538 14.1538 14.1538 -8.9463
557 1 15.7265 12.5804 12.5805 -8.9496
558 1 17.2973 14.1522 14.1522 -8.94962
559 1 18.8695 12.5795 12.5796 -8.94992
560 1 20.4414 14.1519 14.1519 -8.9498
561 1 -6.69646e-05 15.7243 12.5794 -8.94958
562 1 1.57233 17.2967 14.1518 -8.94981
563 1 3.1445 15.7245 12.5792 -8.9501
564 1 4.71677 17.2976 14.1522 -8.94986
565 1 6.28829 15.7268 12.5808 -8.9516
566 1 7.86209 17.2973 14.1523 -8.95014
567 1 9.43453 15.7254 12.5796 -8.95074
568 1 11.007 17.2972 14.1523 -8.94983
569 1 12.5806 15.7266 12.5806 -8.95053
570 1 14.1522 17.2973 14.1522 -8.94947
571 1 15.7248 15.7247 12.5796 -8.94982
572 1 17.2968 17.2968 14.1519 -8.94967
573 1 18.8692 15.7244 12.5794 -8.94959
574 1 20.4415 17.2967 14.1518 -8.94963
575 1 22.0139 18.8691 12.5794 -8.94963
576 1 1.5724 20.4415 14.1518 -8.94964
577 1 3.14472 18.8692 12.5793 -8.94963
578 1 4.71713 20.4417 14.1519 -8.94966
579 1 6.28926 18.8698 12.5797 -8.94966
580 1 7.86209 20.4416 14.1519 -8.9497
581 1 9.43451 18.8696 12.5795 -8.94942
582 1 11.007 20.4416 14.1519 -8.94966
583 1 12.5798 18.8698 12.5798 -8.94955
584 1 14.1519 20.4417 14.1519 -8.94958
585 1 15.7244 18.8692 12.5794 -8.94969
586 1 17.2967 20.4415 14.1518 -8.94965
587 1 18.8691 18.8691 12.5794 -8.94962
588 1 20.4415 20.4415 14.1518 -8.94963
589 1 1.57225 11.007 17.2968 -8.94962
590 1 4.71674 11.007 17.2975 -8.94932
591 1 7.86195 11.007 17.2986 -8.95092
592 1 11.0071 11.007 17.2989 -8.95251
593 1 14.152 11.007 17.297 -8.94915
594 1 17.2967 11.007 17.2967 -8.9496
595 1 20.4415 11.007 17.2967 -8.94963
596 1 22.0137 12.5794 15.7243 -8.94956
597 1 1.57225 14.1519 17.2968 -8.94966
598 1 3.14412 12.5796 15.7249 -8.94942
599 1 4.71672 14.1523 17.2976 -8.94987
600 1 6.2882 12.5804 15.7276 -8.95202
601 1 7.86189 14.1524 17.2978 -8.94948
602 1 9.43384 12.5806 15.7273 -8.94809
603 1 11.0071 14.1522 17.2974 -8.94947
604 1 12.5805 12.5804 15.7265 -8.9496
605 1 14.1522 14.1522 17.2973 -8.94962
606 1 15.7245 12.5794 15.7245 -8.95007
607 1 17.2967 14.1518 17.2967 -8.94977
608 1 18.8691 12.5794 15.7243 -8.94961
609 1 20.4415 14.1518 17.2967 -8.94963
610 1 22.0137 15.7244 15.7244 -8.94961
611 1 1.57225 17.2968 17.2968 -8.9493
612 1 3.14397 15.7251 15.725 -8.94814
613 1 4.71714 17.2968 17.2968 -8.94958
614 1 6.28928 15.725 15.7251 -8.94924
615 1 7.86209 17.2969 17.2969 -8.94964
616 1 9.43463 15.725 15.7249 -8.94906
617 1 11.007 17.2968 17.2969 -8.94955
618 1 12.5796 15.7247 15.7248 -8.94982
619 1 14.1519 17.2968 17.2968 -8.94967
620 1 15.7247 15.7247 15.7247 -8.94886
621 1 17.2967 17.2967 17.2967 -8.94947
622 1 18.8692 15.7243 15.7243 -8.9496
623 1 20.4415 17.2967 17.2967 -8.94959
624 1 -1.21565e-05 18.8691 15.7242 -8.94968
625 1 1.57239 20.4415 17.2967 -8.94961
626 1 3.1447 18.8693 15.7243 -8.94961
627 1 4.71724 20.4415 17.2967 -8.94964
628 1 6.28963 18.8693 15.7244 -8.9497
629 1 7.8621 20.4415 17.2967 -8.94962
630 1 9.43454 18.8693 15.7244 -8.94958
631 1 11.007 20.4415 17.2967 -8.94962
632 1 12.5794 18.8692 15.7244 -8.94969
633 1 14.1518 20.4415 17.2967 -8.94965
634 1 15.7243 18.8692 15.7243 -8.94954
635 1 17.2967 20.4415 17.2967 -8.9496
636 1 18.8691 18.8691 15.7242 -8.94964
637 1 20.4415 20.4415 17.2966 -8.94964
638 1 1.57238 11.007 20.4415 -8.94962
639 1 4.71715 11.007 20.4416 -8.94969
640 1 7.86208 11.007 20.4418 -8.94991
641 1 11.007 11.007 20.4416 -8.95043
642 1 14.1519 11.007 20.4414 -8.94964
643 1 17.2967 11.007 20.4415 -8.94963
644 1 20.4415 11.007 20.4415 -8.94963
645 1 22.0139 12.5794 18.8691 -8.94964
646 1 1.57238 14.1518 20.4415 -8.94962
647 1 3.14469 12.5794 18.8693 -8.94956
648 1 4.71717 14.1519 20.4416 -8.94978
649 1 6.2895 12.5795 18.8698 -8.95017
650 1 7.86203 14.1519 20.4416 -8.94971
651 1 9.43448 12.5796 18.8698 -8.94978
652 1 11.007 14.1519 20.4416 -8.9496
653 1 12.5796 12.5795 18.8695 -8.94992
654 1 14.1519 14.1519 20.4414 -8.9498
655 1 15.7243 12.5794 18.8691 -8.94961
656 1 17.2967 14.1518 20.4415 -8.94963
657 1 18.8691 12.5794 18.8691 -8.94963
658 1 20.4415 14.1518 20.4415 -8.94963
659 1 22.0139 15.7242 18.8691 -8.94966
660 1 1.57238 17.2967 20.4415 -8.94961
661 1 3.14469 15.7244 18.8693 -8.94961
662 1 4.71723 17.2967 20.4415 -8.9496
663 1 6.28958 15.7244 18.8693 -8.94952
664 1 7.8621 17.2967 20.4415 -8.94962
665 1 9.43456 15.7244 18.8693 -8.94957
666 1 11.007 17.2967 20.4415 -8.94962
667 1 12.5794 15.7244 18.8692 -8.94959
668 1 14.1518 17.2967 20.4415 -8.94963
669 1 15.7243 15.7243 18.8692 -8.9496
670 1 17.2967 17.2967 20.4415 -8.94959
671 1 18.8691 15.7242 18.8691 -8.94967
672 1 20.4415 17.2966 20.4415 -8.94965
673 1 22.0139 18.8691 18.8691 -8.94956
674 1 1.57242 20.4415 20.4415 -8.94963
675 1 3.14481 18.8691 18.8691 -8.94963
351 1 22.0139 12.5794 22.0139 -8.94964
355 1 6.2896 12.5794 22.0138 -8.94989
357 1 9.43441 12.5796 22.0137 -8.94958
359 1 12.5795 12.5795 22.0133 -8.95025
367 1 3.14478 15.7243 22.0139 -8.94964
369 1 6.28962 15.7243 22.0138 -8.94963
371 1 9.43451 15.7243 22.0138 -8.94959
375 1 15.7244 15.7244 22.0137 -8.94961
379 1 22.0139 18.8691 22.0139 -8.94961
383 1 6.28968 18.8691 22.0139 -8.94963
385 1 9.43453 18.8691 22.0139 -8.94963
387 1 12.5794 18.8691 22.0139 -8.94963
353 1 3.14478 12.5794 22.0139 -8.94961
538 1 17.2967 20.4415 11.007 -8.94962
361 1 15.7243 12.5794 22.0137 -8.94956
363 1 18.8691 12.5794 22.0139 -8.94964
532 1 20.4415 17.2967 11.007 -8.94962
531 1 17.2969 17.2968 11.007 -8.94955
365 1 22.0139 15.7242 22.0139 -8.94964
377 1 18.8691 15.7242 22.0139 -8.94966
381 1 3.14483 18.8691 22.0139 -8.94963
