ITEM: TIMESTEP
14
ITEM: NUMBER OF ATOMS
688
ITEM: BOX BOUNDS pp pp pp
0.0000000000000000e+00 2.2013900999999997e+01
0.0000000000000000e+00 2.2013900999999997e+01
0.0000000000000000e+00 2.2013900999999997e+01
ITEM: ATOMS id type x y z c_pot
175 1 18.8693 9.43449 9.43452 -8.94987
2 1 1.57242 1.57242 1.57242 -8.94963
174 1 15.726 9.43374 9.43429 -8.94886
4 1 4.71726 1.57242 1.57242 -8.94964
5 1 6.28969 1.78464e-15 1.52505e-08 -8.94963
6 1 7.86211 1.57242 1.57242 -8.94963
7 1 9.43453 1.29773e-15 7.73704e-08 -8.94963
8 1 11.007 1.57242 1.57242 -8.94963
173 1 12.5855 9.43028 9.43208 -9.03219
10 1 14.1518 1.57242 1.57242 -8.94964
11 1 15.7242 1.08768e-15 3.93067e-08 -8.94963
12 1 17.2966 1.57242 1.57242 -8.94963
172 1 9.41637 9.35364 9.41637 -9.36675
14 1 20.4415 1.57242 1.57242 -8.94963
171 1 6.29169 9.43419 9.43132 -9.04293
16 1 1.57242 4.71726 1.57242 -8.94962
17 1 3.14484 3.14484 1.03113e-07 -8.94963
18 1 4.71726 4.71726 1.57242 -8.94964
170 1 3.14456 9.43414 9.43425 -8.94724
20 1 7.86211 4.71726 1.57242 -8.94963
169 1 22.0139 9.4345 9.43452 -8.9496
22 1 11.007 4.71726 1.57242 -8.94963
168 1 18.8691 6.28968 9.43453 -8.94962
24 1 14.1518 4.71727 1.57243 -8.94971
25 1 15.7242 3.14484 5.57991e-07 -8.94964
26 1 17.2966 4.71726 1.57241 -8.94958
167 1 15.7244 6.28952 9.43456 -8.9493
28 1 20.4415 4.71726 1.57242 -8.94963
29 1 1.6507e-07 6.28969 1.6507e-07 -8.94963
30 1 1.57242 7.86211 1.57242 -8.94965
166 1 12.5795 6.2888 9.43456 -8.95128
32 1 4.71724 7.86208 1.57238 -8.94963
165 1 9.43438 6.27681 9.43438 -8.97032
34 1 7.86209 7.86208 1.57235 -8.94965
164 1 6.29002 6.28985 9.43473 -8.9511
36 1 11.0069 7.86209 1.5724 -8.94952
37 1 12.5794 6.28969 3.66364e-06 -8.94963
38 1 14.1519 7.86205 1.57228 -8.94974
163 1 3.14482 6.28962 9.43453 -8.94941
40 1 17.2966 7.86211 1.57243 -8.94968
41 1 18.8691 6.28969 6.46789e-07 -8.94964
42 1 20.4415 7.86211 1.57242 -8.94963
162 1 22.0139 6.28968 9.43453 -8.94963
44 1 3.14484 9.43453 7.19251e-07 -8.94963
161 1 18.8691 3.14484 9.43453 -8.94964
160 1 15.7242 3.14483 9.43453 -8.94959
159 1 12.5794 3.14472 9.43451 -8.94975
48 1 15.7242 9.43453 -7.07601e-07 -8.94962
49 1 18.8691 9.43453 9.89598e-08 -8.94963
50 1 22.0139 1.28024e-15 3.14484 -8.94963
51 1 1.57242 1.57242 4.71726 -8.94964
52 1 3.14484 1.45699e-15 3.14484 -8.94963
53 1 4.71726 1.57241 4.71726 -8.94961
54 1 6.28969 1.10013e-15 3.14484 -8.94964
55 1 7.86211 1.57243 4.71727 -8.94965
56 1 9.43453 9.13208e-16 3.14484 -8.94964
57 1 11.0069 1.57242 4.71727 -8.94965
58 1 12.5794 1.02906e-15 3.14484 -8.94964
59 1 14.1518 1.57241 4.71726 -8.94962
60 1 15.7242 1.43043e-15 3.14484 -8.94963
61 1 17.2966 1.57242 4.71726 -8.94963
62 1 18.8691 1.06962e-15 3.14484 -8.94963
63 1 20.4415 1.57242 4.71726 -8.94963
64 1 1.03113e-07 3.14484 3.14484 -8.94963
65 1 1.57242 4.71726 4.71726 -8.94964
66 1 3.14484 3.14484 3.14484 -8.94961
67 1 4.71721 4.71718 4.71721 -8.94936
68 1 6.28969 3.14485 3.14484 -8.94968
69 1 7.86216 4.7173 4.71726 -8.94999
70 1 9.43453 3.14483 3.14484 -8.94962
71 1 11.0069 4.71726 4.71721 -8.94967
72 1 12.5794 3.14485 3.14484 -8.94965
73 1 14.1519 4.71712 4.71719 -8.9497
74 1 15.7242 3.14483 3.14484 -8.94963
75 1 17.2967 4.71725 4.71725 -8.9496
76 1 18.8691 3.14484 3.14484 -8.94963
77 1 20.4415 4.71726 4.71726 -8.94963
78 1 22.0139 6.28968 3.14484 -8.94963
79 1 1.57238 7.86208 4.71724 -8.94963
80 1 3.14481 6.28965 3.14481 -8.9495
81 1 4.71694 7.86176 4.71694 -8.94868
82 1 6.28967 6.28966 3.14479 -8.94975
83 1 7.86207 7.86204 4.71662 -8.95116
84 1 9.43453 6.28962 3.14482 -8.94941
85 1 11.0063 7.86225 4.71717 -8.95095
86 1 12.5793 6.28972 3.14487 -8.95001
87 1 14.1531 7.86073 4.71584 -8.94521
88 1 15.7243 6.28956 3.14471 -8.94904
89 1 17.2968 7.86205 4.7172 -8.94972
90 1 18.8691 6.28968 3.14484 -8.94963
91 1 20.4415 7.8621 4.71726 -8.94966
92 1 7.19251e-07 9.43453 3.14484 -8.94963
93 1 3.14484 9.43453 3.14484 -8.94969
94 1 6.28952 9.43442 3.14445 -8.95009
95 1 9.43425 9.43414 3.14456 -8.94724
96 1 12.5797 9.43417 3.1437 -8.95106
97 1 15.7242 9.43454 3.14482 -8.94973
98 1 18.8691 9.43453 3.14484 -8.94962
99 1 1.52505e-08 1.44182e-15 6.28969 -8.94963
100 1 1.57242 1.57242 7.86211 -8.94963
101 1 3.14484 1.04628e-15 6.28969 -8.94964
102 1 4.71727 1.57243 7.86211 -8.94965
103 1 6.28968 1.6481e-15 6.28968 -8.94964
104 1 7.86206 1.57233 7.86206 -8.9497
105 1 9.43453 1.49226e-15 6.28969 -8.94959
106 1 11.007 1.57232 7.86206 -8.94964
107 1 12.5794 9.37789e-16 6.28968 -8.94965
108 1 14.1518 1.5724 7.86211 -8.94969
109 1 15.7242 1.19075e-15 6.28969 -8.94964
110 1 17.2966 1.57242 7.86211 -8.94963
111 1 18.8691 5.77432e-16 6.28969 -8.94963
112 1 20.4415 1.57242 7.86211 -8.94963
113 1 22.0139 3.14484 6.28969 -8.94963
114 1 1.57242 4.71726 7.86211 -8.94963
115 1 3.14484 3.14485 6.28969 -8.94968
116 1 4.71726 4.7173 7.86216 -8.94999
117 1 6.2896 3.14472 6.2896 -8.94949
118 1 7.86139 4.71629 7.86139 -8.94826
119 1 9.43453 3.14486 6.28969 -8.94948
120 1 11.0076 4.71642 7.86142 -8.94722
121 1 12.5794 3.14469 6.2896 -8.94961
122 1 14.1519 4.71704 7.86207 -8.94996
123 1 15.7242 3.14482 6.28967 -8.94965
124 1 17.2966 4.71726 7.86211 -8.94968
125 1 18.8691 3.14484 6.28969 -8.94964
126 1 20.4415 4.71727 7.86211 -8.94964
127 1 22.0139 6.28968 6.28968 -8.94963
128 1 1.57235 7.86208 7.86209 -8.94965
129 1 3.14479 6.28966 6.28967 -8.94975
130 1 4.71662 7.86204 7.86207 -8.95116
131 1 6.28896 6.28887 6.28896 -8.94753
132 1 7.85607 7.85849 7.85607 -9.0101
133 1 9.43473 6.28985 6.29002 -8.9511
134 1 11.0116 7.86149 7.85975 -9.03191
135 1 12.5798 6.2885 6.28923 -8.95098
136 1 14.1537 7.8607 7.86151 -8.94799
137 1 15.7244 6.28949 6.28951 -8.94932
138 1 17.2969 7.86196 7.86201 -8.94962
139 1 18.8691 6.28967 6.28967 -8.94961
140 1 20.4415 7.8621 7.8621 -8.94968
141 1 22.0139 9.43452 6.28968 -8.94973
142 1 3.14445 9.43442 6.28952 -8.95009
143 1 6.28702 9.43317 6.28702 -8.94667
144 1 9.43132 9.43419 6.29169 -9.04293
145 1 12.5891 9.42577 6.28031 -8.97482
146 1 15.7255 9.43416 6.28924 -8.95122
147 1 18.8692 9.43451 6.28966 -8.94984
148 1 7.73704e-08 1.17455e-15 9.43453 -8.94963
149 1 3.14484 7.75494e-16 9.43453 -8.94964
150 1 6.28969 1.56114e-15 9.43453 -8.94959
151 1 9.43453 1.69168e-15 9.43453 -8.95029
152 1 12.5794 1.10372e-15 9.43453 -8.94965
153 1 15.7242 8.06462e-16 9.43453 -8.94963
154 1 18.8691 1.3851e-15 9.43453 -8.94963
155 1 22.0139 3.14484 9.43453 -8.94963
156 1 3.14484 3.14483 9.43453 -8.94962
157 1 6.28969 3.14486 9.43453 -8.94948
158 1 9.43452 3.14356 9.43452 -8.95327
177 1 4.71727 1.57242 11.0069 -8.94965
180 1 14.1518 1.57241 11.0069 -8.94968
181 1 17.2966 1.57242 11.007 -8.94963
184 1 4.71721 4.71726 11.0069 -8.94967
188 1 17.2966 4.71726 11.0069 -8.94964
189 1 20.4415 4.71726 11.007 -8.94963
190 1 1.5724 7.86209 11.0069 -8.94952
191 1 4.71717 7.86225 11.0063 -8.95095
176 1 1.57242 1.57242 11.007 -8.94963
343 1 18.8691 9.43453 18.8691 -8.94963
178 1 7.86206 1.57232 11.007 -8.94964
179 1 11.007 1.57229 11.007 -8.9497
342 1 15.7242 9.43453 18.8691 -8.94964
341 1 12.5794 9.4345 18.8691 -8.94969
182 1 20.4415 1.57242 11.007 -8.94963
183 1 1.57242 4.71726 11.007 -8.94963
340 1 9.43452 9.43449 18.8693 -8.94987
185 1 7.86142 4.71642 11.0076 -8.94722
186 1 11.0076 4.71618 11.0076 -8.94763
187 1 14.1519 4.71707 11.007 -8.94983
339 1 6.28966 9.43451 18.8692 -8.94984
338 1 3.14484 9.43453 18.8691 -8.94962
337 1 9.89598e-08 9.43453 18.8691 -8.94963
336 1 20.4415 7.86211 20.4415 -8.94963
192 1 7.85975 7.86149 11.0116 -9.03191
193 1 11.0102 7.86004 11.0102 -9.05392
194 1 14.1532 7.86109 11.0074 -8.94936
195 1 17.2969 7.86201 11.007 -8.94968
196 1 20.4415 7.8621 11.007 -8.94965
197 1 22.0139 1.72547e-15 12.5794 -8.94963
198 1 1.57242 1.57242 14.1518 -8.94964
199 1 3.14484 1.12018e-15 12.5794 -8.94964
200 1 4.71726 1.57241 14.1518 -8.94962
201 1 6.28968 1.00516e-15 12.5794 -8.94965
202 1 7.86211 1.5724 14.1518 -8.94969
203 1 9.43453 1.24599e-15 12.5794 -8.94965
204 1 11.0069 1.57241 14.1518 -8.94968
205 1 12.5794 3.74207e-16 12.5794 -8.94966
206 1 14.1518 1.57241 14.1518 -8.94961
207 1 15.7242 1.28229e-15 12.5794 -8.94964
208 1 17.2966 1.57242 14.1518 -8.94964
209 1 18.8691 1.17797e-15 12.5794 -8.94963
210 1 20.4415 1.57242 14.1518 -8.94963
211 1 22.0139 3.14484 12.5794 -8.94963
212 1 1.57243 4.71727 14.1518 -8.94971
213 1 3.14484 3.14485 12.5794 -8.94965
214 1 4.71719 4.71712 14.1519 -8.9497
215 1 6.2896 3.14469 12.5794 -8.94961
216 1 7.86207 4.71704 14.1519 -8.94996
217 1 9.43451 3.14472 12.5794 -8.94975
218 1 11.007 4.71707 14.1519 -8.94983
219 1 12.5795 3.14465 12.5795 -8.94959
220 1 14.1519 4.71714 14.1519 -8.94948
221 1 15.7242 3.14482 12.5794 -8.94966
222 1 17.2967 4.71725 14.1518 -8.9496
223 1 18.8691 3.14484 12.5794 -8.94964
224 1 20.4415 4.71726 14.1518 -8.94963
225 1 3.66364e-06 6.28969 12.5794 -8.94963
226 1 1.57228 7.86205 14.1519 -8.94974
227 1 3.14487 6.28972 12.5793 -8.95001
228 1 4.71584 7.86073 14.1531 -8.94521
229 1 6.28923 6.2885 12.5798 -8.95098
230 1 7.86151 7.8607 14.1537 -8.94799
231 1 9.43456 6.2888 12.5795 -8.95128
232 1 11.0074 7.86109 14.1532 -8.94936
233 1 12.5799 6.28843 12.5799 -8.95012
234 1 14.1526 7.86138 14.1526 -8.94742
235 1 15.7244 6.2895 12.5795 -8.94953
236 1 17.2967 7.86206 14.1518 -8.9496
237 1 18.8691 6.28967 12.5794 -8.94964
238 1 20.4415 7.8621 14.1518 -8.94966
239 1 22.0138 9.43451 12.5794 -8.94986
240 1 3.1437 9.43417 12.5797 -8.95106
241 1 6.28031 9.42577 12.5891 -8.97482
242 1 9.43208 9.43028 12.5855 -9.03219
243 1 12.5837 9.42763 12.5837 -9.01136
244 1 15.725 9.4341 12.5798 -8.9493
245 1 18.8691 9.4345 12.5794 -8.94969
246 1 3.93067e-08 1.03449e-15 15.7242 -8.94963
247 1 1.57242 1.57242 17.2966 -8.94963
248 1 3.14484 1.59181e-15 15.7242 -8.94963
249 1 4.71726 1.57242 17.2966 -8.94963
250 1 6.28969 1.44689e-15 15.7242 -8.94964
251 1 7.86211 1.57242 17.2966 -8.94963
252 1 9.43453 9.37703e-16 15.7242 -8.94963
253 1 11.007 1.57242 17.2966 -8.94963
254 1 12.5794 1.28915e-15 15.7242 -8.94964
255 1 14.1518 1.57242 17.2966 -8.94964
256 1 15.7242 7.9433e-16 15.7242 -8.94963
257 1 17.2966 1.57242 17.2966 -8.94963
258 1 18.8691 1.71474e-15 15.7242 -8.94963
259 1 20.4415 1.57242 17.2966 -8.94963
260 1 5.57991e-07 3.14484 15.7242 -8.94964
261 1 1.57241 4.71726 17.2966 -8.94958
262 1 3.14484 3.14483 15.7242 -8.94963
263 1 4.71725 4.71725 17.2967 -8.9496
264 1 6.28967 3.14482 15.7242 -8.94965
265 1 7.86211 4.71726 17.2966 -8.94968
266 1 9.43453 3.14483 15.7242 -8.94959
267 1 11.0069 4.71726 17.2966 -8.94964
268 1 12.5794 3.14482 15.7242 -8.94966
269 1 14.1518 4.71725 17.2967 -8.9496
270 1 15.7242 3.14483 15.7242 -8.94961
271 1 17.2966 4.71726 17.2966 -8.94962
272 1 18.8691 3.14484 15.7242 -8.94963
273 1 20.4415 4.71726 17.2966 -8.94963
274 1 22.0139 6.28968 15.7242 -8.94963
275 1 1.57243 7.86211 17.2966 -8.94968
276 1 3.14471 6.28956 15.7243 -8.94904
277 1 4.7172 7.86205 17.2968 -8.94972
278 1 6.28951 6.28949 15.7244 -8.94932
279 1 7.86201 7.86196 17.2969 -8.94962
280 1 9.43456 6.28952 15.7244 -8.9493
281 1 11.007 7.86201 17.2969 -8.94968
282 1 12.5795 6.2895 15.7244 -8.94953
283 1 14.1518 7.86206 17.2967 -8.9496
284 1 15.7243 6.28964 15.7243 -8.94937
285 1 17.2966 7.86211 17.2966 -8.94969
286 1 18.8691 6.28968 15.7242 -8.94963
287 1 20.4415 7.86211 17.2966 -8.94964
288 1 -7.07601e-07 9.43453 15.7242 -8.94962
289 1 3.14482 9.43454 15.7242 -8.94973
290 1 6.28924 9.43416 15.7255 -8.95122
291 1 9.43429 9.43374 15.726 -8.94886
292 1 12.5798 9.4341 15.725 -8.9493
293 1 15.7242 9.4346 15.7242 -8.95
294 1 18.8691 9.43453 15.7242 -8.94964
295 1 22.0139 1.49459e-15 18.8691 -8.94963
296 1 1.57242 1.57242 20.4415 -8.94963
297 1 3.14484 1.13307e-15 18.8691 -8.94963
298 1 4.71726 1.57242 20.4415 -8.94963
299 1 6.28969 7.20367e-16 18.8691 -8.94963
300 1 7.86211 1.57242 20.4415 -8.94963
301 1 9.43453 1.56815e-15 18.8691 -8.94963
302 1 11.007 1.57242 20.4415 -8.94963
303 1 12.5794 1.15432e-15 18.8691 -8.94963
304 1 14.1518 1.57242 20.4415 -8.94963
305 1 15.7242 1.75926e-15 18.8691 -8.94963
306 1 17.2966 1.57242 20.4415 -8.94963
307 1 18.8691 1.49614e-15 18.8691 -8.94963
308 1 20.4415 1.57242 20.4415 -8.94963
309 1 22.0139 3.14484 18.8691 -8.94963
310 1 1.57242 4.71726 20.4415 -8.94963
311 1 3.14484 3.14484 18.8691 -8.94963
312 1 4.71726 4.71726 20.4415 -8.94963
313 1 6.28969 3.14484 18.8691 -8.94964
314 1 7.86211 4.71727 20.4415 -8.94964
315 1 9.43453 3.14484 18.8691 -8.94964
316 1 11.007 4.71726 20.4415 -8.94963
317 1 12.5794 3.14484 18.8691 -8.94964
318 1 14.1518 4.71726 20.4415 -8.94963
319 1 15.7242 3.14484 18.8691 -8.94963
320 1 17.2966 4.71726 20.4415 -8.94963
321 1 18.8691 3.14484 18.8691 -8.94963
322 1 20.4415 4.71726 20.4415 -8.94963
323 1 6.46789e-07 6.28969 18.8691 -8.94964
324 1 1.57242 7.86211 20.4415 -8.94963
325 1 3.14484 6.28968 18.8691 -8.94963
326 1 4.71726 7.8621 20.4415 -8.94966
327 1 6.28967 6.28967 18.8691 -8.94961
328 1 7.8621 7.8621 20.4415 -8.94968
329 1 9.43453 6.28968 18.8691 -8.94962
330 1 11.007 7.8621 20.4415 -8.94965
331 1 12.5794 6.28967 18.8691 -8.94964
332 1 14.1518 7.8621 20.4415 -8.94966
333 1 15.7242 6.28968 18.8691 -8.94963
334 1 17.2966 7.86211 20.4415 -8.94964
335 1 18.8691 6.28969 18.8691 -8.94964
1 1 22.0139 1.68709e-15 22.0139 -8.94963
3 1 3.14484 1.39157e-15 22.0139 -8.94963
9 1 12.5794 1.78186e-15 22.0139 -8.94963
13 1 18.8691 1.45461e-15 22.0139 -8.94963
15 1 22.0139 3.14484 22.0139 -8.94963
19 1 6.28969 3.14484 22.0139 -8.94963
21 1 9.43453 3.14484 22.0139 -8.94963
23 1 12.5794 3.14484 22.0139 -8.94963
27 1 18.8691 3.14484 22.0139 -8.94963
31 1 3.14484 6.28968 22.0139 -8.94963
33 1 6.28968 6.28968 22.0139 -8.94963
35 1 9.43453 6.28968 22.0139 -8.94963
39 1 15.7242 6.28968 22.0139 -8.94963
43 1 22.0139 9.43453 22.0139 -8.94963
45 1 6.28968 9.43452 22.0139 -8.94973
46 1 9.43452 9.4345 22.0139 -8.9496
47 1 12.5794 9.43451 22.0138 -8.94986
344 1 1.57242 11.007 1.57242 -8.94964
345 1 4.71725 11.007 1.5724 -8.94956
346 1 7.86214 11.007 1.57224 -8.95017
347 1 11.0069 11.007 1.57182 -8.95152
348 1 14.1518 11.007 1.57234 -8.94952
349 1 17.2966 11.007 1.57242 -8.94966
350 1 20.4415 11.007 1.57242 -8.94964
688 2 10.3146 11.007 9.34738 0.576717
352 1 1.57242 14.1518 1.57242 -8.94965
353 1 3.14484 12.5794 7.19251e-07 -8.94963
354 1 4.71724 14.1518 1.57238 -8.94963
687 2 9.34738 11.007 10.3146 0.576717
356 1 7.86209 14.1518 1.57235 -8.94965
511 1 18.8691 18.8691 9.43453 -8.94964
358 1 11.0069 14.1518 1.5724 -8.94952
510 1 15.7242 18.8691 9.43453 -8.94959
360 1 14.1519 14.1519 1.57228 -8.94974
361 1 15.7242 12.5794 -7.07601e-07 -8.94962
362 1 17.2966 14.1518 1.57243 -8.94968
363 1 18.8691 12.5794 9.89598e-08 -8.94963
364 1 20.4415 14.1518 1.57242 -8.94963
365 1 1.6507e-07 15.7242 1.6507e-07 -8.94963
366 1 1.57242 17.2966 1.57242 -8.94962
509 1 12.5794 18.8692 9.43451 -8.94975
368 1 4.71726 17.2966 1.57242 -8.94964
508 1 9.43452 18.8703 9.43452 -8.95327
370 1 7.86211 17.2966 1.57242 -8.94963
507 1 6.28969 18.869 9.43453 -8.94948
372 1 11.007 17.2966 1.57242 -8.94963
373 1 12.5794 15.7242 3.66364e-06 -8.94963
374 1 14.1518 17.2966 1.57243 -8.94971
506 1 3.14484 18.8691 9.43453 -8.94962
376 1 17.2966 17.2966 1.57241 -8.94958
377 1 18.8691 15.7242 6.46789e-07 -8.94964
378 1 20.4415 17.2966 1.57242 -8.94963
505 1 22.0139 18.8691 9.43453 -8.94963
380 1 1.57242 20.4415 1.57242 -8.94963
381 1 3.14484 18.8691 1.03113e-07 -8.94963
382 1 4.71726 20.4415 1.57242 -8.94964
504 1 18.8691 15.7242 9.43453 -8.94962
384 1 7.86211 20.4415 1.57242 -8.94963
503 1 15.7244 15.7244 9.43456 -8.9493
386 1 11.007 20.4415 1.57242 -8.94963
502 1 12.5795 15.7251 9.43456 -8.95128
388 1 14.1518 20.4415 1.57242 -8.94964
389 1 15.7242 18.8691 5.57991e-07 -8.94964
390 1 17.2966 20.4415 1.57242 -8.94963
501 1 9.43438 15.7371 9.43438 -8.97032
392 1 20.4415 20.4415 1.57242 -8.94963
393 1 1.5724 11.007 4.71725 -8.94956
394 1 4.71705 11.007 4.71705 -8.94885
395 1 7.86189 11.007 4.71546 -8.95384
396 1 11.0066 11.007 4.71015 -8.97255
397 1 14.1524 11.007 4.71656 -8.94848
398 1 17.2967 11.007 4.71721 -8.94947
399 1 20.4415 11.007 4.71726 -8.94963
400 1 7.19251e-07 12.5794 3.14484 -8.94963
401 1 1.57238 14.1518 4.71724 -8.94963
402 1 3.14484 12.5794 3.14484 -8.94969
403 1 4.71694 14.1521 4.71694 -8.94868
404 1 6.28952 12.5795 3.14445 -8.95009
405 1 7.86207 14.1519 4.71662 -8.95116
406 1 9.43425 12.5798 3.14456 -8.94724
407 1 11.0063 14.1516 4.71717 -8.95095
408 1 12.5797 12.5797 3.1437 -8.95106
409 1 14.1531 14.1532 4.71584 -8.94521
410 1 15.7242 12.5794 3.14482 -8.94973
411 1 17.2968 14.1519 4.7172 -8.94972
412 1 18.8691 12.5794 3.14484 -8.94962
413 1 20.4415 14.1518 4.71726 -8.94966
414 1 22.0139 15.7242 3.14484 -8.94963
415 1 1.57242 17.2966 4.71726 -8.94964
416 1 3.14481 15.7242 3.14481 -8.9495
417 1 4.71721 17.2967 4.71721 -8.94936
418 1 6.28967 15.7242 3.14479 -8.94975
419 1 7.86216 17.2966 4.71726 -8.94999
420 1 9.43453 15.7243 3.14482 -8.94941
421 1 11.0069 17.2966 4.71721 -8.94967
422 1 12.5793 15.7242 3.14487 -8.95001
423 1 14.1519 17.2968 4.71719 -8.9497
424 1 15.7243 15.7243 3.14471 -8.94904
425 1 17.2967 17.2967 4.71725 -8.9496
426 1 18.8691 15.7242 3.14484 -8.94963
427 1 20.4415 17.2966 4.71726 -8.94963
428 1 1.03113e-07 18.8691 3.14484 -8.94963
429 1 1.57242 20.4415 4.71726 -8.94964
430 1 3.14484 18.8691 3.14484 -8.94961
431 1 4.71726 20.4415 4.71726 -8.94961
432 1 6.28969 18.8691 3.14484 -8.94968
433 1 7.86211 20.4415 4.71727 -8.94965
434 1 9.43453 18.8691 3.14484 -8.94962
435 1 11.0069 20.4415 4.71727 -8.94965
436 1 12.5794 18.8691 3.14484 -8.94965
437 1 14.1518 20.4415 4.71726 -8.94962
438 1 15.7242 18.8691 3.14484 -8.94963
439 1 17.2966 20.4415 4.71726 -8.94963
440 1 18.8691 18.8691 3.14484 -8.94963
441 1 20.4415 20.4415 4.71726 -8.94963
442 1 1.57224 11.007 7.86214 -8.95017
443 1 4.71546 11.007 7.86189 -8.95384
444 1 7.84987 11.007 7.84987 -9.01117
445 1 11.0437 11.007 7.78294 -9.27795
446 1 14.1579 11.007 7.86084 -9.00931
447 1 17.2974 11.007 7.86205 -8.95079
448 1 20.4415 11.007 7.8621 -8.94981
449 1 22.0139 12.5794 6.28968 -8.94973
450 1 1.57235 14.1518 7.86209 -8.94965
451 1 3.14445 12.5795 6.28952 -8.95009
452 1 4.71662 14.1519 7.86207 -8.95116
453 1 6.28702 12.5807 6.28702 -8.94667
454 1 7.85607 14.1554 7.85607 -9.0101
455 1 9.43132 12.5797 6.29169 -9.04293
456 1 11.0116 14.1524 7.85975 -9.03191
457 1 12.5891 12.5881 6.28031 -8.97482
458 1 14.1537 14.1532 7.86151 -8.94799
459 1 15.7255 12.5797 6.28924 -8.95122
460 1 17.2969 14.1519 7.86201 -8.94962
461 1 18.8692 12.5794 6.28966 -8.94984
462 1 20.4415 14.1518 7.8621 -8.94968
463 1 22.0139 15.7242 6.28968 -8.94963
464 1 1.57242 17.2966 7.86211 -8.94963
465 1 3.14479 15.7242 6.28967 -8.94975
466 1 4.71726 17.2966 7.86216 -8.94999
467 1 6.28896 15.725 6.28896 -8.94753
468 1 7.86139 17.2976 7.86139 -8.94826
469 1 9.43473 15.724 6.29002 -8.9511
470 1 11.0076 17.2975 7.86142 -8.94722
471 1 12.5798 15.7254 6.28923 -8.95098
472 1 14.1519 17.2969 7.86207 -8.94996
473 1 15.7244 15.7244 6.28951 -8.94932
474 1 17.2966 17.2966 7.86211 -8.94968
475 1 18.8691 15.7242 6.28967 -8.94961
476 1 20.4415 17.2966 7.86211 -8.94964
477 1 22.0139 18.8691 6.28969 -8.94963
478 1 1.57242 20.4415 7.86211 -8.94963
479 1 3.14484 18.8691 6.28969 -8.94968
480 1 4.71727 20.4415 7.86211 -8.94965
481 1 6.2896 18.8692 6.2896 -8.94949
482 1 7.86206 20.4416 7.86206 -8.9497
483 1 9.43453 18.869 6.28969 -8.94948
484 1 11.007 20.4416 7.86206 -8.94964
485 1 12.5794 18.8692 6.2896 -8.94961
486 1 14.1518 20.4415 7.86211 -8.94969
487 1 15.7242 18.8691 6.28967 -8.94965
488 1 17.2966 20.4415 7.86211 -8.94963
489 1 18.8691 18.8691 6.28969 -8.94964
490 1 20.4415 20.4415 7.86211 -8.94963
491 1 22.0139 12.5794 9.43452 -8.9496
492 1 3.14456 12.5798 9.43425 -8.94724
493 1 6.29169 12.5797 9.43132 -9.04293
494 1 9.41637 12.6603 9.41637 -9.36675
495 1 12.5855 12.5836 9.43208 -9.03219
496 1 15.726 12.5802 9.43429 -8.94886
497 1 18.8693 12.5794 9.43452 -8.94987
498 1 22.0139 15.7242 9.43453 -8.94963
499 1 3.14482 15.7243 9.43453 -8.94941
500 1 6.29002 15.724 9.43473 -8.9511
512 1 1.57182 11.007 11.0069 -8.95152
513 1 4.71015 11.007 11.0066 -8.97255
516 1 14.1608 11.007 11.0066 -9.01243
519 1 1.5724 14.1518 11.0069 -8.94952
520 1 4.71717 14.1516 11.0063 -8.95095
527 1 4.71721 17.2966 11.0069 -8.94967
531 1 17.2966 17.2966 11.0069 -8.94964
532 1 20.4415 17.2966 11.007 -8.94963
534 1 4.71727 20.4415 11.0069 -8.94965
537 1 14.1518 20.4415 11.0069 -8.94968
538 1 17.2966 20.4415 11.007 -8.94963
686 1 20.4415 20.4415 20.4415 -8.94963
685 1 18.8691 18.8691 18.8691 -8.94963
514 1 7.78294 11.007 11.0437 -9.27795
515 1 11.0678 11.007 11.0678 -9.33673
684 1 17.2966 20.4415 20.4415 -8.94963
517 1 17.2976 11.007 11.007 -8.95182
518 1 20.4415 11.007 11.007 -8.94999
683 1 15.7242 18.8691 18.8691 -8.94963
682 1 14.1518 20.4415 20.4415 -8.94963
521 1 7.85975 14.1524 11.0116 -9.03191
522 1 11.0102 14.1539 11.0102 -9.05392
523 1 14.1532 14.1528 11.0074 -8.94936
524 1 17.2969 14.1519 11.007 -8.94968
525 1 20.4415 14.1518 11.007 -8.94965
526 1 1.57242 17.2966 11.007 -8.94963
681 1 12.5794 18.8691 18.8691 -8.94964
528 1 7.86142 17.2975 11.0076 -8.94722
529 1 11.0076 17.2977 11.0076 -8.94763
530 1 14.1519 17.2968 11.007 -8.94983
680 1 11.007 20.4415 20.4415 -8.94963
679 1 9.43453 18.8691 18.8691 -8.94964
533 1 1.57242 20.4415 11.007 -8.94963
678 1 7.86211 20.4415 20.4415 -8.94963
535 1 7.86206 20.4416 11.007 -8.94964
536 1 11.007 20.4416 11.007 -8.9497
677 1 6.28969 18.8691 18.8691 -8.94964
676 1 4.71726 20.4415 20.4415 -8.94963
539 1 20.4415 20.4415 11.007 -8.94963
540 1 1.57234 11.007 14.1518 -8.94952
541 1 4.71656 11.007 14.1524 -8.94848
542 1 7.86084 11.007 14.1579 -9.00931
543 1 11.0066 11.007 14.1608 -9.01243
544 1 14.1514 11.007 14.1514 -8.95105
545 1 17.2966 11.007 14.1518 -8.94939
546 1 20.4415 11.007 14.1518 -8.94962
547 1 22.0138 12.5794 12.5794 -8.94986
548 1 1.57228 14.1519 14.1519 -8.94974
549 1 3.1437 12.5797 12.5797 -8.95106
550 1 4.71584 14.1532 14.1531 -8.94521
551 1 6.28031 12.5881 12.5891 -8.97482
552 1 7.86151 14.1532 14.1537 -8.94799
553 1 9.43208 12.5836 12.5855 -9.03219
554 1 11.0074 14.1528 14.1532 -8.94936
555 1 12.5837 12.5863 12.5837 -9.01136
556 1 14.1526 14.1525 14.1526 -8.94742
557 1 15.725 12.5798 12.5798 -8.9493
558 1 17.2967 14.1518 14.1518 -8.9496
559 1 18.8691 12.5794 12.5794 -8.94969
560 1 20.4415 14.1518 14.1518 -8.94966
561 1 3.66364e-06 15.7242 12.5794 -8.94963
562 1 1.57243 17.2966 14.1518 -8.94971
563 1 3.14487 15.7242 12.5793 -8.95001
564 1 4.71719 17.2968 14.1519 -8.9497
565 1 6.28923 15.7254 12.5798 -8.95098
566 1 7.86207 17.2969 14.1519 -8.94996
567 1 9.43456 15.7251 12.5795 -8.95128
568 1 11.007 17.2968 14.1519 -8.94983
569 1 12.5799 15.7255 12.5799 -8.95012
570 1 14.1519 17.2968 14.1519 -8.94948
571 1 15.7244 15.7244 12.5795 -8.94953
572 1 17.2967 17.2967 14.1518 -8.9496
573 1 18.8691 15.7242 12.5794 -8.94964
574 1 20.4415 17.2966 14.1518 -8.94963
575 1 22.0139 18.8691 12.5794 -8.94963
576 1 1.57242 20.4415 14.1518 -8.94964
577 1 3.14484 18.8691 12.5794 -8.94965
578 1 4.71726 20.4415 14.1518 -8.94962
579 1 6.2896 18.8692 12.5794 -8.94961
580 1 7.86211 20.4415 14.1518 -8.94969
581 1 9.43451 18.8692 12.5794 -8.94975
582 1 11.0069 20.4415 14.1518 -8.94968
583 1 12.5795 18.8692 12.5795 -8.94959
584 1 14.1518 20.4415 14.1518 -8.94961
585 1 15.7242 18.8691 12.5794 -8.94966
586 1 17.2966 20.4415 14.1518 -8.94964
587 1 18.8691 18.8691 12.5794 -8.94964
588 1 20.4415 20.4415 14.1518 -8.94963
589 1 1.57242 11.007 17.2966 -8.94966
590 1 4.71721 11.007 17.2967 -8.94947
591 1 7.86205 11.007 17.2974 -8.95079
592 1 11.007 11.007 17.2976 -8.95182
593 1 14.1518 11.007 17.2966 -8.94939
594 1 17.2966 11.007 17.2966 -8.94962
595 1 20.4415 11.007 17.2966 -8.94964
596 1 -7.07601e-07 12.5794 15.7242 -8.94962
597 1 1.57243 14.1518 17.2966 -8.94968
598 1 3.14482 12.5794 15.7242 -8.94973
599 1 4.7172 14.1519 17.2968 -8.94972
600 1 6.28924 12.5797 15.7255 -8.95122
601 1 7.86201 14.1519 17.2969 -8.94962
602 1 9.43429 12.5802 15.726 -8.94886
603 1 11.007 14.1519 17.2969 -8.94968
604 1 12.5798 12.5798 15.725 -8.9493
605 1 14.1518 14.1518 17.2967 -8.9496
606 1 15.7242 12.5793 15.7242 -8.95
607 1 17.2966 14.1518 17.2966 -8.94969
608 1 18.8691 12.5794 15.7242 -8.94964
609 1 20.4415 14.1518 17.2966 -8.94964
610 1 22.0139 15.7242 15.7242 -8.94963
611 1 1.57241 17.2966 17.2966 -8.94958
612 1 3.14471 15.7243 15.7243 -8.94904
613 1 4.71725 17.2967 17.2967 -8.9496
614 1 6.28951 15.7244 15.7244 -8.94932
615 1 7.86211 17.2966 17.2966 -8.94968
616 1 9.43456 15.7244 15.7244 -8.9493
617 1 11.0069 17.2966 17.2966 -8.94964
618 1 12.5795 15.7244 15.7244 -8.94953
619 1 14.1518 17.2967 17.2967 -8.9496
620 1 15.7243 15.7243 15.7243 -8.94937
621 1 17.2966 17.2966 17.2966 -8.94962
622 1 18.8691 15.7242 15.7242 -8.94963
623 1 20.4415 17.2966 17.2966 -8.94963
624 1 5.57991e-07 18.8691 15.7242 -8.94964
625 1 1.57242 20.4415 17.2966 -8.94963
626 1 3.14484 18.8691 15.7242 -8.94963
627 1 4.71726 20.4415 17.2966 -8.94963
628 1 6.28967 18.8691 15.7242 -8.94965
629 1 7.86211 20.4415 17.2966 -8.94963
630 1 9.43453 18.8691 15.7242 -8.94959
631 1 11.007 20.4415 17.2966 -8.94963
632 1 12.5794 18.8691 15.7242 -8.94966
633 1 14.1518 20.4415 17.2966 -8.94964
634 1 15.7242 18.8691 15.7242 -8.94961
635 1 17.2966 20.4415 17.2966 -8.94963
636 1 18.8691 18.8691 15.7242 -8.94963
637 1 20.4415 20.4415 17.2966 -8.94963
638 1 1.57242 11.007 20.4415 -8.94964
639 1 4.71726 11.007 20.4415 -8.94963
640 1 7.8621 11.007 20.4415 -8.94981
641 1 11.007 11.007 20.4415 -8.94999
642 1 14.1518 11.007 20.4415 -8.94962
643 1 17.2966 11.007 20.4415 -8.94964
644 1 20.4415 11.007 20.4415 -8.94963
645 1 9.89598e-08 12.5794 18.8691 -8.94963
646 1 1.57242 14.1518 20.4415 -8.94963
647 1 3.14484 12.5794 18.8691 -8.94962
648 1 4.71726 14.1518 20.4415 -8.94966
649 1 6.28966 12.5794 18.8692 -8.94984
650 1 7.8621 14.1518 20.4415 -8.94968
651 1 9.43452 12.5794 18.8693 -8.94987
652 1 11.007 14.1518 20.4415 -8.94965
653 1 12.5794 12.5794 18.8691 -8.94969
654 1 14.1518 14.1518 20.4415 -8.94966
655 1 15.7242 12.5794 18.8691 -8.94964
656 1 17.2966 14.1518 20.4415 -8.94964
657 1 18.8691 12.5794 18.8691 -8.94963
658 1 20.4415 14.1518 20.4415 -8.94963
659 1 6.46789e-07 15.7242 18.8691 -8.94964
660 1 1.57242 17.2966 20.4415 -8.94963
661 1 3.14484 15.7242 18.8691 -8.94963
662 1 4.71726 17.2966 20.4415 -8.94963
663 1 6.28967 15.7242 18.8691 -8.94961
664 1 7.86211 17.2966 20.4415 -8.94964
665 1 9.43453 15.7242 18.8691 -8.94962
666 1 11.007 17.2966 20.4415 -8.94963
667 1 12.5794 15.7242 18.8691 -8.94964
668 1 14.1518 17.2966 20.4415 -8.94963
669 1 15.7242 15.7242 18.8691 -8.94963
670 1 17.2966 17.2966 20.4415 -8.94963
671 1 18.8691 15.7242 18.8691 -8.94964
672 1 20.4415 17.2966 20.4415 -8.94963
673 1 22.0139 18.8691 18.8691 -8.94963
674 1 1.57242 20.4415 20.4415 -8.94963
675 1 3.14484 18.8691 18.8691 -8.94963
351 1 22.0139 12.5794 22.0139 -8.94963
355 1 6.28968 12.5794 22.0139 -8.94973
357 1 9.43452 12.5794 22.0139 -8.9496
359 1 12.5794 12.5794 22.0138 -8.94986
367 1 3.14484 15.7242 22.0139 -8.94963
369 1 6.28968 15.7242 22.0139 -8.94963
371 1 9.43453 15.7242 22.0139 -8.94963
375 1 15.7242 15.7242 22.0139 -8.94963
379 1 22.0139 18.8691 22.0139 -8.94963
383 1 6.28969 18.8691 22.0139 -8.94963
385 1 9.43453 18.8691 22.0139 -8.94963
387 1 12.5794 18.8691 22.0139 -8.94963
391 1 18.8691 18.8691 22.0139 -8.94963
