ITEM: TIMESTEP
25
ITEM: NUMBER OF ATOMS
688
ITEM: BOX BOUNDS pp pp pp
0.0000000000000000e+00 2.2013900999999997e+01
0.0000000000000000e+00 2.2013900999999997e+01
0.0000000000000000e+00 2.2013900999999997e+01
ITEM: ATOMS id type x y z c_pot
175 1 18.8695 9.43441 9.43451 -8.94983
2 1 1.57242 1.57242 1.57242 -8.94962
174 1 15.7266 9.43348 9.43414 -8.94844
4 1 4.71727 1.57242 1.57242 -8.94965
191 1 4.71684 7.86216 11.0062 -8.95085
6 1 7.86211 1.57242 1.57242 -8.94963
7 1 9.43453 1.58883e-15 -8.40221e-08 -8.94963
8 1 11.007 1.57242 1.57242 -8.94963
173 1 12.5855 9.43088 9.43118 -9.03232
10 1 14.1518 1.57242 1.57242 -8.94964
11 1 15.7242 1.23658e-15 1.22761e-07 -8.94964
12 1 17.2966 1.57242 1.57242 -8.94963
172 1 9.41643 9.35411 9.41643 -9.36897
14 1 20.4415 1.57242 1.57242 -8.94963
171 1 6.29129 9.4337 9.43095 -9.04198
16 1 1.57241 4.71725 1.57241 -8.9496
190 1 1.5723 7.86203 11.0069 -8.94942
18 1 4.71725 4.71725 1.5724 -8.94965
170 1 3.1442 9.43393 9.43403 -8.9469
20 1 7.86211 4.71725 1.5724 -8.94962
169 1 22.0138 9.43445 9.43449 -8.94959
22 1 11.007 4.71724 1.57239 -8.94963
168 1 18.8691 6.28964 9.43454 -8.94961
24 1 14.1518 4.71726 1.57242 -8.94976
25 1 15.7242 3.14484 1.57703e-06 -8.94966
26 1 17.2967 4.71722 1.57238 -8.94948
167 1 15.7246 6.28928 9.43459 -8.94916
28 1 20.4415 4.71726 1.57242 -8.94962
184 1 4.7171 4.71719 11.0068 -8.94962
30 1 1.57242 7.86211 1.57242 -8.94965
166 1 12.5796 6.28867 9.43458 -8.95098
32 1 4.7172 7.86205 1.57231 -8.94965
165 1 9.43432 6.27508 9.43432 -8.97108
34 1 7.86205 7.86201 1.57223 -8.94964
164 1 6.28999 6.28956 9.43482 -8.951
36 1 11.0069 7.86203 1.5723 -8.94942
37 1 12.5794 6.28967 -8.76471e-07 -8.94961
38 1 14.152 7.86192 1.57202 -8.94979
163 1 3.14474 6.28951 9.43451 -8.94932
40 1 17.2967 7.86211 1.5724 -8.94969
180 1 14.1518 1.57238 11.0069 -8.94969
42 1 20.4415 7.86211 1.57242 -8.94963
162 1 22.0139 6.28966 9.43453 -8.94962
177 1 4.71725 1.57241 11.0069 -8.94963
161 1 18.8691 3.14484 9.43453 -8.94964
160 1 15.7243 3.14476 9.43453 -8.94958
159 1 12.5794 3.1446 9.43451 -8.94961
158 1 9.43452 3.14288 9.43452 -8.95382
157 1 6.28963 3.14477 9.43454 -8.94937
50 1 22.0139 1.45447e-15 3.14484 -8.94964
51 1 1.57242 1.57242 4.71727 -8.94965
52 1 3.14484 1.34641e-15 3.14484 -8.94961
53 1 4.71723 1.57238 4.71723 -8.94958
54 1 6.28969 7.82795e-16 3.14484 -8.94965
55 1 7.86212 1.57242 4.71725 -8.94963
56 1 9.43453 1.33403e-15 3.14484 -8.94965
57 1 11.0069 1.57241 4.71725 -8.94963
58 1 12.5794 1.19083e-15 3.14484 -8.94964
59 1 14.1518 1.57236 4.71723 -8.94963
60 1 15.7242 1.70454e-15 3.14483 -8.94963
61 1 17.2966 1.57241 4.71726 -8.94963
62 1 18.8691 1.61223e-15 3.14484 -8.94963
63 1 20.4415 1.57242 4.71726 -8.94964
64 1 22.0139 3.14484 3.14484 -8.94963
65 1 1.5724 4.71725 4.71725 -8.94965
66 1 3.14482 3.14481 3.14482 -8.94956
67 1 4.71708 4.71702 4.71708 -8.94916
68 1 6.2897 3.14484 3.14483 -8.94973
69 1 7.86219 4.71727 4.71719 -8.95007
70 1 9.43452 3.14481 3.14482 -8.94962
71 1 11.0068 4.71719 4.7171 -8.94962
72 1 12.5794 3.14484 3.14482 -8.94964
73 1 14.152 4.71686 4.71706 -8.94976
74 1 15.7242 3.14479 3.14481 -8.94962
75 1 17.2967 4.71721 4.71722 -8.9496
76 1 18.8691 3.14484 3.14484 -8.94963
77 1 20.4415 4.71726 4.71726 -8.94962
78 1 22.0139 6.28967 3.14483 -8.94963
79 1 1.57231 7.86205 4.7172 -8.94965
80 1 3.14476 6.2896 3.14476 -8.94944
81 1 4.71671 7.86159 4.71671 -8.9486
82 1 6.28962 6.28959 3.14464 -8.94978
83 1 7.86185 7.86184 4.71621 -8.95123
84 1 9.43451 6.28951 3.14474 -8.94932
85 1 11.0062 7.86216 4.71684 -8.95085
86 1 12.5792 6.28966 3.14479 -8.95007
87 1 14.154 7.85979 4.71491 -8.94433
88 1 15.7246 6.28933 3.14447 -8.94863
89 1 17.297 7.86192 4.71705 -8.94979
90 1 18.8691 6.28965 3.14481 -8.94962
91 1 20.4415 7.86209 4.71724 -8.9497
92 1 22.0139 9.43453 3.14483 -8.94962
93 1 3.14478 9.43451 3.14478 -8.94965
94 1 6.28939 9.4344 3.14421 -8.95025
95 1 9.43403 9.43393 3.1442 -8.9469
96 1 12.58 9.43385 3.1428 -8.95137
97 1 15.7244 9.43449 3.14464 -8.94961
98 1 18.8691 9.43453 3.14482 -8.9496
99 1 22.0139 1.31929e-15 6.28969 -8.94963
100 1 1.57242 1.57242 7.86211 -8.94963
101 1 3.14484 7.49667e-16 6.28969 -8.94965
102 1 4.71725 1.57242 7.86212 -8.94963
103 1 6.28964 1.78031e-15 6.28964 -8.94967
104 1 7.86199 1.57217 7.86199 -8.94982
105 1 9.43453 1.74241e-15 6.28966 -8.94955
106 1 11.0071 1.57218 7.86198 -8.94967
107 1 12.5794 1.43082e-15 6.28964 -8.94969
108 1 14.1518 1.57237 7.8621 -8.9497
109 1 15.7242 1.83065e-15 6.28968 -8.94966
110 1 17.2966 1.57241 7.86211 -8.94963
111 1 18.8691 5.23788e-16 6.28969 -8.94963
112 1 20.4415 1.57242 7.86211 -8.94963
113 1 22.0139 3.14484 6.28969 -8.94963
114 1 1.5724 4.71725 7.86211 -8.94962
115 1 3.14483 3.14484 6.2897 -8.94973
116 1 4.71719 4.71727 7.86219 -8.95007
117 1 6.28946 3.14451 6.28946 -8.94943
118 1 7.86102 4.71555 7.86102 -8.94821
119 1 9.43454 3.14477 6.28963 -8.94937
120 1 11.0079 4.71587 7.86114 -8.94692
121 1 12.5795 3.14447 6.28948 -8.94963
122 1 14.1521 4.71687 7.86209 -8.95004
123 1 15.7243 3.14477 6.28966 -8.94967
124 1 17.2967 4.71721 7.8621 -8.94966
125 1 18.8691 3.14484 6.28968 -8.94964
126 1 20.4415 4.71726 7.86211 -8.94964
127 1 22.0139 6.28967 6.28967 -8.94963
128 1 1.57223 7.86201 7.86205 -8.94964
129 1 3.14464 6.28959 6.28962 -8.94978
130 1 4.71621 7.86184 7.86185 -8.95123
131 1 6.28843 6.28837 6.28843 -8.9472
132 1 7.85564 7.8575 7.85564 -9.01
133 1 9.43482 6.28956 6.28999 -8.951
134 1 11.0122 7.86115 7.85913 -9.03228
135 1 12.5802 6.28786 6.28885 -8.95129
136 1 14.1543 7.86038 7.8615 -8.94804
137 1 15.7246 6.2893 6.28944 -8.94929
138 1 17.2972 7.86179 7.86197 -8.94956
139 1 18.8691 6.28963 6.28965 -8.94958
140 1 20.4415 7.86207 7.86208 -8.9497
141 1 22.0138 9.43452 6.28966 -8.94981
142 1 3.14421 9.4344 6.28939 -8.95025
143 1 6.28649 9.4332 6.28649 -8.94702
144 1 9.43095 9.4337 6.29129 -9.04198
145 1 12.5911 9.4246 6.27809 -8.97405
146 1 15.7263 9.4339 6.28887 -8.95165
147 1 18.8693 9.43448 6.28961 -8.94999
148 1 -8.40221e-08 1.20794e-15 9.43453 -8.94963
149 1 3.14484 1.19334e-15 9.43453 -8.94965
150 1 6.28966 1.62877e-15 9.43453 -8.94955
151 1 9.43452 1.80233e-15 9.43452 -8.95061
152 1 12.5794 1.23397e-15 9.43452 -8.94963
153 1 15.7242 4.99244e-16 9.43453 -8.94964
154 1 18.8691 9.75311e-16 9.43453 -8.94963
155 1 22.0139 3.14484 9.43453 -8.94964
156 1 3.14482 3.14481 9.43452 -8.94962
182 1 20.4415 1.57242 11.007 -8.94963
176 1 1.57242 1.57242 11.007 -8.94963
343 1 18.8691 9.43453 18.8691 -8.94963
178 1 7.86198 1.57218 11.0071 -8.94967
179 1 11.0071 1.57214 11.0071 -8.94973
342 1 15.7242 9.43454 18.8691 -8.94963
341 1 12.5795 9.43446 18.8693 -8.94979
47 1 12.5794 9.43448 22.0137 -8.95003
183 1 1.57239 4.71724 11.007 -8.94963
340 1 9.43451 9.43441 18.8695 -8.94983
185 1 7.86114 4.71587 11.0079 -8.94692
186 1 11.0079 4.71562 11.0079 -8.94738
187 1 14.1521 4.71693 11.007 -8.94984
339 1 6.28961 9.43448 18.8693 -8.94999
338 1 3.14482 9.43453 18.8691 -8.9496
337 1 22.0139 9.43453 18.8691 -8.94964
336 1 20.4415 7.86211 20.4415 -8.94963
192 1 7.85913 7.86115 11.0122 -9.03228
193 1 11.0105 7.85964 11.0105 -9.05441
194 1 14.1534 7.86104 11.0072 -8.94972
195 1 17.2971 7.8619 11.0071 -8.94958
196 1 20.4415 7.86207 11.007 -8.94964
197 1 22.0139 1.61018e-15 12.5794 -8.94963
198 1 1.57242 1.57242 14.1518 -8.94964
199 1 3.14484 1.17714e-15 12.5794 -8.94964
200 1 4.71723 1.57236 14.1518 -8.94963
201 1 6.28964 1.27537e-15 12.5794 -8.94969
202 1 7.8621 1.57237 14.1518 -8.9497
203 1 9.43452 1.17311e-15 12.5794 -8.94963
204 1 11.0069 1.57238 14.1518 -8.94969
205 1 12.5794 6.76134e-16 12.5794 -8.94969
206 1 14.1518 1.57237 14.1518 -8.94959
207 1 15.7242 1.33509e-15 12.5794 -8.94966
208 1 17.2966 1.57241 14.1518 -8.94964
209 1 18.8691 5.88344e-16 12.5794 -8.94963
210 1 20.4415 1.57242 14.1518 -8.94963
211 1 22.0139 3.14484 12.5794 -8.94963
212 1 1.57242 4.71726 14.1518 -8.94976
213 1 3.14482 3.14484 12.5794 -8.94964
214 1 4.71706 4.71686 14.152 -8.94976
215 1 6.28948 3.14447 12.5795 -8.94963
216 1 7.86209 4.71687 14.1521 -8.95004
217 1 9.43451 3.1446 12.5794 -8.94961
218 1 11.007 4.71693 14.1521 -8.94984
219 1 12.5796 3.14443 12.5796 -8.94956
220 1 14.152 4.71694 14.152 -8.94946
221 1 15.7243 3.14478 12.5794 -8.94968
222 1 17.2967 4.71721 14.1518 -8.94962
223 1 18.8691 3.14484 12.5794 -8.94964
224 1 20.4415 4.71726 14.1518 -8.94963
225 1 -8.76471e-07 6.28967 12.5794 -8.94961
226 1 1.57202 7.86192 14.152 -8.94979
227 1 3.14479 6.28966 12.5792 -8.95007
228 1 4.71491 7.85979 14.154 -8.94433
229 1 6.28885 6.28786 12.5802 -8.95129
230 1 7.8615 7.86038 14.1543 -8.94804
231 1 9.43458 6.28867 12.5796 -8.95098
232 1 11.0072 7.86104 14.1534 -8.94972
233 1 12.5802 6.2879 12.5802 -8.95027
234 1 14.1531 7.86081 14.1531 -8.9469
235 1 15.7245 6.28938 12.5796 -8.94964
236 1 17.2969 7.86196 14.152 -8.9496
237 1 18.8691 6.28964 12.5794 -8.94962
238 1 20.4415 7.86208 14.1518 -8.94971
239 1 22.0137 9.43448 12.5794 -8.95003
240 1 3.1428 9.43385 12.58 -8.95137
241 1 6.27809 9.4246 12.5911 -8.97405
242 1 9.43118 9.43088 12.5855 -9.03232
243 1 12.5847 9.42703 12.5847 -9.01057
244 1 15.7256 9.43384 12.5801 -8.94944
245 1 18.8693 9.43446 12.5795 -8.94979
246 1 1.22761e-07 1.32833e-15 15.7242 -8.94964
247 1 1.57242 1.57242 17.2966 -8.94963
248 1 3.14483 1.60616e-15 15.7242 -8.94963
249 1 4.71726 1.57241 17.2966 -8.94963
250 1 6.28968 1.74755e-15 15.7242 -8.94966
251 1 7.86211 1.57241 17.2966 -8.94963
252 1 9.43453 3.8546e-16 15.7242 -8.94964
253 1 11.007 1.57241 17.2966 -8.94963
254 1 12.5794 1.36291e-15 15.7242 -8.94966
255 1 14.1518 1.57241 17.2966 -8.94964
256 1 15.7242 1.26641e-15 15.7242 -8.94961
257 1 17.2966 1.57242 17.2966 -8.94962
258 1 18.8691 1.50406e-15 15.7242 -8.94963
259 1 20.4415 1.57242 17.2966 -8.94963
260 1 1.57703e-06 3.14484 15.7242 -8.94966
261 1 1.57238 4.71722 17.2967 -8.94948
262 1 3.14481 3.14479 15.7242 -8.94962
263 1 4.71722 4.71721 17.2967 -8.9496
264 1 6.28966 3.14477 15.7243 -8.94967
265 1 7.8621 4.71721 17.2967 -8.94966
266 1 9.43453 3.14476 15.7243 -8.94958
267 1 11.007 4.71721 17.2967 -8.94961
268 1 12.5794 3.14478 15.7243 -8.94968
269 1 14.1518 4.71721 17.2967 -8.94962
270 1 15.7242 3.1448 15.7242 -8.94958
271 1 17.2967 4.71724 17.2967 -8.94957
272 1 18.8691 3.14484 15.7242 -8.94963
273 1 20.4415 4.71726 17.2966 -8.94962
274 1 22.0138 6.28965 15.7242 -8.94962
275 1 1.5724 7.86211 17.2967 -8.94969
276 1 3.14447 6.28933 15.7246 -8.94863
277 1 4.71705 7.86192 17.297 -8.94979
278 1 6.28944 6.2893 15.7246 -8.94929
279 1 7.86197 7.86179 17.2972 -8.94956
280 1 9.43459 6.28928 15.7246 -8.94916
281 1 11.0071 7.8619 17.2971 -8.94958
282 1 12.5796 6.28938 15.7245 -8.94964
283 1 14.152 7.86196 17.2969 -8.9496
284 1 15.7244 6.28951 15.7244 -8.94914
285 1 17.2966 7.86212 17.2966 -8.94973
286 1 18.8691 6.28966 15.7242 -8.94961
287 1 20.4415 7.86211 17.2966 -8.94964
288 1 22.0139 9.43453 15.7242 -8.9496
289 1 3.14464 9.43449 15.7244 -8.94961
290 1 6.28887 9.4339 15.7263 -8.95165
291 1 9.43414 9.43348 15.7266 -8.94844
292 1 12.5801 9.43384 15.7256 -8.94944
293 1 15.7243 9.43461 15.7243 -8.95005
294 1 18.8691 9.43454 15.7242 -8.94963
295 1 22.0139 1.75099e-15 18.8691 -8.94963
296 1 1.57242 1.57242 20.4415 -8.94963
297 1 3.14484 1.41793e-15 18.8691 -8.94963
298 1 4.71726 1.57242 20.4415 -8.94964
299 1 6.28969 3.58333e-16 18.8691 -8.94963
300 1 7.86211 1.57242 20.4415 -8.94963
301 1 9.43453 1.00333e-15 18.8691 -8.94963
302 1 11.007 1.57242 20.4415 -8.94963
303 1 12.5794 6.09293e-16 18.8691 -8.94963
304 1 14.1518 1.57242 20.4415 -8.94963
305 1 15.7242 1.64749e-15 18.8691 -8.94963
306 1 17.2966 1.57242 20.4415 -8.94963
307 1 18.8691 1.77852e-15 18.8691 -8.94963
308 1 20.4415 1.57242 20.4415 -8.94963
309 1 22.0139 3.14484 18.8691 -8.94961
310 1 1.57242 4.71726 20.4415 -8.94962
311 1 3.14484 3.14484 18.8691 -8.94963
312 1 4.71726 4.71726 20.4415 -8.94962
313 1 6.28968 3.14484 18.8691 -8.94964
314 1 7.86211 4.71726 20.4415 -8.94964
315 1 9.43453 3.14484 18.8691 -8.94964
316 1 11.007 4.71726 20.4415 -8.94963
317 1 12.5794 3.14484 18.8691 -8.94964
318 1 14.1518 4.71726 20.4415 -8.94963
319 1 15.7242 3.14484 18.8691 -8.94963
320 1 17.2966 4.71726 20.4415 -8.94962
321 1 18.8691 3.14484 18.8691 -8.94962
322 1 20.4415 4.71726 20.4415 -8.94964
323 1 22.0139 6.28969 18.8691 -8.94965
324 1 1.57242 7.86211 20.4415 -8.94963
325 1 3.14481 6.28965 18.8691 -8.94962
326 1 4.71724 7.86209 20.4415 -8.9497
327 1 6.28965 6.28963 18.8691 -8.94958
328 1 7.86208 7.86207 20.4415 -8.9497
329 1 9.43454 6.28964 18.8691 -8.94961
330 1 11.007 7.86207 20.4415 -8.94964
331 1 12.5794 6.28964 18.8691 -8.94962
332 1 14.1518 7.86208 20.4415 -8.94971
333 1 15.7242 6.28966 18.8691 -8.94961
334 1 17.2966 7.86211 20.4415 -8.94964
335 1 18.8691 6.28969 18.8691 -8.94965
1 1 22.0139 1.79068e-15 22.0139 -8.94963
3 1 3.14484 1.29221e-15 22.0139 -8.94964
9 1 12.5794 1.60854e-15 22.0139 -8.94963
13 1 18.8691 1.79377e-15 22.0139 -8.94963
15 1 22.0139 3.14484 22.0139 -8.94963
19 1 6.28969 3.14484 22.0139 -8.94963
21 1 9.43453 3.14484 22.0139 -8.94964
23 1 12.5794 3.14484 22.0139 -8.94963
27 1 18.8691 3.14484 22.0139 -8.94961
31 1 3.14483 6.28967 22.0139 -8.94963
33 1 6.28967 6.28967 22.0139 -8.94963
35 1 9.43453 6.28966 22.0139 -8.94962
39 1 15.7242 6.28965 22.0138 -8.94962
43 1 22.0139 9.43453 22.0139 -8.94964
45 1 6.28966 9.43452 22.0138 -8.94981
46 1 9.43449 9.43445 22.0138 -8.94959
5 1 6.28969 1.71185e-15 22.0139 -8.94963
17 1 3.14484 3.14484 22.0139 -8.94963
29 1 22.0139 6.28969 22.0139 -8.94964
189 1 20.4415 4.71726 11.007 -8.94963
188 1 17.2967 4.71721 11.007 -8.94961
41 1 18.8691 6.28969 22.0139 -8.94965
181 1 17.2966 1.57241 11.007 -8.94963
44 1 3.14483 9.43453 22.0139 -8.94962
48 1 15.7242 9.43453 22.0139 -8.9496
49 1 18.8691 9.43453 22.0139 -8.94964
344 1 1.57242 11.007 1.57242 -8.94965
345 1 4.7172 11.007 1.57231 -8.94954
346 1 7.86213 11.007 1.57213 -8.95014
347 1 11.0068 11.007 1.57129 -8.952
348 1 14.1519 11.007 1.57211 -8.94947
349 1 17.2967 11.007 1.5724 -8.94966
350 1 20.4415 11.007 1.57242 -8.94964
688 2 10.3145 11.007 9.34967 0.567582
352 1 1.57242 14.1518 1.57242 -8.94965
537 1 14.1518 20.4415 11.0069 -8.94969
354 1 4.7172 14.1519 1.57231 -8.94965
687 2 9.34967 11.007 10.3145 0.567582
356 1 7.86205 14.1519 1.57223 -8.94964
511 1 18.8691 18.8691 9.43453 -8.94964
358 1 11.0069 14.1519 1.5723 -8.94942
510 1 15.7243 18.8691 9.43453 -8.94958
360 1 14.152 14.152 1.57202 -8.94979
534 1 4.71725 20.4415 11.0069 -8.94963
362 1 17.2967 14.1518 1.5724 -8.94969
527 1 4.7171 17.2967 11.0068 -8.94962
364 1 20.4415 14.1518 1.57242 -8.94963
520 1 4.71684 14.1517 11.0062 -8.95085
366 1 1.57241 17.2966 1.57241 -8.9496
509 1 12.5794 18.8693 9.43451 -8.94961
368 1 4.71725 17.2967 1.5724 -8.94965
508 1 9.43452 18.871 9.43452 -8.95382
370 1 7.86211 17.2967 1.5724 -8.94962
507 1 6.28963 18.8691 9.43454 -8.94937
372 1 11.007 17.2967 1.57239 -8.94963
373 1 12.5794 15.7242 -8.76471e-07 -8.94961
374 1 14.1518 17.2966 1.57242 -8.94976
506 1 3.14482 18.8691 9.43452 -8.94962
376 1 17.2967 17.2967 1.57238 -8.94948
519 1 1.5723 14.1519 11.0069 -8.94942
378 1 20.4415 17.2966 1.57242 -8.94962
505 1 22.0139 18.8691 9.43453 -8.94964
380 1 1.57242 20.4415 1.57242 -8.94962
516 1 14.162 11.007 11.0066 -9.01306
382 1 4.71727 20.4415 1.57242 -8.94965
504 1 18.8691 15.7243 9.43454 -8.94961
384 1 7.86211 20.4415 1.57242 -8.94963
503 1 15.7246 15.7246 9.43459 -8.94916
386 1 11.007 20.4415 1.57242 -8.94963
502 1 12.5796 15.7252 9.43458 -8.95098
388 1 14.1518 20.4415 1.57242 -8.94964
389 1 15.7242 18.8691 1.57703e-06 -8.94966
390 1 17.2966 20.4415 1.57242 -8.94963
501 1 9.43432 15.7388 9.43432 -8.97108
392 1 20.4415 20.4415 1.57242 -8.94963
393 1 1.57231 11.007 4.7172 -8.94954
394 1 4.71675 11.007 4.71675 -8.94851
395 1 7.86186 11.007 4.71525 -8.95367
396 1 11.0069 11.007 4.70822 -8.97358
397 1 14.1531 11.007 4.7157 -8.94783
398 1 17.2969 11.007 4.71707 -8.94938
399 1 20.4415 11.007 4.71724 -8.94964
400 1 22.0139 12.5794 3.14483 -8.94962
401 1 1.57231 14.1519 4.7172 -8.94965
402 1 3.14478 12.5794 3.14478 -8.94965
403 1 4.71671 14.1523 4.71671 -8.9486
404 1 6.28939 12.5795 3.14421 -8.95025
405 1 7.86185 14.1521 4.71621 -8.95123
406 1 9.43403 12.58 3.1442 -8.9469
407 1 11.0062 14.1517 4.71684 -8.95085
408 1 12.58 12.58 3.1428 -8.95137
409 1 14.154 14.1541 4.71491 -8.94433
410 1 15.7244 12.5794 3.14464 -8.94961
411 1 17.297 14.152 4.71705 -8.94979
412 1 18.8691 12.5794 3.14482 -8.9496
413 1 20.4415 14.1518 4.71724 -8.9497
414 1 22.0139 15.7242 3.14483 -8.94963
415 1 1.5724 17.2967 4.71725 -8.94965
416 1 3.14476 15.7243 3.14476 -8.94944
417 1 4.71708 17.2969 4.71708 -8.94916
418 1 6.28962 15.7243 3.14464 -8.94978
419 1 7.86219 17.2966 4.71719 -8.95007
420 1 9.43451 15.7244 3.14474 -8.94932
421 1 11.0068 17.2967 4.7171 -8.94962
422 1 12.5792 15.7242 3.14479 -8.95007
423 1 14.152 17.297 4.71706 -8.94976
424 1 15.7246 15.7246 3.14447 -8.94863
425 1 17.2967 17.2967 4.71722 -8.9496
426 1 18.8691 15.7242 3.14481 -8.94962
427 1 20.4415 17.2966 4.71726 -8.94962
428 1 22.0139 18.8691 3.14484 -8.94963
429 1 1.57242 20.4415 4.71727 -8.94965
430 1 3.14482 18.8691 3.14482 -8.94956
431 1 4.71723 20.4415 4.71723 -8.94958
432 1 6.2897 18.8691 3.14483 -8.94973
433 1 7.86212 20.4415 4.71725 -8.94963
434 1 9.43452 18.8691 3.14482 -8.94962
435 1 11.0069 20.4415 4.71725 -8.94963
436 1 12.5794 18.8691 3.14482 -8.94964
437 1 14.1518 20.4415 4.71723 -8.94963
438 1 15.7242 18.8691 3.14481 -8.94962
439 1 17.2966 20.4415 4.71726 -8.94963
440 1 18.8691 18.8691 3.14484 -8.94963
441 1 20.4415 20.4415 4.71726 -8.94964
442 1 1.57213 11.007 7.86213 -8.95014
443 1 4.71525 11.007 7.86186 -8.95367
444 1 7.84995 11.007 7.84995 -9.0105
445 1 11.0447 11.007 7.77947 -9.27387
446 1 14.1589 11.007 7.86004 -9.00952
447 1 17.2979 11.007 7.86205 -8.95087
448 1 20.4416 11.007 7.8621 -8.94987
449 1 22.0138 12.5794 6.28966 -8.94981
450 1 1.57223 14.1519 7.86205 -8.94964
451 1 3.14421 12.5795 6.28939 -8.95025
452 1 4.71621 14.1521 7.86185 -8.95123
453 1 6.28649 12.5807 6.28649 -8.94702
454 1 7.85564 14.1564 7.85564 -9.01
455 1 9.43095 12.5802 6.29129 -9.04198
456 1 11.0122 14.1527 7.85913 -9.03228
457 1 12.5911 12.5893 6.27809 -8.97405
458 1 14.1543 14.1535 7.8615 -8.94804
459 1 15.7263 12.58 6.28887 -8.95165
460 1 17.2972 14.1521 7.86197 -8.94956
461 1 18.8693 12.5794 6.28961 -8.94999
462 1 20.4415 14.1518 7.86208 -8.9497
463 1 22.0139 15.7242 6.28967 -8.94963
464 1 1.5724 17.2967 7.86211 -8.94962
465 1 3.14464 15.7243 6.28962 -8.94978
466 1 4.71719 17.2966 7.86219 -8.95007
467 1 6.28843 15.7255 6.28843 -8.9472
468 1 7.86102 17.2984 7.86102 -8.94821
469 1 9.43482 15.7243 6.28999 -8.951
470 1 11.0079 17.298 7.86114 -8.94692
471 1 12.5802 15.726 6.28885 -8.95129
472 1 14.1521 17.297 7.86209 -8.95004
473 1 15.7246 15.7246 6.28944 -8.94929
474 1 17.2967 17.2967 7.8621 -8.94966
475 1 18.8691 15.7243 6.28965 -8.94958
476 1 20.4415 17.2966 7.86211 -8.94964
477 1 22.0139 18.8691 6.28969 -8.94963
478 1 1.57242 20.4415 7.86211 -8.94963
479 1 3.14483 18.8691 6.2897 -8.94973
480 1 4.71725 20.4415 7.86212 -8.94963
481 1 6.28946 18.8694 6.28946 -8.94943
482 1 7.86199 20.4417 7.86199 -8.94982
483 1 9.43454 18.8691 6.28963 -8.94937
484 1 11.0071 20.4417 7.86198 -8.94967
485 1 12.5795 18.8694 6.28948 -8.94963
486 1 14.1518 20.4415 7.8621 -8.9497
487 1 15.7243 18.8691 6.28966 -8.94967
488 1 17.2966 20.4415 7.86211 -8.94963
489 1 18.8691 18.8691 6.28968 -8.94964
490 1 20.4415 20.4415 7.86211 -8.94963
491 1 22.0138 12.5795 9.43449 -8.94959
492 1 3.1442 12.58 9.43403 -8.9469
493 1 6.29129 12.5802 9.43095 -9.04198
494 1 9.41643 12.6598 9.41643 -9.36897
495 1 12.5855 12.583 9.43118 -9.03232
496 1 15.7266 12.5804 9.43414 -8.94844
497 1 18.8695 12.5795 9.43451 -8.94983
498 1 22.0139 15.7242 9.43453 -8.94962
499 1 3.14474 15.7244 9.43451 -8.94932
500 1 6.28999 15.7243 9.43482 -8.951
512 1 1.57129 11.007 11.0068 -8.952
513 1 4.70822 11.007 11.0069 -8.97358
539 1 20.4415 20.4415 11.007 -8.94963
686 1 20.4415 20.4415 20.4415 -8.94963
685 1 18.8691 18.8691 18.8691 -8.94962
514 1 7.77947 11.007 11.0447 -9.27387
515 1 11.0691 11.007 11.0691 -9.33357
684 1 17.2966 20.4415 20.4415 -8.94963
517 1 17.2982 11.007 11.007 -8.95214
518 1 20.4416 11.007 11.007 -8.9502
683 1 15.7242 18.8691 18.8691 -8.94963
682 1 14.1518 20.4415 20.4415 -8.94963
521 1 7.85913 14.1527 11.0122 -9.03228
522 1 11.0105 14.1543 11.0105 -9.05441
523 1 14.1534 14.1529 11.0072 -8.94972
524 1 17.2971 14.152 11.0071 -8.94958
525 1 20.4415 14.1518 11.007 -8.94964
526 1 1.57239 17.2967 11.007 -8.94963
681 1 12.5794 18.8691 18.8691 -8.94964
528 1 7.86114 17.298 11.0079 -8.94692
529 1 11.0079 17.2983 11.0079 -8.94738
530 1 14.1521 17.297 11.007 -8.94984
680 1 11.007 20.4415 20.4415 -8.94963
679 1 9.43453 18.8691 18.8691 -8.94964
533 1 1.57242 20.4415 11.007 -8.94963
678 1 7.86211 20.4415 20.4415 -8.94963
535 1 7.86198 20.4417 11.0071 -8.94967
536 1 11.0071 20.4418 11.0071 -8.94973
677 1 6.28968 18.8691 18.8691 -8.94964
676 1 4.71726 20.4415 20.4415 -8.94964
391 1 18.8691 18.8691 22.0139 -8.94961
540 1 1.57211 11.007 14.1519 -8.94947
541 1 4.7157 11.007 14.1531 -8.94783
542 1 7.86004 11.007 14.1589 -9.00952
543 1 11.0066 11.007 14.162 -9.01306
544 1 14.1517 11.007 14.1517 -8.95068
545 1 17.2967 11.007 14.1519 -8.94926
546 1 20.4415 11.007 14.1518 -8.94961
547 1 22.0137 12.5794 12.5794 -8.95003
548 1 1.57202 14.152 14.152 -8.94979
549 1 3.1428 12.58 12.58 -8.95137
550 1 4.71491 14.1541 14.154 -8.94433
551 1 6.27809 12.5893 12.5911 -8.97405
552 1 7.8615 14.1535 14.1543 -8.94804
553 1 9.43118 12.583 12.5855 -9.03232
554 1 11.0072 14.1529 14.1534 -8.94972
555 1 12.5847 12.5869 12.5847 -9.01057
556 1 14.1531 14.1531 14.1531 -8.9469
557 1 15.7256 12.5801 12.5801 -8.94944
558 1 17.2969 14.1519 14.152 -8.9496
559 1 18.8693 12.5794 12.5795 -8.94979
560 1 20.4415 14.1518 14.1518 -8.94971
561 1 -8.76471e-07 15.7242 12.5794 -8.94961
562 1 1.57242 17.2966 14.1518 -8.94976
563 1 3.14479 15.7242 12.5792 -8.95007
564 1 4.71706 17.297 14.152 -8.94976
565 1 6.28885 15.726 12.5802 -8.95129
566 1 7.86209 17.297 14.1521 -8.95004
567 1 9.43458 15.7252 12.5796 -8.95098
568 1 11.007 17.297 14.1521 -8.94984
569 1 12.5802 15.726 12.5802 -8.95027
570 1 14.152 17.297 14.152 -8.94946
571 1 15.7245 15.7245 12.5796 -8.94964
572 1 17.2967 17.2967 14.1518 -8.94962
573 1 18.8691 15.7243 12.5794 -8.94962
574 1 20.4415 17.2966 14.1518 -8.94963
575 1 22.0139 18.8691 12.5794 -8.94963
576 1 1.57242 20.4415 14.1518 -8.94964
577 1 3.14482 18.8691 12.5794 -8.94964
578 1 4.71723 20.4415 14.1518 -8.94963
579 1 6.28948 18.8694 12.5795 -8.94963
580 1 7.8621 20.4415 14.1518 -8.9497
581 1 9.43451 18.8693 12.5794 -8.94961
582 1 11.0069 20.4415 14.1518 -8.94969
583 1 12.5796 18.8695 12.5796 -8.94956
584 1 14.1518 20.4415 14.1518 -8.94959
585 1 15.7243 18.8691 12.5794 -8.94968
586 1 17.2966 20.4415 14.1518 -8.94964
587 1 18.8691 18.8691 12.5794 -8.94964
588 1 20.4415 20.4415 14.1518 -8.94963
589 1 1.5724 11.007 17.2967 -8.94966
590 1 4.71707 11.007 17.2969 -8.94938
591 1 7.86205 11.007 17.2979 -8.95087
592 1 11.007 11.007 17.2982 -8.95214
593 1 14.1519 11.007 17.2967 -8.94926
594 1 17.2967 11.007 17.2967 -8.94962
595 1 20.4415 11.007 17.2966 -8.94964
596 1 22.0139 12.5794 15.7242 -8.9496
597 1 1.5724 14.1518 17.2967 -8.94969
598 1 3.14464 12.5794 15.7244 -8.94961
599 1 4.71705 14.152 17.297 -8.94979
600 1 6.28887 12.58 15.7263 -8.95165
601 1 7.86197 14.1521 17.2972 -8.94956
602 1 9.43414 12.5804 15.7266 -8.94844
603 1 11.0071 14.152 17.2971 -8.94958
604 1 12.5801 12.5801 15.7256 -8.94944
605 1 14.152 14.1519 17.2969 -8.9496
606 1 15.7243 12.5793 15.7243 -8.95005
607 1 17.2966 14.1518 17.2966 -8.94973
608 1 18.8691 12.5794 15.7242 -8.94963
609 1 20.4415 14.1518 17.2966 -8.94964
610 1 22.0138 15.7242 15.7242 -8.94962
611 1 1.57238 17.2967 17.2967 -8.94948
612 1 3.14447 15.7246 15.7246 -8.94863
613 1 4.71722 17.2967 17.2967 -8.9496
614 1 6.28944 15.7246 15.7246 -8.94929
615 1 7.8621 17.2967 17.2967 -8.94966
616 1 9.43459 15.7246 15.7246 -8.94916
617 1 11.007 17.2967 17.2967 -8.94961
618 1 12.5796 15.7245 15.7245 -8.94964
619 1 14.1518 17.2967 17.2967 -8.94962
620 1 15.7244 15.7244 15.7244 -8.94914
621 1 17.2967 17.2967 17.2967 -8.94957
622 1 18.8691 15.7242 15.7242 -8.94961
623 1 20.4415 17.2966 17.2966 -8.94962
624 1 1.57703e-06 18.8691 15.7242 -8.94966
625 1 1.57242 20.4415 17.2966 -8.94963
626 1 3.14481 18.8691 15.7242 -8.94962
627 1 4.71726 20.4415 17.2966 -8.94963
628 1 6.28966 18.8691 15.7243 -8.94967
629 1 7.86211 20.4415 17.2966 -8.94963
630 1 9.43453 18.8691 15.7243 -8.94958
631 1 11.007 20.4415 17.2966 -8.94963
632 1 12.5794 18.8691 15.7243 -8.94968
633 1 14.1518 20.4415 17.2966 -8.94964
634 1 15.7242 18.8691 15.7242 -8.94958
635 1 17.2966 20.4415 17.2966 -8.94962
636 1 18.8691 18.8691 15.7242 -8.94963
637 1 20.4415 20.4415 17.2966 -8.94963
638 1 1.57242 11.007 20.4415 -8.94964
639 1 4.71724 11.007 20.4415 -8.94964
640 1 7.8621 11.007 20.4416 -8.94987
641 1 11.007 11.007 20.4416 -8.9502
642 1 14.1518 11.007 20.4415 -8.94961
643 1 17.2966 11.007 20.4415 -8.94964
644 1 20.4415 11.007 20.4415 -8.94963
645 1 22.0139 12.5794 18.8691 -8.94964
646 1 1.57242 14.1518 20.4415 -8.94963
647 1 3.14482 12.5794 18.8691 -8.9496
648 1 4.71724 14.1518 20.4415 -8.9497
649 1 6.28961 12.5794 18.8693 -8.94999
650 1 7.86208 14.1518 20.4415 -8.9497
651 1 9.43451 12.5795 18.8695 -8.94983
652 1 11.007 14.1518 20.4415 -8.94964
653 1 12.5795 12.5794 18.8693 -8.94979
654 1 14.1518 14.1518 20.4415 -8.94971
655 1 15.7242 12.5794 18.8691 -8.94963
656 1 17.2966 14.1518 20.4415 -8.94964
657 1 18.8691 12.5794 18.8691 -8.94963
658 1 20.4415 14.1518 20.4415 -8.94963
659 1 22.0139 15.7242 18.8691 -8.94965
660 1 1.57242 17.2966 20.4415 -8.94962
661 1 3.14481 15.7242 18.8691 -8.94962
662 1 4.71726 17.2966 20.4415 -8.94962
663 1 6.28965 15.7243 18.8691 -8.94958
664 1 7.86211 17.2966 20.4415 -8.94964
665 1 9.43454 15.7243 18.8691 -8.94961
666 1 11.007 17.2966 20.4415 -8.94963
667 1 12.5794 15.7243 18.8691 -8.94962
668 1 14.1518 17.2966 20.4415 -8.94963
669 1 15.7242 15.7242 18.8691 -8.94961
670 1 17.2966 17.2966 20.4415 -8.94962
671 1 18.8691 15.7242 18.8691 -8.94965
672 1 20.4415 17.2966 20.4415 -8.94964
673 1 22.0139 18.8691 18.8691 -8.94961
674 1 1.57242 20.4415 20.4415 -8.94963
675 1 3.14484 18.8691 18.8691 -8.94963
351 1 22.0139 12.5794 22.0139 -8.94964
355 1 6.28966 12.5794 22.0138 -8.94981
357 1 9.43449 12.5795 22.0138 -8.94959
359 1 12.5794 12.5794 22.0137 -8.95003
367 1 3.14483 15.7242 22.0139 -8.94963
369 1 6.28967 15.7242 22.0139 -8.94963
371 1 9.43453 15.7242 22.0139 -8.94962
375 1 15.7242 15.7242 22.0138 -8.94962
379 1 22.0139 18.8691 22.0139 -8.94963
383 1 6.28969 18.8691 22.0139 -8.94963
385 1 9.43453 18.8691 22.0139 -8.94964
387 1 12.5794 18.8691 22.0139 -8.94963
353 1 3.14483 12.5794 22.0139 -8.94962
538 1 17.2966 20.4415 11.007 -8.94963
361 1 15.7242 12.5794 22.0139 -8.9496
363 1 18.8691 12.5794 22.0139 -8.94964
532 1 20.4415 17.2966 11.007 -8.94963
531 1 17.2967 17.2967 11.007 -8.94961
365 1 22.0139 15.7242 22.0139 -8.94964
377 1 18.8691 15.7242 22.0139 -8.94965
381 1 3.14484 18.8691 22.0139 -8.94963
