ITEM: TIMESTEP
22
ITEM: NUMBER OF ATOMS
688
ITEM: BOX BOUNDS pp pp pp
0.0000000000000000e+00 2.2013900999999997e+01
0.0000000000000000e+00 2.2013900999999997e+01
0.0000000000000000e+00 2.2013900999999997e+01
ITEM: ATOMS id type x y z c_pot
175 1 18.8695 9.43442 9.43451 -8.94983
2 1 1.57242 1.57242 1.57242 -8.94962
174 1 15.7265 9.4335 9.43416 -8.94848
4 1 4.71727 1.57242 1.57242 -8.94965
191 1 4.71689 7.86217 11.0062 -8.95087
6 1 7.86211 1.57242 1.57242 -8.94963
7 1 9.43453 1.5625e-15 9.60282e-09 -8.94963
8 1 11.007 1.57242 1.57242 -8.94963
173 1 12.5854 9.43082 9.43129 -9.03231
10 1 14.1518 1.57242 1.57242 -8.94964
11 1 15.7242 1.28582e-15 1.44796e-07 -8.94964
12 1 17.2966 1.57242 1.57242 -8.94963
172 1 9.41643 9.35408 9.41643 -9.36881
14 1 20.4415 1.57242 1.57242 -8.94963
171 1 6.29135 9.43375 9.43099 -9.04208
16 1 1.57241 4.71726 1.57241 -8.94961
190 1 1.57231 7.86204 11.0069 -8.94944
18 1 4.71725 4.71725 1.5724 -8.94965
170 1 3.14424 9.43395 9.43406 -8.94693
20 1 7.86211 4.71725 1.57241 -8.94962
169 1 22.0138 9.43445 9.43449 -8.94959
22 1 11.007 4.71725 1.5724 -8.94963
168 1 18.8691 6.28965 9.43454 -8.94961
24 1 14.1518 4.71727 1.57242 -8.94975
25 1 15.7242 3.14484 1.64504e-06 -8.94965
26 1 17.2967 4.71723 1.57238 -8.94949
167 1 15.7245 6.28931 9.43459 -8.94917
28 1 20.4415 4.71726 1.57242 -8.94963
184 1 4.71712 4.7172 11.0069 -8.94962
30 1 1.57242 7.86211 1.57242 -8.94965
166 1 12.5796 6.28869 9.43458 -8.95101
32 1 4.7172 7.86205 1.57232 -8.94965
165 1 9.43432 6.27525 9.43432 -8.971
34 1 7.86206 7.86202 1.57224 -8.94964
164 1 6.29 6.2896 9.43481 -8.951
36 1 11.0069 7.86204 1.57231 -8.94944
37 1 12.5794 6.28968 1.08756e-06 -8.94962
38 1 14.152 7.86194 1.57206 -8.94979
163 1 3.14475 6.28952 9.43452 -8.94933
40 1 17.2966 7.86211 1.57241 -8.94969
180 1 14.1518 1.57238 11.0069 -8.94969
42 1 20.4415 7.86211 1.57242 -8.94963
162 1 22.0139 6.28967 9.43453 -8.94963
177 1 4.71725 1.57241 11.0069 -8.94963
161 1 18.8691 3.14484 9.43453 -8.94964
160 1 15.7243 3.14477 9.43453 -8.94958
159 1 12.5794 3.14462 9.43451 -8.94963
158 1 9.43452 3.14296 9.43452 -8.95377
157 1 6.28964 3.14478 9.43454 -8.94938
50 1 22.0139 1.46646e-15 3.14484 -8.94964
51 1 1.57242 1.57242 4.71727 -8.94965
52 1 3.14484 1.37429e-15 3.14484 -8.94961
53 1 4.71723 1.57238 4.71723 -8.94958
54 1 6.28969 8.0244e-16 3.14484 -8.94965
55 1 7.86212 1.57242 4.71726 -8.94963
56 1 9.43453 1.35751e-15 3.14484 -8.94964
57 1 11.0069 1.57241 4.71725 -8.94963
58 1 12.5794 1.20679e-15 3.14484 -8.94964
59 1 14.1518 1.57237 4.71723 -8.94963
60 1 15.7242 1.71459e-15 3.14484 -8.94963
61 1 17.2966 1.57241 4.71726 -8.94963
62 1 18.8691 1.56075e-15 3.14484 -8.94963
63 1 20.4415 1.57242 4.71726 -8.94964
64 1 22.0139 3.14484 3.14484 -8.94963
65 1 1.5724 4.71725 4.71725 -8.94965
66 1 3.14482 3.14482 3.14482 -8.94957
67 1 4.71709 4.71704 4.71709 -8.94918
68 1 6.2897 3.14484 3.14484 -8.94972
69 1 7.86219 4.71728 4.7172 -8.95006
70 1 9.43452 3.14481 3.14482 -8.94962
71 1 11.0069 4.7172 4.71712 -8.94962
72 1 12.5794 3.14484 3.14483 -8.94964
73 1 14.152 4.71689 4.71708 -8.94975
74 1 15.7242 3.14479 3.14481 -8.94962
75 1 17.2967 4.71721 4.71723 -8.9496
76 1 18.8691 3.14484 3.14484 -8.94963
77 1 20.4415 4.71726 4.71726 -8.94962
78 1 22.0139 6.28968 3.14483 -8.94963
79 1 1.57232 7.86205 4.7172 -8.94965
80 1 3.14477 6.28961 3.14477 -8.94945
81 1 4.71674 7.86161 4.71674 -8.9486
82 1 6.28963 6.2896 3.14466 -8.94978
83 1 7.86188 7.86186 4.71625 -8.95123
84 1 9.43452 6.28952 3.14475 -8.94933
85 1 11.0062 7.86217 4.71689 -8.95087
86 1 12.5792 6.28967 3.1448 -8.95007
87 1 14.1539 7.8599 4.71502 -8.94442
88 1 15.7245 6.28937 3.1445 -8.94868
89 1 17.297 7.86194 4.71707 -8.94978
90 1 18.8691 6.28966 3.14481 -8.94962
91 1 20.4415 7.86209 4.71725 -8.94969
92 1 22.0139 9.43453 3.14484 -8.94962
93 1 3.14479 9.43451 3.14479 -8.94965
94 1 6.2894 9.4344 3.14424 -8.95023
95 1 9.43406 9.43395 3.14424 -8.94693
96 1 12.58 9.43389 3.14291 -8.95134
97 1 15.7244 9.4345 3.14467 -8.94963
98 1 18.8691 9.43453 3.14482 -8.9496
99 1 22.0139 1.34013e-15 6.28969 -8.94963
100 1 1.57242 1.57242 7.86211 -8.94963
101 1 3.14484 7.60381e-16 6.28969 -8.94965
102 1 4.71726 1.57242 7.86212 -8.94963
103 1 6.28965 1.81861e-15 6.28965 -8.94967
104 1 7.862 1.57219 7.862 -8.9498
105 1 9.43453 1.79118e-15 6.28967 -8.94956
106 1 11.007 1.5722 7.86199 -8.94967
107 1 12.5794 1.4057e-15 6.28965 -8.94969
108 1 14.1518 1.57238 7.8621 -8.9497
109 1 15.7242 1.78617e-15 6.28968 -8.94966
110 1 17.2966 1.57242 7.86211 -8.94963
111 1 18.8691 5.50744e-16 6.28969 -8.94963
112 1 20.4415 1.57242 7.86211 -8.94963
113 1 22.0139 3.14484 6.28969 -8.94963
114 1 1.57241 4.71725 7.86211 -8.94962
115 1 3.14484 3.14484 6.2897 -8.94972
116 1 4.7172 4.71728 7.86219 -8.95006
117 1 6.28948 3.14454 6.28948 -8.94944
118 1 7.86106 4.71563 7.86106 -8.94822
119 1 9.43454 3.14478 6.28964 -8.94938
120 1 11.0079 4.71594 7.86117 -8.94695
121 1 12.5795 3.14449 6.2895 -8.94963
122 1 14.152 4.7169 7.86208 -8.95004
123 1 15.7243 3.14478 6.28966 -8.94966
124 1 17.2967 4.71722 7.8621 -8.94967
125 1 18.8691 3.14484 6.28969 -8.94964
126 1 20.4415 4.71726 7.86211 -8.94964
127 1 22.0139 6.28967 6.28967 -8.94963
128 1 1.57224 7.86202 7.86206 -8.94964
129 1 3.14466 6.2896 6.28963 -8.94978
130 1 4.71625 7.86186 7.86188 -8.95123
131 1 6.28848 6.28842 6.28848 -8.94723
132 1 7.85567 7.8576 7.85567 -9.01002
133 1 9.43481 6.2896 6.29 -8.951
134 1 11.0121 7.86118 7.85919 -9.03225
135 1 12.5801 6.28793 6.2889 -8.95126
136 1 14.1542 7.86041 7.86151 -8.94804
137 1 15.7246 6.28933 6.28945 -8.94929
138 1 17.2972 7.86181 7.86198 -8.94957
139 1 18.8691 6.28963 6.28965 -8.94958
140 1 20.4415 7.86207 7.86209 -8.94969
141 1 22.0139 9.43452 6.28966 -8.9498
142 1 3.14424 9.4344 6.2894 -8.95023
143 1 6.28654 9.4332 6.28654 -8.94699
144 1 9.43099 9.43375 6.29135 -9.04208
145 1 12.5909 9.42472 6.27833 -8.97412
146 1 15.7262 9.43393 6.28892 -8.95161
147 1 18.8693 9.43449 6.28962 -8.94997
148 1 9.60282e-09 1.20597e-15 9.43453 -8.94963
149 1 3.14484 1.22819e-15 9.43453 -8.94964
150 1 6.28967 1.59356e-15 9.43453 -8.94956
151 1 9.43452 1.84647e-15 9.43452 -8.95057
152 1 12.5794 1.16651e-15 9.43452 -8.94963
153 1 15.7242 4.47697e-16 9.43453 -8.94964
154 1 18.8691 9.77839e-16 9.43453 -8.94963
155 1 22.0139 3.14484 9.43453 -8.94964
156 1 3.14482 3.14481 9.43452 -8.94962
182 1 20.4415 1.57242 11.007 -8.94963
176 1 1.57242 1.57242 11.007 -8.94963
343 1 18.8691 9.43453 18.8691 -8.94963
178 1 7.86199 1.5722 11.007 -8.94967
179 1 11.0071 1.57216 11.0071 -8.94973
342 1 15.7242 9.43454 18.8691 -8.94963
341 1 12.5795 9.43446 18.8692 -8.94978
47 1 12.5794 9.43448 22.0137 -8.95001
183 1 1.5724 4.71725 11.007 -8.94963
340 1 9.43451 9.43442 18.8695 -8.94983
185 1 7.86117 4.71594 11.0079 -8.94695
186 1 11.0079 4.71569 11.0079 -8.94741
187 1 14.152 4.71695 11.007 -8.94984
339 1 6.28962 9.43449 18.8693 -8.94997
338 1 3.14482 9.43453 18.8691 -8.9496
337 1 22.0139 9.43453 18.8691 -8.94964
336 1 20.4415 7.86211 20.4415 -8.94963
192 1 7.85919 7.86118 11.0121 -9.03225
193 1 11.0105 7.85968 11.0105 -9.05435
194 1 14.1534 7.86104 11.0072 -8.94968
195 1 17.297 7.86192 11.0071 -8.94959
196 1 20.4415 7.86208 11.007 -8.94964
197 1 22.0139 1.61205e-15 12.5794 -8.94963
198 1 1.57242 1.57242 14.1518 -8.94964
199 1 3.14484 1.19309e-15 12.5794 -8.94964
200 1 4.71723 1.57237 14.1518 -8.94963
201 1 6.28965 1.29201e-15 12.5794 -8.94969
202 1 7.8621 1.57238 14.1518 -8.9497
203 1 9.43452 1.12695e-15 12.5794 -8.94963
204 1 11.0069 1.57238 14.1518 -8.94969
205 1 12.5794 6.52628e-16 12.5794 -8.94969
206 1 14.1518 1.57237 14.1518 -8.94959
207 1 15.7242 1.33527e-15 12.5794 -8.94965
208 1 17.2966 1.57242 14.1518 -8.94964
209 1 18.8691 5.96156e-16 12.5794 -8.94963
210 1 20.4415 1.57242 14.1518 -8.94963
211 1 22.0139 3.14484 12.5794 -8.94963
212 1 1.57242 4.71727 14.1518 -8.94975
213 1 3.14483 3.14484 12.5794 -8.94964
214 1 4.71708 4.71689 14.152 -8.94975
215 1 6.2895 3.14449 12.5795 -8.94963
216 1 7.86208 4.7169 14.152 -8.95004
217 1 9.43451 3.14462 12.5794 -8.94963
218 1 11.007 4.71695 14.152 -8.94984
219 1 12.5796 3.14446 12.5796 -8.94957
220 1 14.152 4.71696 14.152 -8.94946
221 1 15.7243 3.14479 12.5794 -8.94968
222 1 17.2967 4.71722 14.1518 -8.94961
223 1 18.8691 3.14484 12.5794 -8.94964
224 1 20.4415 4.71726 14.1518 -8.94963
225 1 1.08756e-06 6.28968 12.5794 -8.94962
226 1 1.57206 7.86194 14.152 -8.94979
227 1 3.1448 6.28967 12.5792 -8.95007
228 1 4.71502 7.8599 14.1539 -8.94442
229 1 6.2889 6.28793 12.5801 -8.95126
230 1 7.86151 7.86041 14.1542 -8.94804
231 1 9.43458 6.28869 12.5796 -8.95101
232 1 11.0072 7.86104 14.1534 -8.94968
233 1 12.5802 6.28796 12.5802 -8.95025
234 1 14.153 7.86087 14.153 -8.94696
235 1 15.7245 6.28939 12.5796 -8.94962
236 1 17.2969 7.86197 14.152 -8.9496
237 1 18.8691 6.28965 12.5794 -8.94962
238 1 20.4415 7.86208 14.1518 -8.9497
239 1 22.0137 9.43448 12.5794 -8.95001
240 1 3.14291 9.43389 12.58 -8.95134
241 1 6.27833 9.42472 12.5909 -8.97412
242 1 9.43129 9.43082 12.5854 -9.03231
243 1 12.5846 9.4271 12.5846 -9.01067
244 1 15.7256 9.43387 12.5801 -8.94942
245 1 18.8692 9.43446 12.5795 -8.94978
246 1 1.44796e-07 1.34656e-15 15.7242 -8.94964
247 1 1.57242 1.57242 17.2966 -8.94963
248 1 3.14484 1.61997e-15 15.7242 -8.94963
249 1 4.71726 1.57241 17.2966 -8.94963
250 1 6.28968 1.8407e-15 15.7242 -8.94966
251 1 7.86211 1.57242 17.2966 -8.94963
252 1 9.43453 3.59115e-16 15.7242 -8.94964
253 1 11.007 1.57242 17.2966 -8.94963
254 1 12.5794 1.36487e-15 15.7242 -8.94965
255 1 14.1518 1.57242 17.2966 -8.94964
256 1 15.7242 1.22117e-15 15.7242 -8.94962
257 1 17.2966 1.57242 17.2966 -8.94962
258 1 18.8691 1.5221e-15 15.7242 -8.94963
259 1 20.4415 1.57242 17.2966 -8.94963
260 1 1.64504e-06 3.14484 15.7242 -8.94965
261 1 1.57238 4.71723 17.2967 -8.94949
262 1 3.14481 3.14479 15.7242 -8.94962
263 1 4.71723 4.71721 17.2967 -8.9496
264 1 6.28966 3.14478 15.7243 -8.94966
265 1 7.8621 4.71722 17.2967 -8.94967
266 1 9.43453 3.14477 15.7243 -8.94958
267 1 11.007 4.71722 17.2967 -8.94961
268 1 12.5794 3.14479 15.7243 -8.94968
269 1 14.1518 4.71722 17.2967 -8.94961
270 1 15.7242 3.14481 15.7242 -8.94959
271 1 17.2967 4.71725 17.2967 -8.94957
272 1 18.8691 3.14484 15.7242 -8.94963
273 1 20.4415 4.71726 17.2966 -8.94962
274 1 22.0139 6.28966 15.7242 -8.94962
275 1 1.57241 7.86211 17.2966 -8.94969
276 1 3.1445 6.28937 15.7245 -8.94868
277 1 4.71707 7.86194 17.297 -8.94978
278 1 6.28945 6.28933 15.7246 -8.94929
279 1 7.86198 7.86181 17.2972 -8.94957
280 1 9.43459 6.28931 15.7245 -8.94917
281 1 11.0071 7.86192 17.297 -8.94959
282 1 12.5796 6.28939 15.7245 -8.94962
283 1 14.152 7.86197 17.2969 -8.9496
284 1 15.7244 6.28952 15.7244 -8.94917
285 1 17.2966 7.86212 17.2966 -8.94972
286 1 18.8691 6.28967 15.7242 -8.94961
287 1 20.4415 7.86211 17.2966 -8.94964
288 1 22.0139 9.43453 15.7242 -8.9496
289 1 3.14467 9.4345 15.7244 -8.94963
290 1 6.28892 9.43393 15.7262 -8.95161
291 1 9.43416 9.4335 15.7265 -8.94848
292 1 12.5801 9.43387 15.7256 -8.94942
293 1 15.7242 9.43461 15.7242 -8.95004
294 1 18.8691 9.43454 15.7242 -8.94963
295 1 22.0139 1.67706e-15 18.8691 -8.94963
296 1 1.57242 1.57242 20.4415 -8.94963
297 1 3.14484 1.41094e-15 18.8691 -8.94963
298 1 4.71726 1.57242 20.4415 -8.94964
299 1 6.28969 4.37179e-16 18.8691 -8.94963
300 1 7.86211 1.57242 20.4415 -8.94963
301 1 9.43453 1.0319e-15 18.8691 -8.94963
302 1 11.007 1.57242 20.4415 -8.94963
303 1 12.5794 6.06031e-16 18.8691 -8.94963
304 1 14.1518 1.57242 20.4415 -8.94963
305 1 15.7242 1.68174e-15 18.8691 -8.94963
306 1 17.2966 1.57242 20.4415 -8.94963
307 1 18.8691 1.8756e-15 18.8691 -8.94963
308 1 20.4415 1.57242 20.4415 -8.94963
309 1 22.0139 3.14484 18.8691 -8.94962
310 1 1.57242 4.71726 20.4415 -8.94963
311 1 3.14484 3.14484 18.8691 -8.94963
312 1 4.71726 4.71726 20.4415 -8.94962
313 1 6.28969 3.14484 18.8691 -8.94964
314 1 7.86211 4.71726 20.4415 -8.94964
315 1 9.43453 3.14484 18.8691 -8.94964
316 1 11.007 4.71726 20.4415 -8.94963
317 1 12.5794 3.14484 18.8691 -8.94964
318 1 14.1518 4.71726 20.4415 -8.94963
319 1 15.7242 3.14484 18.8691 -8.94963
320 1 17.2966 4.71726 20.4415 -8.94962
321 1 18.8691 3.14484 18.8691 -8.94962
322 1 20.4415 4.71726 20.4415 -8.94964
323 1 22.0139 6.28969 18.8691 -8.94965
324 1 1.57242 7.86211 20.4415 -8.94963
325 1 3.14481 6.28966 18.8691 -8.94962
326 1 4.71725 7.86209 20.4415 -8.94969
327 1 6.28965 6.28963 18.8691 -8.94958
328 1 7.86209 7.86207 20.4415 -8.94969
329 1 9.43454 6.28965 18.8691 -8.94961
330 1 11.007 7.86208 20.4415 -8.94964
331 1 12.5794 6.28965 18.8691 -8.94962
332 1 14.1518 7.86208 20.4415 -8.9497
333 1 15.7242 6.28967 18.8691 -8.94961
334 1 17.2966 7.86211 20.4415 -8.94964
335 1 18.8691 6.28969 18.8691 -8.94965
1 1 22.0139 1.84705e-15 22.0139 -8.94963
3 1 3.14484 1.29382e-15 22.0139 -8.94964
9 1 12.5794 1.63587e-15 22.0139 -8.94963
13 1 18.8691 1.83549e-15 22.0139 -8.94963
15 1 22.0139 3.14484 22.0139 -8.94963
19 1 6.28969 3.14484 22.0139 -8.94963
21 1 9.43453 3.14484 22.0139 -8.94964
23 1 12.5794 3.14484 22.0139 -8.94963
27 1 18.8691 3.14484 22.0139 -8.94962
31 1 3.14483 6.28968 22.0139 -8.94963
33 1 6.28967 6.28967 22.0139 -8.94963
35 1 9.43453 6.28967 22.0139 -8.94963
39 1 15.7242 6.28966 22.0139 -8.94962
43 1 22.0139 9.43453 22.0139 -8.94964
45 1 6.28966 9.43452 22.0139 -8.9498
46 1 9.43449 9.43445 22.0138 -8.94959
5 1 6.28969 1.71995e-15 22.0139 -8.94963
17 1 3.14484 3.14484 22.0139 -8.94963
29 1 22.0139 6.28969 22.0139 -8.94964
189 1 20.4415 4.71726 11.007 -8.94963
188 1 17.2967 4.71722 11.007 -8.94961
41 1 18.8691 6.28969 22.0139 -8.94965
181 1 17.2966 1.57242 11.007 -8.94963
44 1 3.14484 9.43453 22.0139 -8.94962
48 1 15.7242 9.43453 22.0139 -8.9496
49 1 18.8691 9.43453 22.0139 -8.94964
344 1 1.57242 11.007 1.57242 -8.94965
345 1 4.71721 11.007 1.57233 -8.94954
346 1 7.86214 11.007 1.57214 -8.95015
347 1 11.0068 11.007 1.57135 -8.95195
348 1 14.1519 11.007 1.57214 -8.94947
349 1 17.2967 11.007 1.5724 -8.94966
350 1 20.4415 11.007 1.57242 -8.94964
688 2 10.3145 11.007 9.34944 0.568643
352 1 1.57242 14.1518 1.57242 -8.94965
537 1 14.1518 20.4415 11.0069 -8.94969
354 1 4.7172 14.1518 1.57232 -8.94965
687 2 9.34944 11.007 10.3145 0.568643
356 1 7.86206 14.1519 1.57224 -8.94964
511 1 18.8691 18.8691 9.43453 -8.94964
358 1 11.0069 14.1519 1.57231 -8.94944
510 1 15.7243 18.8691 9.43453 -8.94958
360 1 14.152 14.152 1.57206 -8.94979
534 1 4.71725 20.4415 11.0069 -8.94963
362 1 17.2966 14.1518 1.57241 -8.94969
527 1 4.71712 17.2967 11.0069 -8.94962
364 1 20.4415 14.1518 1.57242 -8.94963
520 1 4.71689 14.1517 11.0062 -8.95087
366 1 1.57241 17.2966 1.57241 -8.94961
509 1 12.5794 18.8693 9.43451 -8.94963
368 1 4.71725 17.2966 1.5724 -8.94965
508 1 9.43452 18.8709 9.43452 -8.95377
370 1 7.86211 17.2967 1.57241 -8.94962
507 1 6.28964 18.8691 9.43454 -8.94938
372 1 11.007 17.2967 1.5724 -8.94963
373 1 12.5794 15.7242 1.08756e-06 -8.94962
374 1 14.1518 17.2966 1.57242 -8.94975
506 1 3.14482 18.8691 9.43452 -8.94962
376 1 17.2967 17.2967 1.57238 -8.94949
519 1 1.57231 14.1519 11.0069 -8.94944
378 1 20.4415 17.2966 1.57242 -8.94963
505 1 22.0139 18.8691 9.43453 -8.94964
380 1 1.57242 20.4415 1.57242 -8.94962
516 1 14.1619 11.007 11.0066 -9.01299
382 1 4.71727 20.4415 1.57242 -8.94965
504 1 18.8691 15.7243 9.43454 -8.94961
384 1 7.86211 20.4415 1.57242 -8.94963
503 1 15.7245 15.7246 9.43459 -8.94917
386 1 11.007 20.4415 1.57242 -8.94963
502 1 12.5796 15.7252 9.43458 -8.95101
388 1 14.1518 20.4415 1.57242 -8.94964
389 1 15.7242 18.8691 1.64504e-06 -8.94965
390 1 17.2966 20.4415 1.57242 -8.94963
501 1 9.43432 15.7387 9.43432 -8.971
392 1 20.4415 20.4415 1.57242 -8.94963
393 1 1.57233 11.007 4.71721 -8.94954
394 1 4.71679 11.007 4.71679 -8.94854
395 1 7.86186 11.007 4.71527 -8.95369
396 1 11.0069 11.007 4.70843 -8.97348
397 1 14.153 11.007 4.71581 -8.94789
398 1 17.2969 11.007 4.71709 -8.94939
399 1 20.4415 11.007 4.71724 -8.94964
400 1 22.0139 12.5794 3.14484 -8.94962
401 1 1.57232 14.1518 4.7172 -8.94965
402 1 3.14479 12.5794 3.14479 -8.94965
403 1 4.71674 14.1523 4.71674 -8.9486
404 1 6.2894 12.5795 3.14424 -8.95023
405 1 7.86188 14.152 4.71625 -8.95123
406 1 9.43406 12.5799 3.14424 -8.94693
407 1 11.0062 14.1517 4.71689 -8.95087
408 1 12.58 12.58 3.14291 -8.95134
409 1 14.1539 14.154 4.71502 -8.94442
410 1 15.7244 12.5794 3.14467 -8.94963
411 1 17.297 14.152 4.71707 -8.94978
412 1 18.8691 12.5794 3.14482 -8.9496
413 1 20.4415 14.1518 4.71725 -8.94969
414 1 22.0139 15.7242 3.14483 -8.94963
415 1 1.5724 17.2966 4.71725 -8.94965
416 1 3.14477 15.7243 3.14477 -8.94945
417 1 4.71709 17.2969 4.71709 -8.94918
418 1 6.28963 15.7243 3.14466 -8.94978
419 1 7.86219 17.2966 4.7172 -8.95006
420 1 9.43452 15.7244 3.14475 -8.94933
421 1 11.0069 17.2967 4.71712 -8.94962
422 1 12.5792 15.7242 3.1448 -8.95007
423 1 14.152 17.297 4.71708 -8.94975
424 1 15.7245 15.7245 3.1445 -8.94868
425 1 17.2967 17.2967 4.71723 -8.9496
426 1 18.8691 15.7242 3.14481 -8.94962
427 1 20.4415 17.2966 4.71726 -8.94962
428 1 22.0139 18.8691 3.14484 -8.94963
429 1 1.57242 20.4415 4.71727 -8.94965
430 1 3.14482 18.8691 3.14482 -8.94957
431 1 4.71723 20.4415 4.71723 -8.94958
432 1 6.2897 18.8691 3.14484 -8.94972
433 1 7.86212 20.4415 4.71726 -8.94963
434 1 9.43452 18.8691 3.14482 -8.94962
435 1 11.0069 20.4415 4.71725 -8.94963
436 1 12.5794 18.8691 3.14483 -8.94964
437 1 14.1518 20.4415 4.71723 -8.94963
438 1 15.7242 18.8691 3.14481 -8.94962
439 1 17.2966 20.4415 4.71726 -8.94963
440 1 18.8691 18.8691 3.14484 -8.94963
441 1 20.4415 20.4415 4.71726 -8.94964
442 1 1.57214 11.007 7.86214 -8.95015
443 1 4.71527 11.007 7.86186 -8.95369
444 1 7.84996 11.007 7.84996 -9.01055
445 1 11.0446 11.007 7.77984 -9.2743
446 1 14.1588 11.007 7.86014 -9.00951
447 1 17.2978 11.007 7.86205 -8.95087
448 1 20.4416 11.007 7.8621 -8.94987
449 1 22.0139 12.5794 6.28966 -8.9498
450 1 1.57224 14.1519 7.86206 -8.94964
451 1 3.14424 12.5795 6.2894 -8.95023
452 1 4.71625 14.152 7.86188 -8.95123
453 1 6.28654 12.5807 6.28654 -8.94699
454 1 7.85567 14.1563 7.85567 -9.01002
455 1 9.43099 12.5802 6.29135 -9.04208
456 1 11.0121 14.1527 7.85919 -9.03225
457 1 12.5909 12.5892 6.27833 -8.97412
458 1 14.1542 14.1535 7.86151 -8.94804
459 1 15.7262 12.58 6.28892 -8.95161
460 1 17.2972 14.1521 7.86198 -8.94957
461 1 18.8693 12.5794 6.28962 -8.94997
462 1 20.4415 14.1518 7.86209 -8.94969
463 1 22.0139 15.7242 6.28967 -8.94963
464 1 1.57241 17.2967 7.86211 -8.94962
465 1 3.14466 15.7243 6.28963 -8.94978
466 1 4.7172 17.2966 7.86219 -8.95006
467 1 6.28848 15.7255 6.28848 -8.94723
468 1 7.86106 17.2983 7.86106 -8.94822
469 1 9.43481 15.7243 6.29 -8.951
470 1 11.0079 17.298 7.86117 -8.94695
471 1 12.5801 15.726 6.2889 -8.95126
472 1 14.152 17.297 7.86208 -8.95004
473 1 15.7246 15.7246 6.28945 -8.94929
474 1 17.2967 17.2967 7.8621 -8.94967
475 1 18.8691 15.7243 6.28965 -8.94958
476 1 20.4415 17.2966 7.86211 -8.94964
477 1 22.0139 18.8691 6.28969 -8.94963
478 1 1.57242 20.4415 7.86211 -8.94963
479 1 3.14484 18.8691 6.2897 -8.94972
480 1 4.71726 20.4415 7.86212 -8.94963
481 1 6.28948 18.8694 6.28948 -8.94944
482 1 7.862 20.4417 7.862 -8.9498
483 1 9.43454 18.8691 6.28964 -8.94938
484 1 11.007 20.4417 7.86199 -8.94967
485 1 12.5795 18.8694 6.2895 -8.94963
486 1 14.1518 20.4415 7.8621 -8.9497
487 1 15.7243 18.8691 6.28966 -8.94966
488 1 17.2966 20.4415 7.86211 -8.94963
489 1 18.8691 18.8691 6.28969 -8.94964
490 1 20.4415 20.4415 7.86211 -8.94963
491 1 22.0138 12.5794 9.43449 -8.94959
492 1 3.14424 12.5799 9.43406 -8.94693
493 1 6.29135 12.5802 9.43099 -9.04208
494 1 9.41643 12.6598 9.41643 -9.36881
495 1 12.5854 12.5831 9.43129 -9.03231
496 1 15.7265 12.5804 9.43416 -8.94848
497 1 18.8695 12.5795 9.43451 -8.94983
498 1 22.0139 15.7242 9.43453 -8.94963
499 1 3.14475 15.7244 9.43452 -8.94933
500 1 6.29 15.7243 9.43481 -8.951
512 1 1.57135 11.007 11.0068 -8.95195
513 1 4.70843 11.007 11.0069 -8.97348
539 1 20.4415 20.4415 11.007 -8.94963
686 1 20.4415 20.4415 20.4415 -8.94963
685 1 18.8691 18.8691 18.8691 -8.94962
514 1 7.77984 11.007 11.0446 -9.2743
515 1 11.0689 11.007 11.0689 -9.33395
684 1 17.2966 20.4415 20.4415 -8.94963
517 1 17.2981 11.007 11.007 -8.95211
518 1 20.4415 11.007 11.007 -8.95018
683 1 15.7242 18.8691 18.8691 -8.94963
682 1 14.1518 20.4415 20.4415 -8.94963
521 1 7.85919 14.1527 11.0121 -9.03225
522 1 11.0105 14.1542 11.0105 -9.05435
523 1 14.1534 14.1529 11.0072 -8.94968
524 1 17.297 14.152 11.0071 -8.94959
525 1 20.4415 14.1518 11.007 -8.94964
526 1 1.5724 17.2967 11.007 -8.94963
681 1 12.5794 18.8691 18.8691 -8.94964
528 1 7.86117 17.298 11.0079 -8.94695
529 1 11.0079 17.2982 11.0079 -8.94741
530 1 14.152 17.297 11.007 -8.94984
680 1 11.007 20.4415 20.4415 -8.94963
679 1 9.43453 18.8691 18.8691 -8.94964
533 1 1.57242 20.4415 11.007 -8.94963
678 1 7.86211 20.4415 20.4415 -8.94963
535 1 7.86199 20.4417 11.007 -8.94967
536 1 11.0071 20.4417 11.0071 -8.94973
677 1 6.28969 18.8691 18.8691 -8.94964
676 1 4.71726 20.4415 20.4415 -8.94964
391 1 18.8691 18.8691 22.0139 -8.94962
540 1 1.57214 11.007 14.1519 -8.94947
541 1 4.71581 11.007 14.153 -8.94789
542 1 7.86014 11.007 14.1588 -9.00951
543 1 11.0066 11.007 14.1619 -9.01299
544 1 14.1517 11.007 14.1517 -8.95072
545 1 17.2967 11.007 14.1519 -8.94927
546 1 20.4415 11.007 14.1518 -8.94961
547 1 22.0137 12.5794 12.5794 -8.95001
548 1 1.57206 14.152 14.152 -8.94979
549 1 3.14291 12.58 12.58 -8.95134
550 1 4.71502 14.154 14.1539 -8.94442
551 1 6.27833 12.5892 12.5909 -8.97412
552 1 7.86151 14.1535 14.1542 -8.94804
553 1 9.43129 12.5831 12.5854 -9.03231
554 1 11.0072 14.1529 14.1534 -8.94968
555 1 12.5846 12.5868 12.5846 -9.01067
556 1 14.153 14.153 14.153 -8.94696
557 1 15.7256 12.58 12.5801 -8.94942
558 1 17.2969 14.1519 14.152 -8.9496
559 1 18.8692 12.5794 12.5795 -8.94978
560 1 20.4415 14.1518 14.1518 -8.9497
561 1 1.08756e-06 15.7242 12.5794 -8.94962
562 1 1.57242 17.2966 14.1518 -8.94975
563 1 3.1448 15.7242 12.5792 -8.95007
564 1 4.71708 17.297 14.152 -8.94975
565 1 6.2889 15.726 12.5801 -8.95126
566 1 7.86208 17.297 14.152 -8.95004
567 1 9.43458 15.7252 12.5796 -8.95101
568 1 11.007 17.297 14.152 -8.94984
569 1 12.5802 15.7259 12.5802 -8.95025
570 1 14.152 17.2969 14.152 -8.94946
571 1 15.7245 15.7245 12.5796 -8.94962
572 1 17.2967 17.2967 14.1518 -8.94961
573 1 18.8691 15.7243 12.5794 -8.94962
574 1 20.4415 17.2966 14.1518 -8.94963
575 1 22.0139 18.8691 12.5794 -8.94963
576 1 1.57242 20.4415 14.1518 -8.94964
577 1 3.14483 18.8691 12.5794 -8.94964
578 1 4.71723 20.4415 14.1518 -8.94963
579 1 6.2895 18.8694 12.5795 -8.94963
580 1 7.8621 20.4415 14.1518 -8.9497
581 1 9.43451 18.8693 12.5794 -8.94963
582 1 11.0069 20.4415 14.1518 -8.94969
583 1 12.5796 18.8694 12.5796 -8.94957
584 1 14.1518 20.4415 14.1518 -8.94959
585 1 15.7243 18.8691 12.5794 -8.94968
586 1 17.2966 20.4415 14.1518 -8.94964
587 1 18.8691 18.8691 12.5794 -8.94964
588 1 20.4415 20.4415 14.1518 -8.94963
589 1 1.5724 11.007 17.2967 -8.94966
590 1 4.71709 11.007 17.2969 -8.94939
591 1 7.86205 11.007 17.2978 -8.95087
592 1 11.007 11.007 17.2981 -8.95211
593 1 14.1519 11.007 17.2967 -8.94927
594 1 17.2967 11.007 17.2967 -8.94962
595 1 20.4415 11.007 17.2966 -8.94964
596 1 22.0139 12.5794 15.7242 -8.9496
597 1 1.57241 14.1518 17.2966 -8.94969
598 1 3.14467 12.5794 15.7244 -8.94963
599 1 4.71707 14.152 17.297 -8.94978
600 1 6.28892 12.58 15.7262 -8.95161
601 1 7.86198 14.1521 17.2972 -8.94957
602 1 9.43416 12.5804 15.7265 -8.94848
603 1 11.0071 14.152 17.297 -8.94959
604 1 12.5801 12.58 15.7256 -8.94942
605 1 14.152 14.1519 17.2969 -8.9496
606 1 15.7242 12.5793 15.7242 -8.95004
607 1 17.2966 14.1518 17.2966 -8.94972
608 1 18.8691 12.5794 15.7242 -8.94963
609 1 20.4415 14.1518 17.2966 -8.94964
610 1 22.0139 15.7242 15.7242 -8.94962
611 1 1.57238 17.2967 17.2967 -8.94949
612 1 3.1445 15.7245 15.7245 -8.94868
613 1 4.71723 17.2967 17.2967 -8.9496
614 1 6.28945 15.7246 15.7246 -8.94929
615 1 7.8621 17.2967 17.2967 -8.94967
616 1 9.43459 15.7246 15.7245 -8.94917
617 1 11.007 17.2967 17.2967 -8.94961
618 1 12.5796 15.7245 15.7245 -8.94962
619 1 14.1518 17.2967 17.2967 -8.94961
620 1 15.7244 15.7244 15.7244 -8.94917
621 1 17.2967 17.2967 17.2967 -8.94957
622 1 18.8691 15.7242 15.7242 -8.94961
623 1 20.4415 17.2966 17.2966 -8.94962
624 1 1.64504e-06 18.8691 15.7242 -8.94965
625 1 1.57242 20.4415 17.2966 -8.94963
626 1 3.14481 18.8691 15.7242 -8.94962
627 1 4.71726 20.4415 17.2966 -8.94963
628 1 6.28966 18.8691 15.7243 -8.94966
629 1 7.86211 20.4415 17.2966 -8.94963
630 1 9.43453 18.8691 15.7243 -8.94958
631 1 11.007 20.4415 17.2966 -8.94963
632 1 12.5794 18.8691 15.7243 -8.94968
633 1 14.1518 20.4415 17.2966 -8.94964
634 1 15.7242 18.8691 15.7242 -8.94959
635 1 17.2966 20.4415 17.2966 -8.94962
636 1 18.8691 18.8691 15.7242 -8.94963
637 1 20.4415 20.4415 17.2966 -8.94963
638 1 1.57242 11.007 20.4415 -8.94964
639 1 4.71724 11.007 20.4415 -8.94964
640 1 7.8621 11.007 20.4416 -8.94987
641 1 11.007 11.007 20.4415 -8.95018
642 1 14.1518 11.007 20.4415 -8.94961
643 1 17.2966 11.007 20.4415 -8.94964
644 1 20.4415 11.007 20.4415 -8.94963
645 1 22.0139 12.5794 18.8691 -8.94964
646 1 1.57242 14.1518 20.4415 -8.94963
647 1 3.14482 12.5794 18.8691 -8.9496
648 1 4.71725 14.1518 20.4415 -8.94969
649 1 6.28962 12.5794 18.8693 -8.94997
650 1 7.86209 14.1518 20.4415 -8.94969
651 1 9.43451 12.5795 18.8695 -8.94983
652 1 11.007 14.1518 20.4415 -8.94964
653 1 12.5795 12.5794 18.8692 -8.94978
654 1 14.1518 14.1518 20.4415 -8.9497
655 1 15.7242 12.5794 18.8691 -8.94963
656 1 17.2966 14.1518 20.4415 -8.94964
657 1 18.8691 12.5794 18.8691 -8.94963
658 1 20.4415 14.1518 20.4415 -8.94963
659 1 22.0139 15.7242 18.8691 -8.94965
660 1 1.57242 17.2966 20.4415 -8.94963
661 1 3.14481 15.7242 18.8691 -8.94962
662 1 4.71726 17.2966 20.4415 -8.94962
663 1 6.28965 15.7243 18.8691 -8.94958
664 1 7.86211 17.2966 20.4415 -8.94964
665 1 9.43454 15.7243 18.8691 -8.94961
666 1 11.007 17.2966 20.4415 -8.94963
667 1 12.5794 15.7243 18.8691 -8.94962
668 1 14.1518 17.2966 20.4415 -8.94963
669 1 15.7242 15.7242 18.8691 -8.94961
670 1 17.2966 17.2966 20.4415 -8.94962
671 1 18.8691 15.7242 18.8691 -8.94965
672 1 20.4415 17.2966 20.4415 -8.94964
673 1 22.0139 18.8691 18.8691 -8.94962
674 1 1.57242 20.4415 20.4415 -8.94963
675 1 3.14484 18.8691 18.8691 -8.94963
351 1 22.0139 12.5794 22.0139 -8.94964
355 1 6.28966 12.5794 22.0139 -8.9498
357 1 9.43449 12.5794 22.0138 -8.94959
359 1 12.5794 12.5794 22.0137 -8.95001
367 1 3.14483 15.7242 22.0139 -8.94963
369 1 6.28967 15.7242 22.0139 -8.94963
371 1 9.43453 15.7242 22.0139 -8.94963
375 1 15.7242 15.7242 22.0139 -8.94962
379 1 22.0139 18.8691 22.0139 -8.94963
383 1 6.28969 18.8691 22.0139 -8.94963
385 1 9.43453 18.8691 22.0139 -8.94964
387 1 12.5794 18.8691 22.0139 -8.94963
353 1 3.14484 12.5794 22.0139 -8.94962
538 1 17.2966 20.4415 11.007 -8.94963
361 1 15.7242 12.5794 22.0139 -8.9496
363 1 18.8691 12.5794 22.0139 -8.94964
532 1 20.4415 17.2966 11.007 -8.94963
531 1 17.2967 17.2967 11.007 -8.94961
365 1 22.0139 15.7242 22.0139 -8.94964
377 1 18.8691 15.7242 22.0139 -8.94965
381 1 3.14484 18.8691 22.0139 -8.94963
