ITEM: TIMESTEP
65
ITEM: NUMBER OF ATOMS
688
ITEM: BOX BOUNDS pp pp pp
0.0000000000000000e+00 2.2013900999999997e+01
0.0000000000000000e+00 2.2013900999999997e+01
0.0000000000000000e+00 2.2013900999999997e+01
ITEM: ATOMS id type x y z c_pot
175 1 18.8706 9.43393 9.43397 -8.94976
2 1 1.57231 1.57218 1.57231 -8.94951
174 1 15.7287 9.43313 9.43245 -8.94785
4 1 4.71713 1.57219 1.57231 -8.94966
191 1 4.71453 7.86146 11.0072 -8.95061
6 1 7.86206 1.5722 1.57227 -8.9496
7 1 9.43452 8.70853e-17 -7.43817e-05 -8.9496
8 1 11.007 1.57217 1.57214 -8.9496
173 1 12.5864 9.4325 9.42834 -9.03215
10 1 14.152 1.57211 1.57202 -8.94964
11 1 15.7244 1.15038e-15 -0.000235884 -8.94962
12 1 17.297 1.57206 1.57203 -8.94956
172 1 9.41608 9.35701 9.41608 -9.37185
14 1 20.4416 1.57215 1.57226 -8.94956
171 1 6.28899 9.43315 9.43129 -9.03943
16 1 1.57226 4.7167 1.57226 -8.94953
190 1 1.57087 7.86127 11.0072 -8.94924
18 1 4.71695 4.71665 1.57222 -8.94961
170 1 3.14215 9.43323 9.43404 -8.94651
20 1 7.862 4.71665 1.57216 -8.94958
169 1 22.0132 9.43397 9.43431 -8.9496
22 1 11.0071 4.71659 1.57184 -8.94957
168 1 18.8697 6.28892 9.4343 -8.94949
24 1 14.1523 4.71638 1.57155 -8.94979
25 1 15.7245 3.14429 -0.000393416 -8.94966
26 1 17.2975 4.71624 1.57151 -8.94909
167 1 15.7256 6.28863 9.43407 -8.94908
28 1 20.4419 4.71663 1.57204 -8.94953
184 1 4.71626 4.71643 11.0073 -8.9496
30 1 1.57225 7.8617 1.57225 -8.94963
166 1 12.58 6.28879 9.43397 -8.95077
32 1 4.71672 7.86155 1.5721 -8.94978
165 1 9.43435 6.27333 9.43435 -8.97219
34 1 7.8617 7.8613 1.57161 -8.94952
164 1 6.28947 6.28868 9.43528 -8.95115
36 1 11.0072 7.86127 1.57087 -8.94924
37 1 12.5797 6.28892 -0.000724102 -8.94952
38 1 14.1535 7.86068 1.56973 -8.94982
163 1 3.14398 6.28876 9.43458 -8.94922
40 1 17.2979 7.86133 1.57108 -8.94955
180 1 14.1522 1.57217 11.007 -8.94958
42 1 20.442 7.86165 1.57189 -8.94958
162 1 22.0137 6.28896 9.43444 -8.9495
177 1 4.7168 1.57209 11.0072 -8.94955
161 1 18.8693 3.1444 9.43447 -8.9496
160 1 15.7247 3.1443 9.43442 -8.94958
159 1 12.5799 3.14414 9.43443 -8.9493
158 1 9.43456 3.14164 9.43456 -8.95454
157 1 6.28921 3.14403 9.43472 -8.94924
50 1 22.0139 4.36161e-17 3.14472 -8.94962
51 1 1.57231 1.57219 4.71713 -8.94966
52 1 3.14461 1.40484e-16 3.14461 -8.9495
53 1 4.71685 1.57203 4.71685 -8.9495
54 1 6.28958 4.1589e-16 3.14462 -8.94963
55 1 7.86205 1.57214 4.71693 -8.94956
56 1 9.43455 1.09538e-15 3.14456 -8.94961
57 1 11.0072 1.57209 4.7168 -8.94955
58 1 12.5796 1.14405e-15 3.14444 -8.94962
59 1 14.1524 1.57188 4.71667 -8.94971
60 1 15.7247 3.82511e-16 3.1444 -8.94965
61 1 17.2971 1.57207 4.71696 -8.94967
62 1 18.8693 9.40858e-17 3.14462 -8.94962
63 1 20.4417 1.57217 4.71711 -8.94961
64 1 22.014 3.14439 3.14463 -8.94958
65 1 1.57222 4.71665 4.71695 -8.94961
66 1 3.14455 3.14432 3.14455 -8.94942
67 1 4.71653 4.7162 4.71653 -8.94899
68 1 6.28955 3.14439 3.14454 -8.94979
69 1 7.86213 4.7166 4.71672 -8.95024
70 1 9.43457 3.14433 3.14444 -8.94959
71 1 11.0073 4.71643 4.71626 -8.9496
72 1 12.5797 3.14421 3.14418 -8.94964
73 1 14.1532 4.71544 4.71579 -8.94998
74 1 15.725 3.14391 3.14407 -8.94962
75 1 17.2977 4.71621 4.71645 -8.94956
76 1 18.8695 3.14425 3.14444 -8.94958
77 1 20.4419 4.71659 4.71685 -8.94955
78 1 22.0141 6.28909 3.14442 -8.94966
79 1 1.5721 7.86155 4.71672 -8.94978
80 1 3.14434 6.28893 3.14434 -8.94936
81 1 4.71587 7.86087 4.71587 -8.94856
82 1 6.2892 6.28885 3.14402 -8.94976
83 1 7.86142 7.86097 4.71521 -8.95095
84 1 9.43458 6.28876 3.14398 -8.94922
85 1 11.0072 7.86146 4.71453 -8.95061
86 1 12.58 6.28858 3.14321 -8.9501
87 1 14.1574 7.85742 4.7111 -8.94341
88 1 15.7264 6.28761 3.14247 -8.94788
89 1 17.2993 7.86072 4.71526 -8.94989
90 1 18.8702 6.28875 3.14387 -8.94957
91 1 20.4424 7.86151 4.71652 -8.94985
92 1 22.0142 9.43428 3.14434 -8.94961
93 1 3.14434 9.43424 3.14434 -8.94958
94 1 6.28892 9.4341 3.14343 -8.95051
95 1 9.43404 9.43323 3.14215 -8.94651
96 1 12.5823 9.43271 3.13861 -8.95159
97 1 15.7268 9.43365 3.1419 -8.94931
98 1 18.8705 9.43414 3.14363 -8.94953
99 1 22.0139 1.79217e-15 6.28961 -8.9496
100 1 1.57227 1.5722 7.86206 -8.9496
101 1 3.14462 1.42755e-15 6.28958 -8.94963
102 1 4.71693 1.57214 7.86205 -8.94956
103 1 6.28927 9.78375e-16 6.28927 -8.94975
104 1 7.86172 1.57157 7.86172 -8.95005
105 1 9.4346 1.0709e-15 6.28932 -8.94949
106 1 11.0074 1.57167 7.86169 -8.94971
107 1 12.5799 9.40221e-16 6.28922 -8.94978
108 1 14.1523 1.57208 7.86193 -8.94966
109 1 15.7246 1.37626e-15 6.28947 -8.9497
110 1 17.297 1.57214 7.862 -8.94961
111 1 18.8693 8.08316e-16 6.28957 -8.94962
112 1 20.4416 1.57219 7.86204 -8.94961
113 1 22.0139 3.14442 6.28954 -8.94961
114 1 1.57216 4.71665 7.862 -8.94958
115 1 3.14454 3.14439 6.28955 -8.94979
116 1 4.71672 4.7166 7.86213 -8.95024
117 1 6.28891 3.14364 6.28891 -8.94934
118 1 7.86047 4.71401 7.86047 -8.94812
119 1 9.43472 3.14403 6.28921 -8.94924
120 1 11.0088 4.71479 7.86042 -8.94664
121 1 12.5803 3.14357 6.28876 -8.94968
122 1 14.1529 4.71622 7.86159 -8.95026
123 1 15.725 3.14409 6.28925 -8.94976
124 1 17.2975 4.71647 7.86174 -8.94961
125 1 18.8695 3.14431 6.28944 -8.94962
126 1 20.4418 4.71664 7.86191 -8.94956
127 1 22.014 6.289 6.28928 -8.9496
128 1 1.57161 7.8613 7.8617 -8.94952
129 1 3.14402 6.28885 6.2892 -8.94976
130 1 4.71521 7.86097 7.86142 -8.95095
131 1 6.28768 6.28732 6.28768 -8.94721
132 1 7.8558 7.85697 7.8558 -9.0096
133 1 9.43528 6.28868 6.28947 -8.95115
134 1 11.0135 7.86137 7.85733 -9.03335
135 1 12.5819 6.28663 6.28697 -8.95178
136 1 14.1564 7.85982 7.85946 -8.9483
137 1 15.7264 6.28807 6.28816 -8.94924
138 1 17.299 7.86092 7.8609 -8.94942
139 1 18.8702 6.28875 6.28896 -8.94947
140 1 20.4421 7.86139 7.86161 -8.94968
141 1 22.0141 9.43422 6.28919 -8.94995
142 1 3.14343 9.4341 6.28892 -8.95051
143 1 6.2854 9.43266 6.2854 -8.947
144 1 9.43129 9.43315 6.28899 -9.03943
145 1 12.5953 9.42349 6.27223 -8.97394
146 1 15.73 9.43296 6.28582 -8.95208
147 1 18.8711 9.43405 6.28853 -8.95026
148 1 -7.43817e-05 1.60336e-15 9.43452 -8.9496
149 1 3.14456 1.79555e-15 9.43455 -8.94961
150 1 6.28932 4.75257e-16 9.4346 -8.94949
151 1 9.43456 1.19543e-15 9.43456 -8.95098
152 1 12.5798 1.14802e-15 9.43451 -8.94946
153 1 15.7246 1.57138e-15 9.4345 -8.94964
154 1 18.8692 8.98598e-16 9.43451 -8.9496
155 1 22.0138 3.14441 9.43451 -8.94959
156 1 3.14444 3.14433 9.43457 -8.94959
182 1 20.4415 1.5722 11.007 -8.9496
176 1 1.57214 1.57217 11.007 -8.9496
343 1 18.8691 9.43431 18.8691 -8.94958
178 1 7.86169 1.57167 11.0074 -8.94971
179 1 11.0074 1.5717 11.0074 -8.94975
342 1 15.7247 9.43424 18.869 -8.94961
341 1 12.5797 9.43404 18.8697 -8.95016
47 1 12.5801 9.43397 22.0121 -8.95046
183 1 1.57184 4.71659 11.0071 -8.94957
340 1 9.43397 9.43393 18.8706 -8.94976
185 1 7.86042 4.71479 11.0088 -8.94664
186 1 11.0084 4.71482 11.0084 -8.94709
187 1 14.1525 4.7166 11.0068 -8.94986
339 1 6.28853 9.43405 18.8711 -8.95026
338 1 3.14363 9.43414 18.8705 -8.94953
337 1 22.0133 9.43428 18.8697 -8.94957
336 1 20.4415 7.86172 20.4415 -8.94958
192 1 7.85733 7.86137 11.0135 -9.03335
193 1 11.0108 7.86053 11.0108 -9.05669
194 1 14.1543 7.86131 11.0063 -8.95014
195 1 17.298 7.86137 11.0068 -8.94939
196 1 20.4414 7.86143 11.007 -8.94954
197 1 22.0137 2.04189e-16 12.5795 -8.9496
198 1 1.57202 1.57211 14.152 -8.94964
199 1 3.14444 1.12475e-15 12.5796 -8.94962
200 1 4.71667 1.57188 14.1524 -8.94971
201 1 6.28922 6.75278e-16 12.5799 -8.94978
202 1 7.86193 1.57208 14.1523 -8.94966
203 1 9.43451 1.2718e-15 12.5798 -8.94946
204 1 11.007 1.57217 14.1522 -8.94958
205 1 12.5798 3.76237e-16 12.5798 -8.94973
206 1 14.1522 1.57204 14.1522 -8.94961
207 1 15.7245 6.6121e-16 12.5795 -8.94964
208 1 17.2968 1.57219 14.1519 -8.94966
209 1 18.8691 4.93328e-16 12.5794 -8.94961
210 1 20.4414 1.57219 14.1519 -8.94961
211 1 22.0136 3.14438 12.5795 -8.9496
212 1 1.57155 4.71638 14.1523 -8.94979
213 1 3.14418 3.14421 12.5797 -8.94964
214 1 4.71579 4.71544 14.1532 -8.94998
215 1 6.28876 3.14357 12.5803 -8.94968
216 1 7.86159 4.71622 14.1529 -8.95026
217 1 9.43443 3.14414 12.5799 -8.9493
218 1 11.0068 4.7166 14.1525 -8.94986
219 1 12.5801 3.14379 12.5801 -8.94959
220 1 14.1525 4.71603 14.1525 -8.94967
221 1 15.7246 3.14439 12.5795 -8.94971
222 1 17.2969 4.71661 14.152 -8.94975
223 1 18.8691 3.14443 12.5794 -8.9496
224 1 20.4412 4.71664 14.152 -8.9496
225 1 -0.000724102 6.28892 12.5797 -8.94952
226 1 1.56973 7.86068 14.1535 -8.94982
227 1 3.14321 6.28858 12.58 -8.9501
228 1 4.7111 7.85742 14.1574 -8.94341
229 1 6.28697 6.28663 12.5819 -8.95178
230 1 7.85946 7.85982 14.1564 -8.9483
231 1 9.43397 6.28879 12.58 -8.95077
232 1 11.0063 7.86131 14.1543 -8.95014
233 1 12.5808 6.28724 12.5808 -8.95113
234 1 14.1547 7.8592 14.1547 -8.94539
235 1 15.7251 6.28884 12.5795 -8.94998
236 1 17.2977 7.86112 14.1526 -8.94967
237 1 18.8693 6.28901 12.5795 -8.94955
238 1 20.4409 7.86139 14.1524 -8.94992
239 1 22.0121 9.43397 12.5801 -8.95046
240 1 3.13861 9.43271 12.5823 -8.95159
241 1 6.27223 9.42349 12.5953 -8.97394
242 1 9.42834 9.4325 12.5864 -9.03215
243 1 12.5879 9.42553 12.5879 -9.00813
244 1 15.7277 9.43311 12.5807 -8.94983
245 1 18.8697 9.43404 12.5797 -8.95016
246 1 -0.000235884 1.13022e-15 15.7244 -8.94962
247 1 1.57203 1.57206 17.297 -8.94956
248 1 3.1444 1.98066e-15 15.7247 -8.94965
249 1 4.71696 1.57207 17.2971 -8.94967
250 1 6.28947 1.43242e-15 15.7246 -8.9497
251 1 7.862 1.57214 17.297 -8.94961
252 1 9.4345 1.53673e-15 15.7246 -8.94964
253 1 11.007 1.5722 17.2969 -8.9496
254 1 12.5795 9.08887e-16 15.7245 -8.94964
255 1 14.1519 1.57219 17.2968 -8.94966
256 1 15.7245 1.19291e-15 15.7245 -8.94958
257 1 17.2968 1.57215 17.2968 -8.94956
258 1 18.8691 1.15416e-15 15.7243 -8.94963
259 1 20.4414 1.57215 17.2968 -8.94961
260 1 -0.000393416 3.14429 15.7245 -8.94966
261 1 1.57151 4.71624 17.2975 -8.94909
262 1 3.14407 3.14391 15.725 -8.94962
263 1 4.71645 4.71621 17.2977 -8.94956
264 1 6.28925 3.14409 15.725 -8.94976
265 1 7.86174 4.71647 17.2975 -8.94961
266 1 9.43442 3.1443 15.7247 -8.94958
267 1 11.0069 4.71665 17.2971 -8.94953
268 1 12.5795 3.14439 15.7246 -8.94971
269 1 14.152 4.71661 17.2969 -8.94975
270 1 15.7246 3.14424 15.7246 -8.94955
271 1 17.2969 4.71654 17.2969 -8.94932
272 1 18.8691 3.14438 15.7244 -8.94965
273 1 20.4412 4.71657 17.2971 -8.94949
274 1 22.0129 6.2887 15.7251 -8.94955
275 1 1.57108 7.86133 17.2979 -8.94955
276 1 3.14247 6.28761 15.7264 -8.94788
277 1 4.71526 7.86072 17.2993 -8.94989
278 1 6.28816 6.28807 15.7264 -8.94924
279 1 7.8609 7.86092 17.299 -8.94942
280 1 9.43407 6.28863 15.7256 -8.94908
281 1 11.0068 7.86137 17.298 -8.94939
282 1 12.5795 6.28884 15.7251 -8.94998
283 1 14.1526 7.86112 17.2977 -8.94967
284 1 15.7252 6.28845 15.7252 -8.94854
285 1 17.297 7.86161 17.297 -8.94975
286 1 18.8692 6.28891 15.7247 -8.94958
287 1 20.4411 7.86162 17.2972 -8.94959
288 1 22.0125 9.43412 15.7253 -8.94954
289 1 3.1419 9.43365 15.7268 -8.94931
290 1 6.28582 9.43296 15.73 -8.95208
291 1 9.43245 9.43313 15.7287 -8.94785
292 1 12.5807 9.43311 15.7277 -8.94983
293 1 15.725 9.43417 15.725 -8.94998
294 1 18.869 9.43424 15.7247 -8.94961
295 1 22.0137 7.29783e-16 18.8692 -8.94952
296 1 1.57226 1.57215 20.4416 -8.94956
297 1 3.14462 4.51018e-16 18.8693 -8.94962
298 1 4.71711 1.57217 20.4417 -8.94961
299 1 6.28957 6.68425e-16 18.8693 -8.94962
300 1 7.86204 1.57219 20.4416 -8.94961
301 1 9.43451 1.34809e-15 18.8692 -8.9496
302 1 11.007 1.5722 20.4415 -8.9496
303 1 12.5794 1.45553e-15 18.8691 -8.94961
304 1 14.1519 1.57219 20.4414 -8.94961
305 1 15.7243 1.61944e-15 18.8691 -8.94963
306 1 17.2968 1.57215 20.4414 -8.94961
307 1 18.8691 1.32628e-15 18.8691 -8.94956
308 1 20.4415 1.57216 20.4415 -8.94943
309 1 22.0136 3.1443 18.8694 -8.9494
310 1 1.57204 4.71663 20.4419 -8.94953
311 1 3.14444 3.14425 18.8695 -8.94958
312 1 4.71685 4.71659 20.4419 -8.94955
313 1 6.28944 3.14431 18.8695 -8.94962
314 1 7.86191 4.71664 20.4418 -8.94956
315 1 9.43447 3.1444 18.8693 -8.9496
316 1 11.007 4.71668 20.4415 -8.94956
317 1 12.5794 3.14443 18.8691 -8.9496
318 1 14.152 4.71664 20.4412 -8.9496
319 1 15.7244 3.14438 18.8691 -8.94965
320 1 17.2971 4.71657 20.4412 -8.94949
321 1 18.8691 3.14434 18.8691 -8.94945
322 1 20.4415 4.71672 20.4415 -8.94957
323 1 22.0134 6.28907 18.8696 -8.94958
324 1 1.57189 7.86165 20.442 -8.94958
325 1 3.14387 6.28875 18.8702 -8.94957
326 1 4.71652 7.86151 20.4424 -8.94985
327 1 6.28896 6.28875 18.8702 -8.94947
328 1 7.86161 7.86139 20.4421 -8.94968
329 1 9.4343 6.28892 18.8697 -8.94949
330 1 11.007 7.86143 20.4414 -8.94954
331 1 12.5795 6.28901 18.8693 -8.94955
332 1 14.1524 7.86139 20.4409 -8.94992
333 1 15.7247 6.28891 18.8692 -8.94958
334 1 17.2972 7.86162 20.4411 -8.94959
335 1 18.8692 6.28913 18.8692 -8.94962
1 1 22.0139 1.10771e-16 22.0139 -8.94952
3 1 3.14472 -2.60368e-16 22.0139 -8.94962
9 1 12.5795 1.05505e-15 22.0137 -8.9496
13 1 18.8692 -1.46715e-16 22.0137 -8.94952
15 1 22.0139 3.14439 22.0139 -8.94949
19 1 6.28954 3.14442 22.0139 -8.94961
21 1 9.43451 3.14441 22.0138 -8.94959
23 1 12.5795 3.14438 22.0136 -8.9496
27 1 18.8694 3.1443 22.0136 -8.9494
31 1 3.14442 6.28909 22.0141 -8.94966
33 1 6.28928 6.289 22.014 -8.9496
35 1 9.43444 6.28896 22.0137 -8.9495
39 1 15.7251 6.2887 22.0129 -8.94955
43 1 22.0139 9.43433 22.0139 -8.94959
45 1 6.28919 9.43422 22.0141 -8.94995
46 1 9.43431 9.43397 22.0132 -8.9496
5 1 6.28961 -3.46928e-16 22.0139 -8.9496
17 1 3.14463 3.14439 22.014 -8.94958
29 1 22.0139 6.28919 22.0139 -8.94959
189 1 20.4415 4.71668 11.007 -8.94956
188 1 17.2971 4.71665 11.0069 -8.94953
41 1 18.8696 6.28907 22.0134 -8.94958
181 1 17.2969 1.5722 11.007 -8.9496
44 1 3.14434 9.43428 22.0142 -8.94961
48 1 15.7253 9.43412 22.0125 -8.94954
49 1 18.8697 9.43428 22.0133 -8.94957
344 1 1.57226 11.007 1.57226 -8.94961
345 1 4.71672 11.007 1.5721 -8.94957
346 1 7.86197 11.007 1.57141 -8.9501
347 1 11.0073 11.007 1.56862 -8.95313
348 1 14.1536 11.007 1.56933 -8.94954
349 1 17.298 11.007 1.57093 -8.94953
350 1 20.4421 11.007 1.57184 -8.94957
688 2 10.3232 11.007 9.35928 0.548706
352 1 1.57225 14.1522 1.57225 -8.94963
537 1 14.1522 20.4417 11.007 -8.94958
354 1 4.71672 14.1523 1.5721 -8.94978
687 2 9.35928 11.007 10.3232 0.548706
356 1 7.8617 14.1526 1.57161 -8.94952
511 1 18.8693 18.8695 9.43447 -8.9496
358 1 11.0072 14.1526 1.57087 -8.94924
510 1 15.7247 18.8696 9.43442 -8.94958
360 1 14.1535 14.1532 1.56973 -8.94982
534 1 4.7168 20.4418 11.0072 -8.94955
362 1 17.2979 14.1526 1.57108 -8.94955
527 1 4.71626 17.2975 11.0073 -8.9496
364 1 20.442 14.1522 1.57189 -8.94958
520 1 4.71453 14.1524 11.0072 -8.95061
366 1 1.57226 17.2972 1.57226 -8.94953
509 1 12.5799 18.8698 9.43443 -8.9493
368 1 4.71695 17.2972 1.57222 -8.94961
508 1 9.43456 18.8723 9.43456 -8.95454
370 1 7.862 17.2972 1.57216 -8.94958
507 1 6.28921 18.8699 9.43472 -8.94924
372 1 11.0071 17.2973 1.57184 -8.94957
373 1 12.5797 15.725 -0.000724102 -8.94952
374 1 14.1523 17.2975 1.57155 -8.94979
506 1 3.14444 18.8696 9.43457 -8.94959
376 1 17.2975 17.2977 1.57151 -8.94909
519 1 1.57087 14.1526 11.0072 -8.94924
378 1 20.4419 17.2973 1.57204 -8.94953
505 1 22.0138 18.8695 9.43451 -8.94959
380 1 1.57231 20.4417 1.57231 -8.94951
516 1 14.1659 11.007 11.0063 -9.01505
382 1 4.71713 20.4417 1.57231 -8.94966
504 1 18.8697 15.725 9.4343 -8.94949
384 1 7.86206 20.4417 1.57227 -8.9496
503 1 15.7256 15.7253 9.43407 -8.94908
386 1 11.007 20.4417 1.57214 -8.9496
502 1 12.58 15.7251 9.43397 -8.95077
388 1 14.152 20.4418 1.57202 -8.94964
389 1 15.7245 18.8696 -0.000393416 -8.94966
390 1 17.297 20.4418 1.57203 -8.94956
501 1 9.43435 15.7406 9.43435 -8.97219
392 1 20.4416 20.4417 1.57226 -8.94956
393 1 1.5721 11.007 4.71672 -8.94957
394 1 4.71595 11.007 4.71595 -8.94816
395 1 7.86195 11.007 4.71374 -8.95356
396 1 11.0092 11.007 4.70213 -8.97426
397 1 14.157 11.007 4.71071 -8.9472
398 1 17.2995 11.007 4.71498 -8.94933
399 1 20.4425 11.007 4.71642 -8.94974
400 1 22.0142 12.5796 3.14434 -8.94961
401 1 1.5721 14.1523 4.71672 -8.94978
402 1 3.14434 12.5797 3.14434 -8.94958
403 1 4.71587 14.153 4.71587 -8.94856
404 1 6.28892 12.5798 3.14343 -8.95051
405 1 7.86142 14.1529 4.71521 -8.95095
406 1 9.43404 12.5807 3.14215 -8.94651
407 1 11.0072 14.1524 4.71453 -8.95061
408 1 12.5823 12.5812 3.13861 -8.95159
409 1 14.1574 14.1565 4.7111 -8.94341
410 1 15.7268 12.5802 3.1419 -8.94931
411 1 17.2993 14.1532 4.71526 -8.94989
412 1 18.8705 12.5798 3.14363 -8.94953
413 1 20.4424 14.1524 4.71652 -8.94985
414 1 22.0141 15.7248 3.14442 -8.94966
415 1 1.57222 17.2972 4.71695 -8.94961
416 1 3.14434 15.725 3.14434 -8.94936
417 1 4.71653 17.2977 4.71653 -8.94899
418 1 6.2892 15.7251 3.14402 -8.94976
419 1 7.86213 17.2973 4.71672 -8.95024
420 1 9.43458 15.7251 3.14398 -8.94922
421 1 11.0073 17.2975 4.71626 -8.9496
422 1 12.58 15.7253 3.14321 -8.9501
423 1 14.1532 17.2985 4.71579 -8.94998
424 1 15.7264 15.7263 3.14247 -8.94788
425 1 17.2977 17.2977 4.71645 -8.94956
426 1 18.8702 15.7252 3.14387 -8.94957
427 1 20.4419 17.2973 4.71685 -8.94955
428 1 22.014 18.8695 3.14463 -8.94958
429 1 1.57231 20.4417 4.71713 -8.94966
430 1 3.14455 18.8696 3.14455 -8.94942
431 1 4.71685 20.4419 4.71685 -8.9495
432 1 6.28955 18.8695 3.14454 -8.94979
433 1 7.86205 20.4418 4.71693 -8.94956
434 1 9.43457 18.8696 3.14444 -8.94959
435 1 11.0072 20.4418 4.7168 -8.94955
436 1 12.5797 18.8697 3.14418 -8.94964
437 1 14.1524 20.442 4.71667 -8.94971
438 1 15.725 18.87 3.14407 -8.94962
439 1 17.2971 20.4418 4.71696 -8.94967
440 1 18.8695 18.8697 3.14444 -8.94958
441 1 20.4417 20.4417 4.71711 -8.94961
442 1 1.57141 11.007 7.86197 -8.9501
443 1 4.71374 11.007 7.86195 -8.95356
444 1 7.84831 11.007 7.84831 -9.0126
445 1 11.0457 11.007 7.77348 -9.2655
446 1 14.1622 11.007 7.85569 -9.00914
447 1 17.3003 11.007 7.86063 -8.95097
448 1 20.4424 11.007 7.8616 -8.94994
449 1 22.0141 12.5797 6.28919 -8.94995
450 1 1.57161 14.1526 7.8617 -8.94952
451 1 3.14343 12.5798 6.28892 -8.95051
452 1 4.71521 14.1529 7.86142 -8.95095
453 1 6.2854 12.5812 6.2854 -8.947
454 1 7.8558 14.1569 7.8558 -9.0096
455 1 9.43129 12.5807 6.28899 -9.03943
456 1 11.0135 14.1525 7.85733 -9.03335
457 1 12.5953 12.5904 6.27223 -8.97394
458 1 14.1564 14.1541 7.85946 -8.9483
459 1 15.73 12.5809 6.28582 -8.95208
460 1 17.299 14.153 7.8609 -8.94942
461 1 18.8711 12.5799 6.28853 -8.95026
462 1 20.4421 14.1525 7.86161 -8.94968
463 1 22.014 15.7249 6.28928 -8.9496
464 1 1.57216 17.2972 7.862 -8.94958
465 1 3.14402 15.7251 6.2892 -8.94976
466 1 4.71672 17.2973 7.86213 -8.95024
467 1 6.28768 15.7266 6.28768 -8.94721
468 1 7.86047 17.2999 7.86047 -8.94812
469 1 9.43528 15.7252 6.28947 -8.95115
470 1 11.0088 17.2991 7.86042 -8.94664
471 1 12.5819 15.7273 6.28697 -8.95178
472 1 14.1529 17.2977 7.86159 -8.95026
473 1 15.7264 15.7258 6.28816 -8.94924
474 1 17.2975 17.2974 7.86174 -8.94961
475 1 18.8702 15.7251 6.28896 -8.94947
476 1 20.4418 17.2973 7.86191 -8.94956
477 1 22.0139 18.8695 6.28954 -8.94961
478 1 1.57227 20.4417 7.86206 -8.9496
479 1 3.14454 18.8695 6.28955 -8.94979
480 1 4.71693 20.4418 7.86205 -8.94956
481 1 6.28891 18.8703 6.28891 -8.94934
482 1 7.86172 20.4423 7.86172 -8.95005
483 1 9.43472 18.8699 6.28921 -8.94924
484 1 11.0074 20.4422 7.86169 -8.94971
485 1 12.5803 18.8703 6.28876 -8.94968
486 1 14.1523 20.4418 7.86193 -8.94966
487 1 15.725 18.8698 6.28925 -8.94976
488 1 17.297 20.4418 7.862 -8.94961
489 1 18.8695 18.8696 6.28944 -8.94962
490 1 20.4416 20.4417 7.86204 -8.94961
491 1 22.0132 12.5799 9.43431 -8.9496
492 1 3.14215 12.5807 9.43404 -8.94651
493 1 6.28899 12.5807 9.43129 -9.03943
494 1 9.41608 12.6569 9.41608 -9.37185
495 1 12.5864 12.5814 9.42834 -9.03215
496 1 15.7287 12.5808 9.43245 -8.94785
497 1 18.8706 12.58 9.43397 -8.94976
498 1 22.0137 15.7249 9.43444 -8.9495
499 1 3.14398 15.7251 9.43458 -8.94922
500 1 6.28947 15.7252 9.43528 -8.95115
512 1 1.56862 11.007 11.0073 -8.95313
513 1 4.70213 11.007 11.0092 -8.97426
539 1 20.4415 20.4417 11.007 -8.9496
686 1 20.4415 20.4417 20.4415 -8.94943
685 1 18.8691 18.8696 18.8691 -8.94945
514 1 7.77348 11.007 11.0457 -9.2655
515 1 11.0749 11.007 11.0749 -9.32748
684 1 17.2968 20.4417 20.4414 -8.94961
517 1 17.3001 11.007 11.0066 -8.95302
518 1 20.4414 11.007 11.0069 -8.95067
683 1 15.7244 18.8695 18.8691 -8.94965
682 1 14.1519 20.4417 20.4414 -8.94961
521 1 7.85733 14.1525 11.0135 -9.03335
522 1 11.0108 14.1534 11.0108 -9.05669
523 1 14.1543 14.1526 11.0063 -8.95014
524 1 17.298 14.1525 11.0068 -8.94939
525 1 20.4414 14.1525 11.007 -8.94954
526 1 1.57184 17.2973 11.0071 -8.94957
681 1 12.5794 18.8695 18.8691 -8.9496
528 1 7.86042 17.2991 11.0088 -8.94664
529 1 11.0084 17.2991 11.0084 -8.94709
530 1 14.1525 17.2973 11.0068 -8.94986
680 1 11.007 20.4417 20.4415 -8.9496
679 1 9.43447 18.8695 18.8693 -8.9496
533 1 1.57214 20.4417 11.007 -8.9496
678 1 7.86204 20.4417 20.4416 -8.94961
535 1 7.86169 20.4422 11.0074 -8.94971
536 1 11.0074 20.4422 11.0074 -8.94975
677 1 6.28944 18.8696 18.8695 -8.94962
676 1 4.71711 20.4417 20.4417 -8.94961
391 1 18.8694 18.8696 22.0136 -8.9494
540 1 1.56933 11.007 14.1536 -8.94954
541 1 4.71071 11.007 14.157 -8.9472
542 1 7.85569 11.007 14.1622 -9.00914
543 1 11.0063 11.007 14.1659 -9.01505
544 1 14.1533 11.007 14.1533 -8.9497
545 1 17.2975 11.007 14.1524 -8.94917
546 1 20.4407 11.007 14.1525 -8.94974
547 1 22.0121 12.5799 12.5801 -8.95046
548 1 1.56973 14.1532 14.1535 -8.94982
549 1 3.13861 12.5812 12.5823 -8.95159
550 1 4.7111 14.1565 14.1574 -8.94341
551 1 6.27223 12.5904 12.5953 -8.97394
552 1 7.85946 14.1541 14.1564 -8.9483
553 1 9.42834 12.5814 12.5864 -9.03215
554 1 11.0063 14.1526 14.1543 -8.95014
555 1 12.5879 12.5884 12.5879 -9.00813
556 1 14.1547 14.1547 14.1547 -8.94539
557 1 15.7277 12.5808 12.5807 -8.94983
558 1 17.2977 14.1528 14.1526 -8.94967
559 1 18.8697 12.5799 12.5797 -8.95016
560 1 20.4409 14.1525 14.1524 -8.94992
561 1 -0.000724102 15.725 12.5797 -8.94952
562 1 1.57155 17.2975 14.1523 -8.94979
563 1 3.14321 15.7253 12.58 -8.9501
564 1 4.71579 17.2985 14.1532 -8.94998
565 1 6.28697 15.7273 12.5819 -8.95178
566 1 7.86159 17.2977 14.1529 -8.95026
567 1 9.43397 15.7251 12.58 -8.95077
568 1 11.0068 17.2973 14.1525 -8.94986
569 1 12.5808 15.7267 12.5808 -8.95113
570 1 14.1525 17.2979 14.1525 -8.94967
571 1 15.7251 15.7251 12.5795 -8.94998
572 1 17.2969 17.2973 14.152 -8.94975
573 1 18.8693 15.7249 12.5795 -8.94955
574 1 20.4412 17.2973 14.152 -8.9496
575 1 22.0136 18.8695 12.5795 -8.9496
576 1 1.57202 20.4418 14.152 -8.94964
577 1 3.14418 18.8697 12.5797 -8.94964
578 1 4.71667 20.442 14.1524 -8.94971
579 1 6.28876 18.8703 12.5803 -8.94968
580 1 7.86193 20.4418 14.1523 -8.94966
581 1 9.43443 18.8698 12.5799 -8.9493
582 1 11.007 20.4417 14.1522 -8.94958
583 1 12.5801 18.8701 12.5801 -8.94959
584 1 14.1522 20.4419 14.1522 -8.94961
585 1 15.7246 18.8695 12.5795 -8.94971
586 1 17.2968 20.4417 14.1519 -8.94966
587 1 18.8691 18.8695 12.5794 -8.9496
588 1 20.4414 20.4417 14.1519 -8.94961
589 1 1.57093 11.007 17.298 -8.94953
590 1 4.71498 11.007 17.2995 -8.94933
591 1 7.86063 11.007 17.3003 -8.95097
592 1 11.0066 11.007 17.3001 -8.95302
593 1 14.1524 11.007 17.2975 -8.94917
594 1 17.2969 11.007 17.2969 -8.94956
595 1 20.441 11.007 17.2972 -8.94957
596 1 22.0125 12.5798 15.7253 -8.94954
597 1 1.57108 14.1526 17.2979 -8.94955
598 1 3.1419 12.5802 15.7268 -8.94931
599 1 4.71526 14.1532 17.2993 -8.94989
600 1 6.28582 12.5809 15.73 -8.95208
601 1 7.8609 14.153 17.299 -8.94942
602 1 9.43245 12.5808 15.7287 -8.94785
603 1 11.0068 14.1525 17.298 -8.94939
604 1 12.5807 12.5808 15.7277 -8.94983
605 1 14.1526 14.1528 17.2977 -8.94967
606 1 15.725 12.5797 15.725 -8.94998
607 1 17.297 14.1523 17.297 -8.94975
608 1 18.869 12.5797 15.7247 -8.94961
609 1 20.4411 14.1523 17.2972 -8.94959
610 1 22.0129 15.7252 15.7251 -8.94955
611 1 1.57151 17.2977 17.2975 -8.94909
612 1 3.14247 15.7263 15.7264 -8.94788
613 1 4.71645 17.2977 17.2977 -8.94956
614 1 6.28816 15.7258 15.7264 -8.94924
615 1 7.86174 17.2974 17.2975 -8.94961
616 1 9.43407 15.7253 15.7256 -8.94908
617 1 11.0069 17.2972 17.2971 -8.94953
618 1 12.5795 15.7251 15.7251 -8.94998
619 1 14.152 17.2973 17.2969 -8.94975
620 1 15.7252 15.7255 15.7252 -8.94854
621 1 17.2969 17.2974 17.2969 -8.94932
622 1 18.8692 15.725 15.7247 -8.94958
623 1 20.4412 17.2973 17.2971 -8.94949
624 1 -0.000393416 18.8696 15.7245 -8.94966
625 1 1.57203 20.4418 17.297 -8.94956
626 1 3.14407 18.87 15.725 -8.94962
627 1 4.71696 20.4418 17.2971 -8.94967
628 1 6.28925 18.8698 15.725 -8.94976
629 1 7.862 20.4418 17.297 -8.94961
630 1 9.43442 18.8696 15.7247 -8.94958
631 1 11.007 20.4417 17.2969 -8.9496
632 1 12.5795 18.8695 15.7246 -8.94971
633 1 14.1519 20.4417 17.2968 -8.94966
634 1 15.7246 18.8697 15.7246 -8.94955
635 1 17.2968 20.4417 17.2968 -8.94956
636 1 18.8691 18.8695 15.7244 -8.94965
637 1 20.4414 20.4417 17.2968 -8.94961
638 1 1.57184 11.007 20.4421 -8.94957
639 1 4.71642 11.007 20.4425 -8.94974
640 1 7.8616 11.007 20.4424 -8.94994
641 1 11.0069 11.007 20.4414 -8.95067
642 1 14.1525 11.007 20.4407 -8.94974
643 1 17.2972 11.007 20.441 -8.94957
644 1 20.4415 11.007 20.4415 -8.94958
645 1 22.0133 12.5796 18.8697 -8.94957
646 1 1.57189 14.1522 20.442 -8.94958
647 1 3.14363 12.5798 18.8705 -8.94953
648 1 4.71652 14.1524 20.4424 -8.94985
649 1 6.28853 12.5799 18.8711 -8.95026
650 1 7.86161 14.1525 20.4421 -8.94968
651 1 9.43397 12.58 18.8706 -8.94976
652 1 11.007 14.1525 20.4414 -8.94954
653 1 12.5797 12.5799 18.8697 -8.95016
654 1 14.1524 14.1525 20.4409 -8.94992
655 1 15.7247 12.5797 18.869 -8.94961
656 1 17.2972 14.1523 20.4411 -8.94959
657 1 18.8691 12.5796 18.8691 -8.94958
658 1 20.4415 14.1522 20.4415 -8.94958
659 1 22.0134 15.7248 18.8696 -8.94958
660 1 1.57204 17.2973 20.4419 -8.94953
661 1 3.14387 15.7252 18.8702 -8.94957
662 1 4.71685 17.2973 20.4419 -8.94955
663 1 6.28896 15.7251 18.8702 -8.94947
664 1 7.86191 17.2973 20.4418 -8.94956
665 1 9.4343 15.725 18.8697 -8.94949
666 1 11.007 17.2972 20.4415 -8.94956
667 1 12.5795 15.7249 18.8693 -8.94955
668 1 14.152 17.2973 20.4412 -8.9496
669 1 15.7247 15.725 18.8692 -8.94958
670 1 17.2971 17.2973 20.4412 -8.94949
671 1 18.8692 15.7248 18.8692 -8.94962
672 1 20.4415 17.2972 20.4415 -8.94957
673 1 22.0136 18.8696 18.8694 -8.9494
674 1 1.57226 20.4417 20.4416 -8.94956
675 1 3.14444 18.8697 18.8695 -8.94958
351 1 22.0139 12.5796 22.0139 -8.94959
355 1 6.28919 12.5797 22.0141 -8.94995
357 1 9.43431 12.5799 22.0132 -8.9496
359 1 12.5801 12.5799 22.0121 -8.95046
367 1 3.14442 15.7248 22.0141 -8.94966
369 1 6.28928 15.7249 22.014 -8.9496
371 1 9.43444 15.7249 22.0137 -8.9495
375 1 15.7251 15.7252 22.0129 -8.94955
379 1 22.0139 18.8695 22.0139 -8.94949
383 1 6.28954 18.8695 22.0139 -8.94961
385 1 9.43451 18.8695 22.0138 -8.94959
387 1 12.5795 18.8695 22.0136 -8.9496
353 1 3.14434 12.5796 22.0142 -8.94961
538 1 17.2969 20.4417 11.007 -8.9496
361 1 15.7253 12.5798 22.0125 -8.94954
363 1 18.8697 12.5796 22.0133 -8.94957
532 1 20.4415 17.2972 11.007 -8.94956
531 1 17.2971 17.2972 11.0069 -8.94953
365 1 22.0139 15.7247 22.0139 -8.94959
377 1 18.8696 15.7248 22.0134 -8.94958
381 1 3.14463 18.8695 22.014 -8.94958
