ITEM: TIMESTEP
29
ITEM: NUMBER OF ATOMS
688
ITEM: BOX BOUNDS pp pp pp
0.0000000000000000e+00 2.2013900999999997e+01
0.0000000000000000e+00 2.2013900999999997e+01
0.0000000000000000e+00 2.2013900999999997e+01
ITEM: ATOMS id type x y z c_pot
175 1 18.8696 9.43438 9.4345 -8.94981
2 1 1.57242 1.57242 1.57242 -8.94962
174 1 15.7267 9.43342 9.43408 -8.94833
4 1 4.71727 1.57242 1.57242 -8.94965
191 1 4.71671 7.86211 11.0061 -8.95082
6 1 7.8621 1.57242 1.57242 -8.94963
7 1 9.43453 1.5507e-15 -5.88247e-07 -8.94963
8 1 11.007 1.57242 1.57242 -8.94963
173 1 12.5855 9.43105 9.43088 -9.03234
10 1 14.1518 1.57242 1.57242 -8.94964
11 1 15.7242 1.1216e-15 -8.80883e-08 -8.94964
12 1 17.2966 1.57241 1.57241 -8.94962
172 1 9.41642 9.35421 9.41642 -9.36935
14 1 20.4415 1.57242 1.57242 -8.94963
171 1 6.29113 9.43356 9.43088 -9.04169
16 1 1.57241 4.71725 1.57241 -8.9496
190 1 1.57224 7.862 11.0069 -8.9494
18 1 4.71724 4.71724 1.57238 -8.94965
170 1 3.14405 9.43386 9.43397 -8.94683
20 1 7.86211 4.71723 1.57239 -8.94961
169 1 22.0138 9.43442 9.43447 -8.94959
22 1 11.0069 4.71723 1.57238 -8.94963
168 1 18.8692 6.28961 9.43455 -8.9496
24 1 14.1518 4.71725 1.57241 -8.94978
25 1 15.7242 3.14484 8.32091e-07 -8.94966
26 1 17.2967 4.7172 1.57236 -8.94944
167 1 15.7247 6.28919 9.4346 -8.94913
28 1 20.4415 4.71726 1.57241 -8.94962
184 1 4.71705 4.71714 11.0068 -8.9496
30 1 1.57241 7.8621 1.57241 -8.94965
166 1 12.5796 6.28863 9.43458 -8.95091
32 1 4.71718 7.86204 1.57228 -8.94966
165 1 9.4343 6.27461 9.4343 -8.97129
34 1 7.86202 7.86197 1.57217 -8.94964
164 1 6.28997 6.28945 9.43484 -8.95098
36 1 11.0069 7.862 1.57224 -8.9494
37 1 12.5794 6.28966 -8.89611e-06 -8.94961
38 1 14.152 7.86185 1.57191 -8.94981
163 1 3.1447 6.28946 9.4345 -8.9493
40 1 17.2967 7.8621 1.57238 -8.94969
180 1 14.1518 1.57236 11.0069 -8.94968
42 1 20.4415 7.86211 1.57242 -8.94963
162 1 22.0139 6.28965 9.43453 -8.94962
177 1 4.71723 1.5724 11.0069 -8.94962
161 1 18.8691 3.14483 9.43453 -8.94964
160 1 15.7243 3.14473 9.43453 -8.94958
159 1 12.5794 3.14454 9.43451 -8.94956
158 1 9.43452 3.14267 9.43452 -8.95397
157 1 6.2896 3.14471 9.43455 -8.94933
50 1 22.0139 1.53263e-15 3.14484 -8.94964
51 1 1.57242 1.57242 4.71727 -8.94965
52 1 3.14483 1.36269e-15 3.14483 -8.9496
53 1 4.71721 1.57236 4.71721 -8.94957
54 1 6.28969 8.36109e-16 3.14484 -8.94965
55 1 7.86212 1.57241 4.71724 -8.94962
56 1 9.43453 1.25747e-15 3.14484 -8.94965
57 1 11.0069 1.5724 4.71723 -8.94962
58 1 12.5794 1.22528e-15 3.14484 -8.94964
59 1 14.1518 1.57234 4.71721 -8.94963
60 1 15.7242 1.67739e-15 3.14483 -8.94962
61 1 17.2966 1.57241 4.71726 -8.94964
62 1 18.8691 1.79405e-15 3.14484 -8.94963
63 1 20.4415 1.57242 4.71726 -8.94964
64 1 22.0139 3.14484 3.14484 -8.94963
65 1 1.57238 4.71724 4.71724 -8.94965
66 1 3.14481 3.1448 3.14481 -8.94954
67 1 4.71702 4.71696 4.71702 -8.9491
68 1 6.2897 3.14483 3.14482 -8.94974
69 1 7.86219 4.71725 4.71716 -8.9501
70 1 9.43452 3.14479 3.1448 -8.94962
71 1 11.0068 4.71714 4.71705 -8.9496
72 1 12.5794 3.14482 3.14481 -8.94964
73 1 14.152 4.71675 4.717 -8.94978
74 1 15.7243 3.14476 3.14479 -8.94961
75 1 17.2967 4.71718 4.71721 -8.94959
76 1 18.8691 3.14483 3.14484 -8.94963
77 1 20.4415 4.71725 4.71725 -8.94962
78 1 22.0139 6.28967 3.14482 -8.94963
79 1 1.57228 7.86204 4.71718 -8.94966
80 1 3.14473 6.28958 3.14473 -8.94942
81 1 4.71662 7.86154 4.71662 -8.94859
82 1 6.28959 6.28955 3.14458 -8.94979
83 1 7.86176 7.86176 4.71608 -8.95123
84 1 9.4345 6.28946 3.1447 -8.9493
85 1 11.0061 7.86211 4.71671 -8.95082
86 1 12.5792 6.28962 3.14474 -8.95008
87 1 14.1543 7.85949 4.71459 -8.9441
88 1 15.7247 6.28923 3.14436 -8.9485
89 1 17.2971 7.86186 4.71698 -8.94981
90 1 18.8691 6.28964 3.14479 -8.94962
91 1 20.4415 7.86208 4.71723 -8.94972
92 1 22.0139 9.43453 3.14483 -8.94962
93 1 3.14475 9.4345 3.14475 -8.94963
94 1 6.28934 9.43439 3.14413 -8.95029
95 1 9.43397 9.43386 3.14405 -8.94683
96 1 12.5802 9.43374 3.14248 -8.95145
97 1 15.7245 9.43445 3.14455 -8.94957
98 1 18.8691 9.43452 3.1448 -8.94959
99 1 22.0139 1.25449e-15 6.28969 -8.94963
100 1 1.57242 1.57242 7.8621 -8.94963
101 1 3.14484 8.09705e-16 6.28969 -8.94965
102 1 4.71724 1.57241 7.86212 -8.94962
103 1 6.28962 1.74198e-15 6.28962 -8.94969
104 1 7.86196 1.57211 7.86196 -8.94985
105 1 9.43453 1.8262e-15 6.28965 -8.94954
106 1 11.0071 1.57213 7.86196 -8.94968
107 1 12.5794 1.54794e-15 6.28962 -8.94971
108 1 14.1518 1.57235 7.8621 -8.9497
109 1 15.7242 1.8766e-15 6.28968 -8.94966
110 1 17.2966 1.57241 7.86211 -8.94962
111 1 18.8691 4.55766e-16 6.28969 -8.94963
112 1 20.4415 1.57242 7.86211 -8.94963
113 1 22.0139 3.14484 6.28969 -8.94963
114 1 1.57239 4.71723 7.86211 -8.94961
115 1 3.14482 3.14483 6.2897 -8.94974
116 1 4.71716 4.71725 7.86219 -8.9501
117 1 6.2894 3.14443 6.2894 -8.94941
118 1 7.86091 4.7153 7.86091 -8.9482
119 1 9.43455 3.14471 6.2896 -8.94933
120 1 11.008 4.71569 7.86106 -8.94684
121 1 12.5796 3.14438 6.28943 -8.94964
122 1 14.1521 4.71681 7.86209 -8.95007
123 1 15.7243 3.14474 6.28966 -8.94967
124 1 17.2967 4.71718 7.8621 -8.94966
125 1 18.8691 3.14483 6.28968 -8.94964
126 1 20.4415 4.71725 7.86211 -8.94963
127 1 22.0139 6.28965 6.28966 -8.94963
128 1 1.57217 7.86197 7.86202 -8.94964
129 1 3.14458 6.28955 6.28959 -8.94979
130 1 4.71608 7.86176 7.86176 -8.95123
131 1 6.28827 6.28822 6.28827 -8.94713
132 1 7.85556 7.85724 7.85556 -9.00994
133 1 9.43484 6.28945 6.28997 -8.95098
134 1 11.0124 7.86107 7.85894 -9.03238
135 1 12.5803 6.28766 6.28872 -8.95138
136 1 14.1545 7.86028 7.86145 -8.94805
137 1 15.7247 6.28922 6.28941 -8.94928
138 1 17.2974 7.86173 7.86195 -8.94954
139 1 18.8692 6.2896 6.28963 -8.94956
140 1 20.4416 7.86205 7.86208 -8.9497
141 1 22.0138 9.43451 6.28965 -8.94983
142 1 3.14413 9.43439 6.28934 -8.95029
143 1 6.28635 9.43318 6.28635 -8.9471
144 1 9.43088 9.43356 6.29113 -9.04169
145 1 12.5917 9.4243 6.27742 -8.97386
146 1 15.7266 9.4338 6.28873 -8.95176
147 1 18.8694 9.43447 6.28959 -8.95004
148 1 -5.88247e-07 1.06548e-15 9.43453 -8.94963
149 1 3.14484 1.06259e-15 9.43453 -8.94965
150 1 6.28965 1.73262e-15 9.43453 -8.94954
151 1 9.43452 1.77077e-15 9.43452 -8.9507
152 1 12.5794 1.3749e-15 9.43452 -8.94961
153 1 15.7242 5.76271e-16 9.43453 -8.94965
154 1 18.8691 1.07392e-15 9.43453 -8.94963
155 1 22.0139 3.14484 9.43453 -8.94964
156 1 3.1448 3.14479 9.43452 -8.94962
182 1 20.4415 1.57242 11.007 -8.94963
176 1 1.57242 1.57242 11.007 -8.94963
343 1 18.8691 9.43453 18.8691 -8.94963
178 1 7.86196 1.57213 11.0071 -8.94968
179 1 11.0071 1.57208 11.0071 -8.94974
342 1 15.7242 9.43454 18.8691 -8.94963
341 1 12.5795 9.43444 18.8693 -8.94982
47 1 12.5794 9.43446 22.0136 -8.95008
183 1 1.57238 4.71723 11.0069 -8.94963
340 1 9.4345 9.43438 18.8696 -8.94981
185 1 7.86106 4.71569 11.008 -8.94684
186 1 11.008 4.71544 11.008 -8.94733
187 1 14.1521 4.71688 11.007 -8.94984
339 1 6.28959 9.43447 18.8694 -8.95004
338 1 3.1448 9.43452 18.8691 -8.94959
337 1 22.0139 9.43453 18.8691 -8.94964
336 1 20.4415 7.86211 20.4415 -8.94963
192 1 7.85894 7.86107 11.0124 -9.03238
193 1 11.0106 7.85955 11.0106 -9.05457
194 1 14.1535 7.86104 11.0071 -8.94981
195 1 17.2971 7.86186 11.0071 -8.94955
196 1 20.4415 7.86206 11.007 -8.94963
197 1 22.0139 1.34402e-15 12.5794 -8.94963
198 1 1.57242 1.57242 14.1518 -8.94964
199 1 3.14484 1.20929e-15 12.5794 -8.94964
200 1 4.71721 1.57234 14.1518 -8.94963
201 1 6.28962 1.2936e-15 12.5794 -8.94971
202 1 7.8621 1.57235 14.1518 -8.9497
203 1 9.43452 1.30948e-15 12.5794 -8.94961
204 1 11.0069 1.57236 14.1518 -8.94968
205 1 12.5794 7.48954e-16 12.5794 -8.9497
206 1 14.1519 1.57234 14.1519 -8.94959
207 1 15.7242 1.33744e-15 12.5794 -8.94966
208 1 17.2966 1.57241 14.1518 -8.94964
209 1 18.8691 6.63283e-16 12.5794 -8.94963
210 1 20.4415 1.57242 14.1518 -8.94963
211 1 22.0139 3.14484 12.5794 -8.94963
212 1 1.57241 4.71725 14.1518 -8.94978
213 1 3.14481 3.14482 12.5794 -8.94964
214 1 4.717 4.71675 14.152 -8.94978
215 1 6.28943 3.14438 12.5796 -8.94964
216 1 7.86209 4.71681 14.1521 -8.95007
217 1 9.43451 3.14454 12.5794 -8.94956
218 1 11.007 4.71688 14.1521 -8.94984
219 1 12.5796 3.14435 12.5796 -8.94956
220 1 14.1521 4.71685 14.1521 -8.94946
221 1 15.7243 3.14476 12.5794 -8.94968
222 1 17.2967 4.71719 14.1518 -8.94963
223 1 18.8691 3.14483 12.5794 -8.94963
224 1 20.4415 4.71725 14.1518 -8.94963
225 1 -8.89611e-06 6.28966 12.5794 -8.94961
226 1 1.57191 7.86185 14.152 -8.94981
227 1 3.14474 6.28962 12.5792 -8.95008
228 1 4.71459 7.85949 14.1543 -8.9441
229 1 6.28872 6.28766 12.5803 -8.95138
230 1 7.86145 7.86028 14.1545 -8.94805
231 1 9.43458 6.28863 12.5796 -8.95091
232 1 11.0071 7.86104 14.1535 -8.94981
233 1 12.5803 6.28775 12.5803 -8.95033
234 1 14.1533 7.86062 14.1533 -8.94675
235 1 15.7246 6.28933 12.5796 -8.94968
236 1 17.297 7.86191 14.152 -8.9496
237 1 18.8692 6.28962 12.5794 -8.94961
238 1 20.4415 7.86207 14.1518 -8.94973
239 1 22.0136 9.43446 12.5794 -8.95008
240 1 3.14248 9.43374 12.5802 -8.95145
241 1 6.27742 9.4243 12.5917 -8.97386
242 1 9.43088 9.43105 12.5855 -9.03234
243 1 12.585 9.42686 12.585 -9.01028
244 1 15.7258 9.43375 12.5802 -8.94948
245 1 18.8693 9.43444 12.5795 -8.94982
246 1 -8.80883e-08 1.31206e-15 15.7242 -8.94964
247 1 1.57241 1.57241 17.2966 -8.94962
248 1 3.14483 1.60644e-15 15.7242 -8.94962
249 1 4.71726 1.57241 17.2966 -8.94964
250 1 6.28968 1.76009e-15 15.7242 -8.94966
251 1 7.86211 1.57241 17.2966 -8.94962
252 1 9.43453 4.01872e-16 15.7242 -8.94965
253 1 11.007 1.57241 17.2966 -8.94962
254 1 12.5794 1.34581e-15 15.7242 -8.94966
255 1 14.1518 1.57241 17.2966 -8.94964
256 1 15.7242 1.58051e-15 15.7242 -8.94961
257 1 17.2966 1.57242 17.2966 -8.94962
258 1 18.8691 1.53305e-15 15.7242 -8.94963
259 1 20.4415 1.57242 17.2966 -8.94964
260 1 8.32091e-07 3.14484 15.7242 -8.94966
261 1 1.57236 4.7172 17.2967 -8.94944
262 1 3.14479 3.14476 15.7243 -8.94961
263 1 4.71721 4.71718 17.2967 -8.94959
264 1 6.28966 3.14474 15.7243 -8.94967
265 1 7.8621 4.71718 17.2967 -8.94966
266 1 9.43453 3.14473 15.7243 -8.94958
267 1 11.007 4.71718 17.2967 -8.94959
268 1 12.5794 3.14476 15.7243 -8.94968
269 1 14.1518 4.71719 17.2967 -8.94963
270 1 15.7243 3.14478 15.7243 -8.94957
271 1 17.2967 4.71723 17.2967 -8.94954
272 1 18.8691 3.14483 15.7242 -8.94963
273 1 20.4415 4.71725 17.2966 -8.94961
274 1 22.0138 6.28963 15.7243 -8.94962
275 1 1.57238 7.8621 17.2967 -8.94969
276 1 3.14436 6.28923 15.7247 -8.9485
277 1 4.71698 7.86186 17.2971 -8.94981
278 1 6.28941 6.28922 15.7247 -8.94928
279 1 7.86195 7.86173 17.2974 -8.94954
280 1 9.4346 6.28919 15.7247 -8.94913
281 1 11.0071 7.86186 17.2971 -8.94955
282 1 12.5796 6.28933 15.7246 -8.94968
283 1 14.152 7.86191 17.297 -8.9496
284 1 15.7245 6.28945 15.7245 -8.94907
285 1 17.2967 7.86212 17.2967 -8.94974
286 1 18.8691 6.28965 15.7243 -8.94961
287 1 20.4415 7.86211 17.2966 -8.94964
288 1 22.0138 9.43452 15.7243 -8.94959
289 1 3.14455 9.43445 15.7245 -8.94957
290 1 6.28873 9.4338 15.7266 -8.95176
291 1 9.43408 9.43342 15.7267 -8.94833
292 1 12.5802 9.43375 15.7258 -8.94948
293 1 15.7243 9.4346 15.7243 -8.95006
294 1 18.8691 9.43454 15.7242 -8.94963
295 1 22.0139 1.82129e-15 18.8691 -8.94963
296 1 1.57242 1.57242 20.4415 -8.94963
297 1 3.14484 1.45465e-15 18.8691 -8.94963
298 1 4.71726 1.57242 20.4415 -8.94964
299 1 6.28969 1.56102e-16 18.8691 -8.94963
300 1 7.86211 1.57242 20.4415 -8.94963
301 1 9.43453 1.01293e-15 18.8691 -8.94963
302 1 11.007 1.57242 20.4415 -8.94963
303 1 12.5794 6.75061e-16 18.8691 -8.94963
304 1 14.1518 1.57242 20.4415 -8.94963
305 1 15.7242 1.65188e-15 18.8691 -8.94963
306 1 17.2966 1.57242 20.4415 -8.94964
307 1 18.8691 1.8404e-15 18.8691 -8.94963
308 1 20.4415 1.57242 20.4415 -8.94962
309 1 22.0139 3.14484 18.8691 -8.94961
310 1 1.57241 4.71726 20.4415 -8.94962
311 1 3.14484 3.14483 18.8691 -8.94963
312 1 4.71725 4.71725 20.4415 -8.94962
313 1 6.28968 3.14483 18.8691 -8.94964
314 1 7.86211 4.71725 20.4415 -8.94963
315 1 9.43453 3.14483 18.8691 -8.94964
316 1 11.007 4.71725 20.4415 -8.94963
317 1 12.5794 3.14483 18.8691 -8.94963
318 1 14.1518 4.71725 20.4415 -8.94963
319 1 15.7242 3.14483 18.8691 -8.94963
320 1 17.2966 4.71725 20.4415 -8.94961
321 1 18.8691 3.14484 18.8691 -8.94962
322 1 20.4415 4.71726 20.4415 -8.94964
323 1 22.0139 6.28969 18.8691 -8.94965
324 1 1.57242 7.86211 20.4415 -8.94963
325 1 3.14479 6.28964 18.8691 -8.94962
326 1 4.71723 7.86208 20.4415 -8.94972
327 1 6.28963 6.2896 18.8692 -8.94956
328 1 7.86208 7.86205 20.4416 -8.9497
329 1 9.43455 6.28961 18.8692 -8.9496
330 1 11.007 7.86206 20.4415 -8.94963
331 1 12.5794 6.28962 18.8692 -8.94961
332 1 14.1518 7.86207 20.4415 -8.94973
333 1 15.7243 6.28965 18.8691 -8.94961
334 1 17.2966 7.86211 20.4415 -8.94964
335 1 18.8691 6.28969 18.8691 -8.94965
1 1 22.0139 1.78483e-15 22.0139 -8.94963
3 1 3.14484 1.39318e-15 22.0139 -8.94964
9 1 12.5794 1.28254e-15 22.0139 -8.94963
13 1 18.8691 1.76937e-15 22.0139 -8.94963
15 1 22.0139 3.14484 22.0139 -8.94962
19 1 6.28969 3.14484 22.0139 -8.94963
21 1 9.43453 3.14484 22.0139 -8.94964
23 1 12.5794 3.14484 22.0139 -8.94963
27 1 18.8691 3.14484 22.0139 -8.94961
31 1 3.14482 6.28967 22.0139 -8.94963
33 1 6.28966 6.28965 22.0139 -8.94963
35 1 9.43453 6.28965 22.0139 -8.94962
39 1 15.7243 6.28963 22.0138 -8.94962
43 1 22.0139 9.43453 22.0139 -8.94964
45 1 6.28965 9.43451 22.0138 -8.94983
46 1 9.43447 9.43442 22.0138 -8.94959
5 1 6.28969 1.7088e-15 22.0139 -8.94963
17 1 3.14484 3.14484 22.0139 -8.94963
29 1 22.0139 6.28969 22.0139 -8.94964
189 1 20.4415 4.71725 11.007 -8.94963
188 1 17.2967 4.71718 11.007 -8.94959
41 1 18.8691 6.28969 22.0139 -8.94965
181 1 17.2966 1.57241 11.007 -8.94962
44 1 3.14483 9.43453 22.0139 -8.94962
48 1 15.7243 9.43452 22.0138 -8.94959
49 1 18.8691 9.43453 22.0139 -8.94964
344 1 1.57241 11.007 1.57241 -8.94965
345 1 4.71718 11.007 1.57227 -8.94954
346 1 7.86212 11.007 1.57208 -8.95013
347 1 11.0068 11.007 1.57109 -8.95214
348 1 14.152 11.007 1.57199 -8.94946
349 1 17.2967 11.007 1.57238 -8.94965
350 1 20.4415 11.007 1.57242 -8.94963
688 2 10.3147 11.007 9.35033 0.564628
352 1 1.57241 14.1518 1.57241 -8.94965
537 1 14.1518 20.4415 11.0069 -8.94968
354 1 4.71718 14.1519 1.57228 -8.94966
687 2 9.35033 11.007 10.3147 0.564628
356 1 7.86202 14.1519 1.57217 -8.94964
511 1 18.8691 18.8691 9.43453 -8.94964
358 1 11.0069 14.1519 1.57224 -8.9494
510 1 15.7243 18.8692 9.43453 -8.94958
360 1 14.152 14.152 1.57191 -8.94981
534 1 4.71723 20.4415 11.0069 -8.94962
362 1 17.2967 14.1518 1.57238 -8.94969
527 1 4.71705 17.2968 11.0068 -8.9496
364 1 20.4415 14.1518 1.57242 -8.94963
520 1 4.71671 14.1518 11.0061 -8.95082
366 1 1.57241 17.2967 1.57241 -8.9496
509 1 12.5794 18.8694 9.43451 -8.94956
368 1 4.71724 17.2967 1.57238 -8.94965
508 1 9.43452 18.8712 9.43452 -8.95397
370 1 7.86211 17.2967 1.57239 -8.94961
507 1 6.2896 18.8692 9.43455 -8.94933
372 1 11.0069 17.2967 1.57238 -8.94963
373 1 12.5794 15.7242 -8.89611e-06 -8.94961
374 1 14.1518 17.2967 1.57241 -8.94978
506 1 3.1448 18.8691 9.43452 -8.94962
376 1 17.2967 17.2967 1.57236 -8.94944
519 1 1.57224 14.1519 11.0069 -8.9494
378 1 20.4415 17.2966 1.57241 -8.94962
505 1 22.0139 18.8691 9.43453 -8.94964
380 1 1.57242 20.4415 1.57242 -8.94962
516 1 14.1624 11.007 11.0066 -9.01325
382 1 4.71727 20.4415 1.57242 -8.94965
504 1 18.8692 15.7243 9.43455 -8.9496
384 1 7.8621 20.4415 1.57242 -8.94963
503 1 15.7247 15.7247 9.4346 -8.94913
386 1 11.007 20.4415 1.57242 -8.94963
502 1 12.5796 15.7253 9.43458 -8.95091
388 1 14.1518 20.4415 1.57242 -8.94964
389 1 15.7242 18.8691 8.32091e-07 -8.94966
390 1 17.2966 20.4415 1.57241 -8.94962
501 1 9.4343 15.7393 9.4343 -8.97129
392 1 20.4415 20.4415 1.57242 -8.94963
393 1 1.57227 11.007 4.71718 -8.94954
394 1 4.71665 11.007 4.71665 -8.94843
395 1 7.86185 11.007 4.71516 -8.95362
396 1 11.0071 11.007 4.70764 -8.97383
397 1 14.1534 11.007 4.71536 -8.94767
398 1 17.2971 11.007 4.71701 -8.94936
399 1 20.4415 11.007 4.71723 -8.94965
400 1 22.0139 12.5794 3.14483 -8.94962
401 1 1.57228 14.1519 4.71718 -8.94966
402 1 3.14475 12.5794 3.14475 -8.94963
403 1 4.71662 14.1524 4.71662 -8.94859
404 1 6.28934 12.5795 3.14413 -8.95029
405 1 7.86176 14.1521 4.71608 -8.95123
406 1 9.43397 12.58 3.14405 -8.94683
407 1 11.0061 14.1518 4.71671 -8.95082
408 1 12.5802 12.5802 3.14248 -8.95145
409 1 14.1543 14.1544 4.71459 -8.9441
410 1 15.7245 12.5794 3.14455 -8.94957
411 1 17.2971 14.152 4.71698 -8.94981
412 1 18.8691 12.5794 3.1448 -8.94959
413 1 20.4415 14.1518 4.71723 -8.94972
414 1 22.0139 15.7242 3.14482 -8.94963
415 1 1.57238 17.2967 4.71724 -8.94965
416 1 3.14473 15.7243 3.14473 -8.94942
417 1 4.71702 17.2969 4.71702 -8.9491
418 1 6.28959 15.7243 3.14458 -8.94979
419 1 7.86219 17.2967 4.71716 -8.9501
420 1 9.4345 15.7244 3.1447 -8.9493
421 1 11.0068 17.2968 4.71705 -8.9496
422 1 12.5792 15.7243 3.14474 -8.95008
423 1 14.152 17.2972 4.717 -8.94978
424 1 15.7247 15.7247 3.14436 -8.9485
425 1 17.2967 17.2967 4.71721 -8.94959
426 1 18.8691 15.7243 3.14479 -8.94962
427 1 20.4415 17.2967 4.71725 -8.94962
428 1 22.0139 18.8691 3.14484 -8.94963
429 1 1.57242 20.4415 4.71727 -8.94965
430 1 3.14481 18.8691 3.14481 -8.94954
431 1 4.71721 20.4415 4.71721 -8.94957
432 1 6.2897 18.8691 3.14482 -8.94974
433 1 7.86212 20.4415 4.71724 -8.94962
434 1 9.43452 18.8691 3.1448 -8.94962
435 1 11.0069 20.4415 4.71723 -8.94962
436 1 12.5794 18.8691 3.14481 -8.94964
437 1 14.1518 20.4416 4.71721 -8.94963
438 1 15.7243 18.8691 3.14479 -8.94961
439 1 17.2966 20.4415 4.71726 -8.94964
440 1 18.8691 18.8691 3.14484 -8.94963
441 1 20.4415 20.4415 4.71726 -8.94964
442 1 1.57208 11.007 7.86212 -8.95013
443 1 4.71516 11.007 7.86185 -8.95362
444 1 7.84992 11.007 7.84992 -9.0104
445 1 11.0449 11.007 7.77848 -9.27271
446 1 14.1592 11.007 7.85972 -9.00956
447 1 17.298 11.007 7.86204 -8.95089
448 1 20.4416 11.007 7.8621 -8.94989
449 1 22.0138 12.5794 6.28965 -8.94983
450 1 1.57217 14.1519 7.86202 -8.94964
451 1 3.14413 12.5795 6.28934 -8.95029
452 1 4.71608 14.1521 7.86176 -8.95123
453 1 6.28635 12.5807 6.28635 -8.9471
454 1 7.85556 14.1567 7.85556 -9.00994
455 1 9.43088 12.5803 6.29113 -9.04169
456 1 11.0124 14.1528 7.85894 -9.03238
457 1 12.5917 12.5896 6.27742 -8.97386
458 1 14.1545 14.1536 7.86145 -8.94805
459 1 15.7266 12.5801 6.28873 -8.95176
460 1 17.2974 14.1522 7.86195 -8.94954
461 1 18.8694 12.5794 6.28959 -8.95004
462 1 20.4416 14.1519 7.86208 -8.9497
463 1 22.0139 15.7242 6.28966 -8.94963
464 1 1.57239 17.2967 7.86211 -8.94961
465 1 3.14458 15.7243 6.28959 -8.94979
466 1 4.71716 17.2967 7.86219 -8.9501
467 1 6.28827 15.7257 6.28827 -8.94713
468 1 7.86091 17.2986 7.86091 -8.9482
469 1 9.43484 15.7245 6.28997 -8.95098
470 1 11.008 17.2982 7.86106 -8.94684
471 1 12.5803 15.7262 6.28872 -8.95138
472 1 14.1521 17.2971 7.86209 -8.95007
473 1 15.7247 15.7247 6.28941 -8.94928
474 1 17.2967 17.2967 7.8621 -8.94966
475 1 18.8692 15.7243 6.28963 -8.94956
476 1 20.4415 17.2966 7.86211 -8.94963
477 1 22.0139 18.8691 6.28969 -8.94963
478 1 1.57242 20.4415 7.8621 -8.94963
479 1 3.14482 18.8691 6.2897 -8.94974
480 1 4.71724 20.4415 7.86212 -8.94962
481 1 6.2894 18.8695 6.2894 -8.94941
482 1 7.86196 20.4418 7.86196 -8.94985
483 1 9.43455 18.8692 6.2896 -8.94933
484 1 11.0071 20.4418 7.86196 -8.94968
485 1 12.5796 18.8695 6.28943 -8.94964
486 1 14.1518 20.4415 7.8621 -8.9497
487 1 15.7243 18.8692 6.28966 -8.94967
488 1 17.2966 20.4415 7.86211 -8.94962
489 1 18.8691 18.8691 6.28968 -8.94964
490 1 20.4415 20.4415 7.86211 -8.94963
491 1 22.0138 12.5795 9.43447 -8.94959
492 1 3.14405 12.58 9.43397 -8.94683
493 1 6.29113 12.5803 9.43088 -9.04169
494 1 9.41642 12.6597 9.41642 -9.36935
495 1 12.5855 12.5828 9.43088 -9.03234
496 1 15.7267 12.5805 9.43408 -8.94833
497 1 18.8696 12.5795 9.4345 -8.94981
498 1 22.0139 15.7243 9.43453 -8.94962
499 1 3.1447 15.7244 9.4345 -8.9493
500 1 6.28997 15.7245 9.43484 -8.95098
512 1 1.57109 11.007 11.0068 -8.95214
513 1 4.70764 11.007 11.0071 -8.97383
539 1 20.4415 20.4415 11.007 -8.94963
686 1 20.4415 20.4415 20.4415 -8.94962
685 1 18.8691 18.8691 18.8691 -8.94962
514 1 7.77848 11.007 11.0449 -9.27271
515 1 11.0695 11.007 11.0695 -9.33252
684 1 17.2966 20.4415 20.4415 -8.94964
517 1 17.2984 11.007 11.007 -8.95224
518 1 20.4416 11.007 11.007 -8.95027
683 1 15.7242 18.8691 18.8691 -8.94963
682 1 14.1518 20.4415 20.4415 -8.94963
521 1 7.85894 14.1528 11.0124 -9.03238
522 1 11.0106 14.1543 11.0106 -9.05457
523 1 14.1535 14.1529 11.0071 -8.94981
524 1 17.2971 14.152 11.0071 -8.94955
525 1 20.4415 14.1518 11.007 -8.94963
526 1 1.57238 17.2967 11.0069 -8.94963
681 1 12.5794 18.8691 18.8691 -8.94963
528 1 7.86106 17.2982 11.008 -8.94684
529 1 11.008 17.2985 11.008 -8.94733
530 1 14.1521 17.297 11.007 -8.94984
680 1 11.007 20.4415 20.4415 -8.94963
679 1 9.43453 18.8691 18.8691 -8.94964
533 1 1.57242 20.4415 11.007 -8.94963
678 1 7.86211 20.4415 20.4415 -8.94963
535 1 7.86196 20.4418 11.0071 -8.94968
536 1 11.0071 20.4418 11.0071 -8.94974
677 1 6.28968 18.8691 18.8691 -8.94964
676 1 4.71726 20.4415 20.4415 -8.94964
391 1 18.8691 18.8691 22.0139 -8.94961
540 1 1.57199 11.007 14.152 -8.94946
541 1 4.71536 11.007 14.1534 -8.94767
542 1 7.85972 11.007 14.1592 -9.00956
543 1 11.0066 11.007 14.1624 -9.01325
544 1 14.1518 11.007 14.1518 -8.95058
545 1 17.2968 11.007 14.1519 -8.94922
546 1 20.4414 11.007 14.1518 -8.94962
547 1 22.0136 12.5794 12.5794 -8.95008
548 1 1.57191 14.152 14.152 -8.94981
549 1 3.14248 12.5802 12.5802 -8.95145
550 1 4.71459 14.1544 14.1543 -8.9441
551 1 6.27742 12.5896 12.5917 -8.97386
552 1 7.86145 14.1536 14.1545 -8.94805
553 1 9.43088 12.5828 12.5855 -9.03234
554 1 11.0071 14.1529 14.1535 -8.94981
555 1 12.585 12.587 12.585 -9.01028
556 1 14.1533 14.1533 14.1533 -8.94675
557 1 15.7258 12.5801 12.5802 -8.94948
558 1 17.297 14.152 14.152 -8.9496
559 1 18.8693 12.5795 12.5795 -8.94982
560 1 20.4415 14.1518 14.1518 -8.94973
561 1 -8.89611e-06 15.7242 12.5794 -8.94961
562 1 1.57241 17.2967 14.1518 -8.94978
563 1 3.14474 15.7243 12.5792 -8.95008
564 1 4.717 17.2972 14.152 -8.94978
565 1 6.28872 15.7262 12.5803 -8.95138
566 1 7.86209 17.2971 14.1521 -8.95007
567 1 9.43458 15.7253 12.5796 -8.95091
568 1 11.007 17.297 14.1521 -8.94984
569 1 12.5803 15.7262 12.5803 -8.95033
570 1 14.1521 17.297 14.1521 -8.94946
571 1 15.7246 15.7246 12.5796 -8.94968
572 1 17.2967 17.2967 14.1518 -8.94963
573 1 18.8692 15.7243 12.5794 -8.94961
574 1 20.4415 17.2966 14.1518 -8.94963
575 1 22.0139 18.8691 12.5794 -8.94963
576 1 1.57242 20.4415 14.1518 -8.94964
577 1 3.14481 18.8691 12.5794 -8.94964
578 1 4.71721 20.4416 14.1518 -8.94963
579 1 6.28943 18.8695 12.5796 -8.94964
580 1 7.8621 20.4415 14.1518 -8.9497
581 1 9.43451 18.8694 12.5794 -8.94956
582 1 11.0069 20.4415 14.1518 -8.94968
583 1 12.5796 18.8696 12.5796 -8.94956
584 1 14.1519 20.4416 14.1519 -8.94959
585 1 15.7243 18.8691 12.5794 -8.94968
586 1 17.2966 20.4415 14.1518 -8.94964
587 1 18.8691 18.8691 12.5794 -8.94963
588 1 20.4415 20.4415 14.1518 -8.94963
589 1 1.57238 11.007 17.2967 -8.94965
590 1 4.71701 11.007 17.2971 -8.94936
591 1 7.86204 11.007 17.298 -8.95089
592 1 11.007 11.007 17.2984 -8.95224
593 1 14.1519 11.007 17.2968 -8.94922
594 1 17.2967 11.007 17.2967 -8.94961
595 1 20.4415 11.007 17.2966 -8.94964
596 1 22.0138 12.5794 15.7243 -8.94959
597 1 1.57238 14.1518 17.2967 -8.94969
598 1 3.14455 12.5794 15.7245 -8.94957
599 1 4.71698 14.152 17.2971 -8.94981
600 1 6.28873 12.5801 15.7266 -8.95176
601 1 7.86195 14.1522 17.2974 -8.94954
602 1 9.43408 12.5805 15.7267 -8.94833
603 1 11.0071 14.152 17.2971 -8.94955
604 1 12.5802 12.5801 15.7258 -8.94948
605 1 14.152 14.152 17.297 -8.9496
606 1 15.7243 12.5793 15.7243 -8.95006
607 1 17.2967 14.1518 17.2967 -8.94974
608 1 18.8691 12.5794 15.7242 -8.94963
609 1 20.4415 14.1518 17.2966 -8.94964
610 1 22.0138 15.7243 15.7243 -8.94962
611 1 1.57236 17.2967 17.2967 -8.94944
612 1 3.14436 15.7247 15.7247 -8.9485
613 1 4.71721 17.2967 17.2967 -8.94959
614 1 6.28941 15.7247 15.7247 -8.94928
615 1 7.8621 17.2967 17.2967 -8.94966
616 1 9.4346 15.7247 15.7247 -8.94913
617 1 11.007 17.2967 17.2967 -8.94959
618 1 12.5796 15.7246 15.7246 -8.94968
619 1 14.1518 17.2967 17.2967 -8.94963
620 1 15.7245 15.7245 15.7245 -8.94907
621 1 17.2967 17.2967 17.2967 -8.94954
622 1 18.8691 15.7243 15.7243 -8.94961
623 1 20.4415 17.2966 17.2966 -8.94961
624 1 8.32091e-07 18.8691 15.7242 -8.94966
625 1 1.57241 20.4415 17.2966 -8.94962
626 1 3.14479 18.8691 15.7243 -8.94961
627 1 4.71726 20.4415 17.2966 -8.94964
628 1 6.28966 18.8692 15.7243 -8.94967
629 1 7.86211 20.4415 17.2966 -8.94962
630 1 9.43453 18.8692 15.7243 -8.94958
631 1 11.007 20.4415 17.2966 -8.94962
632 1 12.5794 18.8691 15.7243 -8.94968
633 1 14.1518 20.4415 17.2966 -8.94964
634 1 15.7243 18.8691 15.7243 -8.94957
635 1 17.2966 20.4415 17.2966 -8.94962
636 1 18.8691 18.8691 15.7242 -8.94963
637 1 20.4415 20.4415 17.2966 -8.94964
638 1 1.57242 11.007 20.4415 -8.94963
639 1 4.71723 11.007 20.4415 -8.94965
640 1 7.8621 11.007 20.4416 -8.94989
641 1 11.007 11.007 20.4416 -8.95027
642 1 14.1518 11.007 20.4414 -8.94962
643 1 17.2966 11.007 20.4415 -8.94964
644 1 20.4415 11.007 20.4415 -8.94963
645 1 22.0139 12.5794 18.8691 -8.94964
646 1 1.57242 14.1518 20.4415 -8.94963
647 1 3.1448 12.5794 18.8691 -8.94959
648 1 4.71723 14.1518 20.4415 -8.94972
649 1 6.28959 12.5794 18.8694 -8.95004
650 1 7.86208 14.1519 20.4416 -8.9497
651 1 9.4345 12.5795 18.8696 -8.94981
652 1 11.007 14.1518 20.4415 -8.94963
653 1 12.5795 12.5795 18.8693 -8.94982
654 1 14.1518 14.1518 20.4415 -8.94973
655 1 15.7242 12.5794 18.8691 -8.94963
656 1 17.2966 14.1518 20.4415 -8.94964
657 1 18.8691 12.5794 18.8691 -8.94963
658 1 20.4415 14.1518 20.4415 -8.94963
659 1 22.0139 15.7242 18.8691 -8.94965
660 1 1.57241 17.2966 20.4415 -8.94962
661 1 3.14479 15.7243 18.8691 -8.94962
662 1 4.71725 17.2967 20.4415 -8.94962
663 1 6.28963 15.7243 18.8692 -8.94956
664 1 7.86211 17.2966 20.4415 -8.94963
665 1 9.43455 15.7243 18.8692 -8.9496
666 1 11.007 17.2967 20.4415 -8.94963
667 1 12.5794 15.7243 18.8692 -8.94961
668 1 14.1518 17.2966 20.4415 -8.94963
669 1 15.7243 15.7243 18.8691 -8.94961
670 1 17.2966 17.2966 20.4415 -8.94961
671 1 18.8691 15.7242 18.8691 -8.94965
672 1 20.4415 17.2966 20.4415 -8.94964
673 1 22.0139 18.8691 18.8691 -8.94961
674 1 1.57242 20.4415 20.4415 -8.94963
675 1 3.14484 18.8691 18.8691 -8.94963
351 1 22.0139 12.5794 22.0139 -8.94964
355 1 6.28965 12.5794 22.0138 -8.94983
357 1 9.43447 12.5795 22.0138 -8.94959
359 1 12.5794 12.5794 22.0136 -8.95008
367 1 3.14482 15.7242 22.0139 -8.94963
369 1 6.28966 15.7242 22.0139 -8.94963
371 1 9.43453 15.7243 22.0139 -8.94962
375 1 15.7243 15.7243 22.0138 -8.94962
379 1 22.0139 18.8691 22.0139 -8.94962
383 1 6.28969 18.8691 22.0139 -8.94963
385 1 9.43453 18.8691 22.0139 -8.94964
387 1 12.5794 18.8691 22.0139 -8.94963
353 1 3.14483 12.5794 22.0139 -8.94962
538 1 17.2966 20.4415 11.007 -8.94962
361 1 15.7243 12.5794 22.0138 -8.94959
363 1 18.8691 12.5794 22.0139 -8.94964
532 1 20.4415 17.2967 11.007 -8.94963
531 1 17.2967 17.2967 11.007 -8.94959
365 1 22.0139 15.7242 22.0139 -8.94964
377 1 18.8691 15.7242 22.0139 -8.94965
381 1 3.14484 18.8691 22.0139 -8.94963
