ITEM: TIMESTEP
61
ITEM: NUMBER OF ATOMS
688
ITEM: BOX BOUNDS pp pp pp
0.0000000000000000e+00 2.2013900999999997e+01
0.0000000000000000e+00 2.2013900999999997e+01
0.0000000000000000e+00 2.2013900999999997e+01
ITEM: ATOMS id type x y z c_pot
175 1 18.8706 9.43394 9.43399 -8.94976
2 1 1.57229 1.57219 1.57229 -8.94951
174 1 15.7287 9.43313 9.43248 -8.94785
4 1 4.71711 1.5722 1.57229 -8.94966
191 1 4.71455 7.86145 11.0072 -8.95061
6 1 7.86204 1.5722 1.57225 -8.9496
7 1 9.43452 6.47809e-17 -7.78665e-05 -8.9496
8 1 11.007 1.57217 1.57214 -8.9496
173 1 12.5864 9.43248 9.42834 -9.03215
10 1 14.152 1.57211 1.57204 -8.94964
11 1 15.7244 2.95729e-15 -0.000220426 -8.94962
12 1 17.297 1.57207 1.57204 -8.94956
172 1 9.41607 9.35695 9.41607 -9.3718
14 1 20.4416 1.57216 1.57226 -8.94956
171 1 6.28899 9.43314 9.43127 -9.03945
16 1 1.57225 4.71672 1.57225 -8.94953
190 1 1.57089 7.86128 11.0072 -8.94924
18 1 4.71693 4.71666 1.5722 -8.94961
170 1 3.14217 9.43323 9.43401 -8.94651
20 1 7.86199 4.71666 1.57215 -8.94958
169 1 22.0132 9.43397 9.43431 -8.9496
22 1 11.0071 4.71659 1.57185 -8.94957
168 1 18.8697 6.28892 9.43433 -8.94949
24 1 14.1523 4.71639 1.57157 -8.94979
25 1 15.7245 3.1443 -0.00037299 -8.94966
26 1 17.2975 4.71626 1.57153 -8.94909
167 1 15.7256 6.28862 9.4341 -8.94908
28 1 20.4418 4.71665 1.57204 -8.94953
184 1 4.71626 4.71641 11.0073 -8.9496
30 1 1.57224 7.86171 1.57224 -8.94963
166 1 12.58 6.28876 9.43399 -8.95077
32 1 4.71671 7.86156 1.57208 -8.94978
165 1 9.43434 6.27329 9.43434 -8.97219
34 1 7.86169 7.8613 1.5716 -8.94952
164 1 6.28947 6.28865 9.43525 -8.95115
36 1 11.0072 7.86128 1.57089 -8.94924
37 1 12.5797 6.28893 -0.000698963 -8.94952
38 1 14.1535 7.86068 1.56977 -8.94982
163 1 3.14398 6.28876 9.43456 -8.94922
40 1 17.2979 7.86134 1.57111 -8.94955
180 1 14.1522 1.57216 11.007 -8.94958
42 1 20.442 7.86167 1.5719 -8.94958
162 1 22.0137 6.28897 9.43444 -8.9495
177 1 4.7168 1.57209 11.0071 -8.94955
161 1 18.8693 3.1444 9.43448 -8.9496
160 1 15.7248 3.14429 9.43444 -8.94958
159 1 12.5799 3.14412 9.43445 -8.9493
158 1 9.43455 3.14161 9.43455 -8.95454
157 1 6.28921 3.14401 9.43471 -8.94924
50 1 22.0139 -3.85452e-16 3.14471 -8.94962
51 1 1.57229 1.5722 4.71711 -8.94966
52 1 3.14458 1.75458e-15 3.14458 -8.9495
53 1 4.71683 1.57203 4.71683 -8.9495
54 1 6.28956 4.32012e-16 3.1446 -8.94963
55 1 7.86203 1.57214 4.71691 -8.94956
56 1 9.43454 1.06769e-15 3.14455 -8.94961
57 1 11.0071 1.57209 4.7168 -8.94955
58 1 12.5796 2.69024e-15 3.14444 -8.94962
59 1 14.1524 1.57188 4.71668 -8.94971
60 1 15.7246 1.05694e-15 3.14441 -8.94965
61 1 17.2971 1.57207 4.71697 -8.94967
62 1 18.8693 7.4465e-16 3.14463 -8.94962
63 1 20.4417 1.57217 4.71711 -8.94961
64 1 22.0139 3.1444 3.14462 -8.94958
65 1 1.5722 4.71666 4.71693 -8.94961
66 1 3.14452 3.14433 3.14452 -8.94942
67 1 4.7165 4.71619 4.7165 -8.94899
68 1 6.28952 3.14439 3.14452 -8.94979
69 1 7.86211 4.71658 4.7167 -8.95023
70 1 9.43455 3.14433 3.14443 -8.94959
71 1 11.0073 4.71641 4.71626 -8.9496
72 1 12.5797 3.14421 3.14419 -8.94964
73 1 14.1531 4.71543 4.71581 -8.94998
74 1 15.7249 3.14392 3.14409 -8.94962
75 1 17.2977 4.71622 4.71647 -8.94956
76 1 18.8695 3.14426 3.14445 -8.94958
77 1 20.4419 4.71661 4.71685 -8.94955
78 1 22.0141 6.28911 3.14441 -8.94966
79 1 1.57208 7.86156 4.71671 -8.94978
80 1 3.14432 6.28894 3.14432 -8.94936
81 1 4.71585 7.86087 4.71585 -8.94856
82 1 6.28917 6.28885 3.14401 -8.94976
83 1 7.86139 7.86096 4.7152 -8.95095
84 1 9.43456 6.28876 3.14398 -8.94922
85 1 11.0072 7.86145 4.71455 -8.95061
86 1 12.58 6.28858 3.14323 -8.9501
87 1 14.1574 7.85742 4.71114 -8.94341
88 1 15.7264 6.28762 3.14251 -8.94788
89 1 17.2993 7.86073 4.7153 -8.94989
90 1 18.8702 6.28876 3.1439 -8.94957
91 1 20.4423 7.86152 4.71654 -8.94985
92 1 22.0142 9.43429 3.14434 -8.94962
93 1 3.14433 9.43424 3.14433 -8.94958
94 1 6.2889 9.43411 3.14342 -8.95051
95 1 9.43401 9.43323 3.14217 -8.94651
96 1 12.5823 9.43271 3.13865 -8.9516
97 1 15.7268 9.43366 3.14196 -8.94931
98 1 18.8704 9.43415 3.14366 -8.94953
99 1 22.0139 1.79365e-15 6.2896 -8.9496
100 1 1.57225 1.5722 7.86204 -8.9496
101 1 3.1446 8.36807e-17 6.28956 -8.94963
102 1 4.71691 1.57214 7.86203 -8.94956
103 1 6.28925 4.12779e-16 6.28925 -8.94975
104 1 7.8617 1.57156 7.8617 -8.95005
105 1 9.43459 3.59753e-15 6.28931 -8.94949
106 1 11.0074 1.57166 7.86169 -8.94972
107 1 12.5799 1.46151e-15 6.28922 -8.94978
108 1 14.1523 1.57208 7.86194 -8.94966
109 1 15.7246 -1.66884e-16 6.28948 -8.9497
110 1 17.297 1.57214 7.86201 -8.94961
111 1 18.8693 6.13708e-16 6.28957 -8.94962
112 1 20.4416 1.5722 7.86204 -8.94961
113 1 22.0139 3.14443 6.28953 -8.94961
114 1 1.57215 4.71666 7.86199 -8.94958
115 1 3.14452 3.14439 6.28952 -8.94979
116 1 4.7167 4.71658 7.86211 -8.95023
117 1 6.28889 3.14363 6.28889 -8.94934
118 1 7.86045 4.71398 7.86045 -8.94812
119 1 9.43471 3.14401 6.28921 -8.94924
120 1 11.0087 4.71476 7.86042 -8.94664
121 1 12.5803 3.14356 6.28877 -8.94968
122 1 14.1529 4.71621 7.86161 -8.95026
123 1 15.725 3.14408 6.28927 -8.94976
124 1 17.2975 4.71646 7.86177 -8.94961
125 1 18.8695 3.14432 6.28945 -8.94962
126 1 20.4417 4.71665 7.86192 -8.94956
127 1 22.014 6.28901 6.28927 -8.9496
128 1 1.5716 7.8613 7.86169 -8.94952
129 1 3.14401 6.28885 6.28917 -8.94976
130 1 4.7152 7.86096 7.86139 -8.95095
131 1 6.28766 6.2873 6.28766 -8.94721
132 1 7.85578 7.85693 7.85578 -9.0096
133 1 9.43525 6.28865 6.28947 -8.95115
134 1 11.0135 7.86134 7.85733 -9.03335
135 1 12.5819 6.28661 6.28699 -8.95178
136 1 14.1564 7.85981 7.85949 -8.9483
137 1 15.7264 6.28807 6.28819 -8.94924
138 1 17.299 7.86092 7.86094 -8.94942
139 1 18.8702 6.28876 6.28898 -8.94947
140 1 20.4421 7.86139 7.86162 -8.94968
141 1 22.0141 9.43423 6.28919 -8.94996
142 1 3.14342 9.43411 6.2889 -8.95051
143 1 6.28538 9.43265 6.28538 -8.947
144 1 9.43127 9.43314 6.28899 -9.03945
145 1 12.5953 9.42348 6.27226 -8.97393
146 1 15.7299 9.43296 6.28587 -8.95208
147 1 18.8711 9.43405 6.28856 -8.95026
148 1 -7.78665e-05 1.60958e-15 9.43452 -8.9496
149 1 3.14455 5.33379e-16 9.43454 -8.94961
150 1 6.28931 2.48911e-15 9.43459 -8.94949
151 1 9.43456 3.19619e-15 9.43456 -8.95098
152 1 12.5798 1.00525e-15 9.43453 -8.94946
153 1 15.7246 -4.64037e-16 9.43452 -8.94964
154 1 18.8692 1.88576e-16 9.43452 -8.9496
155 1 22.0138 3.14442 9.4345 -8.94959
156 1 3.14443 3.14433 9.43455 -8.94959
182 1 20.4415 1.57221 11.007 -8.9496
176 1 1.57214 1.57217 11.007 -8.9496
343 1 18.8692 9.43432 18.8692 -8.94958
178 1 7.86169 1.57166 11.0074 -8.94972
179 1 11.0074 1.57169 11.0074 -8.94976
342 1 15.7247 9.43425 18.869 -8.94961
341 1 12.5798 9.43405 18.8697 -8.95016
47 1 12.5801 9.43398 22.0121 -8.95046
183 1 1.57185 4.71659 11.0071 -8.94957
340 1 9.43399 9.43394 18.8706 -8.94976
185 1 7.86042 4.71476 11.0087 -8.94664
186 1 11.0084 4.71479 11.0084 -8.94709
187 1 14.1525 4.71659 11.0068 -8.94986
339 1 6.28856 9.43405 18.8711 -8.95026
338 1 3.14366 9.43415 18.8704 -8.94953
337 1 22.0133 9.43429 18.8697 -8.94957
336 1 20.4415 7.86174 20.4415 -8.94958
192 1 7.85733 7.86134 11.0135 -9.03335
193 1 11.0108 7.8605 11.0108 -9.05667
194 1 14.1543 7.8613 11.0063 -8.95014
195 1 17.298 7.86137 11.0068 -8.94939
196 1 20.4414 7.86144 11.007 -8.94954
197 1 22.0137 1.53513e-15 12.5795 -8.9496
198 1 1.57204 1.57211 14.152 -8.94964
199 1 3.14444 6.8704e-16 12.5796 -8.94962
200 1 4.71668 1.57188 14.1524 -8.94971
201 1 6.28922 8.15513e-16 12.5799 -8.94978
202 1 7.86194 1.57208 14.1523 -8.94966
203 1 9.43453 4.52312e-16 12.5798 -8.94946
204 1 11.007 1.57216 14.1522 -8.94958
205 1 12.5798 -6.05342e-16 12.5798 -8.94973
206 1 14.1522 1.57203 14.1522 -8.94961
207 1 15.7245 8.40275e-16 12.5795 -8.94964
208 1 17.2968 1.57219 14.1519 -8.94966
209 1 18.8691 -5.48539e-16 12.5794 -8.94961
210 1 20.4414 1.57219 14.1519 -8.94961
211 1 22.0136 3.14439 12.5795 -8.9496
212 1 1.57157 4.71639 14.1523 -8.94979
213 1 3.14419 3.14421 12.5797 -8.94964
214 1 4.71581 4.71543 14.1531 -8.94998
215 1 6.28877 3.14356 12.5803 -8.94968
216 1 7.86161 4.71621 14.1529 -8.95026
217 1 9.43445 3.14412 12.5799 -8.9493
218 1 11.0068 4.71659 14.1525 -8.94986
219 1 12.5801 3.14378 12.5801 -8.94958
220 1 14.1525 4.71603 14.1525 -8.94966
221 1 15.7246 3.14438 12.5795 -8.94971
222 1 17.297 4.71662 14.152 -8.94975
223 1 18.8692 3.14444 12.5795 -8.9496
224 1 20.4413 4.71666 14.152 -8.9496
225 1 -0.000698963 6.28893 12.5797 -8.94952
226 1 1.56977 7.86068 14.1535 -8.94982
227 1 3.14323 6.28858 12.58 -8.9501
228 1 4.71114 7.85742 14.1574 -8.94341
229 1 6.28699 6.28661 12.5819 -8.95178
230 1 7.85949 7.85981 14.1564 -8.9483
231 1 9.43399 6.28876 12.58 -8.95077
232 1 11.0063 7.8613 14.1543 -8.95014
233 1 12.5808 6.28722 12.5808 -8.95112
234 1 14.1547 7.85921 14.1547 -8.9454
235 1 15.7251 6.28883 12.5796 -8.94998
236 1 17.2977 7.86113 14.1526 -8.94967
237 1 18.8693 6.28902 12.5795 -8.94955
238 1 20.441 7.8614 14.1524 -8.94992
239 1 22.0121 9.43398 12.5801 -8.95046
240 1 3.13865 9.43271 12.5823 -8.9516
241 1 6.27226 9.42348 12.5953 -8.97393
242 1 9.42834 9.43248 12.5864 -9.03215
243 1 12.5878 9.42554 12.5878 -9.00814
244 1 15.7277 9.43311 12.5807 -8.94983
245 1 18.8697 9.43405 12.5798 -8.95016
246 1 -0.000220426 -5.38539e-16 15.7244 -8.94962
247 1 1.57204 1.57207 17.297 -8.94956
248 1 3.14441 1.86174e-15 15.7246 -8.94965
249 1 4.71697 1.57207 17.2971 -8.94967
250 1 6.28948 -4.28542e-16 15.7246 -8.9497
251 1 7.86201 1.57214 17.297 -8.94961
252 1 9.43452 1.88391e-16 15.7246 -8.94964
253 1 11.007 1.5722 17.2969 -8.9496
254 1 12.5795 -7.62338e-18 15.7245 -8.94964
255 1 14.1519 1.57219 17.2968 -8.94966
256 1 15.7245 5.52425e-16 15.7245 -8.94958
257 1 17.2968 1.57216 17.2968 -8.94957
258 1 18.8691 1.04608e-16 15.7243 -8.94963
259 1 20.4414 1.57216 17.2968 -8.94961
260 1 -0.00037299 3.1443 15.7245 -8.94966
261 1 1.57153 4.71626 17.2975 -8.94909
262 1 3.14409 3.14392 15.7249 -8.94962
263 1 4.71647 4.71622 17.2977 -8.94956
264 1 6.28927 3.14408 15.725 -8.94976
265 1 7.86177 4.71646 17.2975 -8.94961
266 1 9.43444 3.14429 15.7248 -8.94958
267 1 11.0069 4.71665 17.2971 -8.94953
268 1 12.5795 3.14438 15.7246 -8.94971
269 1 14.152 4.71662 17.297 -8.94975
270 1 15.7246 3.14424 15.7246 -8.94955
271 1 17.297 4.71655 17.297 -8.94932
272 1 18.8691 3.14439 15.7244 -8.94965
273 1 20.4412 4.71659 17.2971 -8.94949
274 1 22.0129 6.28872 15.7251 -8.94956
275 1 1.57111 7.86134 17.2979 -8.94955
276 1 3.14251 6.28762 15.7264 -8.94788
277 1 4.7153 7.86073 17.2993 -8.94989
278 1 6.28819 6.28807 15.7264 -8.94924
279 1 7.86094 7.86092 17.299 -8.94942
280 1 9.4341 6.28862 15.7256 -8.94908
281 1 11.0068 7.86137 17.298 -8.94939
282 1 12.5796 6.28883 15.7251 -8.94998
283 1 14.1526 7.86113 17.2977 -8.94967
284 1 15.7252 6.28846 15.7252 -8.94854
285 1 17.297 7.86162 17.297 -8.94976
286 1 18.8692 6.28893 15.7247 -8.94958
287 1 20.4411 7.86164 17.2972 -8.94959
288 1 22.0126 9.43413 15.7253 -8.94954
289 1 3.14196 9.43366 15.7268 -8.94931
290 1 6.28587 9.43296 15.7299 -8.95208
291 1 9.43248 9.43313 15.7287 -8.94785
292 1 12.5807 9.43311 15.7277 -8.94983
293 1 15.725 9.43418 15.725 -8.94999
294 1 18.869 9.43425 15.7247 -8.94961
295 1 22.0137 2.15842e-15 18.8692 -8.94952
296 1 1.57226 1.57216 20.4416 -8.94956
297 1 3.14463 -4.44172e-16 18.8693 -8.94962
298 1 4.71711 1.57217 20.4417 -8.94961
299 1 6.28957 2.60367e-16 18.8693 -8.94962
300 1 7.86204 1.5722 20.4416 -8.94961
301 1 9.43452 1.02232e-15 18.8692 -8.9496
302 1 11.007 1.57221 20.4415 -8.9496
303 1 12.5794 6.09602e-17 18.8691 -8.94961
304 1 14.1519 1.57219 20.4414 -8.94961
305 1 15.7243 2.05495e-15 18.8691 -8.94963
306 1 17.2968 1.57216 20.4414 -8.94961
307 1 18.8691 9.12571e-16 18.8691 -8.94956
308 1 20.4415 1.57217 20.4415 -8.94943
309 1 22.0136 3.14432 18.8694 -8.9494
310 1 1.57204 4.71665 20.4418 -8.94953
311 1 3.14445 3.14426 18.8695 -8.94958
312 1 4.71685 4.71661 20.4419 -8.94955
313 1 6.28945 3.14432 18.8695 -8.94962
314 1 7.86192 4.71665 20.4417 -8.94956
315 1 9.43448 3.1444 18.8693 -8.9496
316 1 11.007 4.71668 20.4415 -8.94956
317 1 12.5795 3.14444 18.8692 -8.9496
318 1 14.152 4.71666 20.4413 -8.9496
319 1 15.7244 3.14439 18.8691 -8.94965
320 1 17.2971 4.71659 20.4412 -8.94949
321 1 18.8692 3.14436 18.8692 -8.94945
322 1 20.4415 4.71674 20.4415 -8.94957
323 1 22.0134 6.28909 18.8696 -8.94958
324 1 1.5719 7.86167 20.442 -8.94958
325 1 3.1439 6.28876 18.8702 -8.94957
326 1 4.71654 7.86152 20.4423 -8.94985
327 1 6.28898 6.28876 18.8702 -8.94947
328 1 7.86162 7.86139 20.4421 -8.94968
329 1 9.43433 6.28892 18.8697 -8.94949
330 1 11.007 7.86144 20.4414 -8.94954
331 1 12.5795 6.28902 18.8693 -8.94955
332 1 14.1524 7.8614 20.441 -8.94992
333 1 15.7247 6.28893 18.8692 -8.94958
334 1 17.2972 7.86164 20.4411 -8.94959
335 1 18.8692 6.28916 18.8692 -8.94962
1 1 22.0139 -1.7127e-15 22.0139 -8.94952
3 1 3.14471 -8.15079e-16 22.0139 -8.94962
9 1 12.5795 1.47773e-15 22.0137 -8.9496
13 1 18.8692 1.17301e-15 22.0137 -8.94952
15 1 22.0139 3.1444 22.0139 -8.9495
19 1 6.28953 3.14443 22.0139 -8.94961
21 1 9.4345 3.14442 22.0138 -8.94959
23 1 12.5795 3.14439 22.0136 -8.9496
27 1 18.8694 3.14432 22.0136 -8.9494
31 1 3.14441 6.28911 22.0141 -8.94966
33 1 6.28927 6.28901 22.014 -8.9496
35 1 9.43444 6.28897 22.0137 -8.9495
39 1 15.7251 6.28872 22.0129 -8.94956
43 1 22.0139 9.43434 22.0139 -8.94959
45 1 6.28919 9.43423 22.0141 -8.94996
46 1 9.43431 9.43397 22.0132 -8.9496
5 1 6.2896 1.84045e-15 22.0139 -8.9496
17 1 3.14462 3.1444 22.0139 -8.94958
29 1 22.0139 6.28921 22.0139 -8.94959
189 1 20.4415 4.71668 11.007 -8.94956
188 1 17.2971 4.71665 11.0069 -8.94953
41 1 18.8696 6.28909 22.0134 -8.94958
181 1 17.2969 1.5722 11.007 -8.9496
44 1 3.14434 9.43429 22.0142 -8.94962
48 1 15.7253 9.43413 22.0126 -8.94954
49 1 18.8697 9.43429 22.0133 -8.94957
344 1 1.57225 11.007 1.57225 -8.94961
345 1 4.71671 11.007 1.57208 -8.94957
346 1 7.86196 11.007 1.57141 -8.9501
347 1 11.0073 11.007 1.56865 -8.95313
348 1 14.1535 11.007 1.56938 -8.94954
349 1 17.298 11.007 1.57098 -8.94953
350 1 20.442 11.007 1.57186 -8.94957
688 2 10.323 11.007 9.35914 0.548739
352 1 1.57224 14.1522 1.57224 -8.94963
537 1 14.1522 20.4417 11.007 -8.94958
354 1 4.71671 14.1523 1.57208 -8.94978
687 2 9.35914 11.007 10.323 0.548739
356 1 7.86169 14.1526 1.5716 -8.94952
511 1 18.8693 18.8695 9.43448 -8.9496
358 1 11.0072 14.1526 1.57089 -8.94924
510 1 15.7248 18.8696 9.43444 -8.94958
360 1 14.1535 14.1532 1.56977 -8.94982
534 1 4.7168 20.4418 11.0071 -8.94955
362 1 17.2979 14.1526 1.57111 -8.94955
527 1 4.71626 17.2975 11.0073 -8.9496
364 1 20.442 14.1522 1.5719 -8.94958
520 1 4.71455 14.1524 11.0072 -8.95061
366 1 1.57225 17.2972 1.57225 -8.94953
509 1 12.5799 18.8698 9.43445 -8.9493
368 1 4.71693 17.2972 1.5722 -8.94961
508 1 9.43455 18.8723 9.43455 -8.95454
370 1 7.86199 17.2972 1.57215 -8.94958
507 1 6.28921 18.8699 9.43471 -8.94924
372 1 11.0071 17.2973 1.57185 -8.94957
373 1 12.5797 15.725 -0.000698963 -8.94952
374 1 14.1523 17.2975 1.57157 -8.94979
506 1 3.14443 18.8696 9.43455 -8.94959
376 1 17.2975 17.2976 1.57153 -8.94909
519 1 1.57089 14.1526 11.0072 -8.94924
378 1 20.4418 17.2973 1.57204 -8.94953
505 1 22.0138 18.8695 9.4345 -8.94959
380 1 1.57229 20.4417 1.57229 -8.94951
516 1 14.1659 11.007 11.0063 -9.01502
382 1 4.71711 20.4417 1.57229 -8.94966
504 1 18.8697 15.725 9.43433 -8.94949
384 1 7.86204 20.4417 1.57225 -8.9496
503 1 15.7256 15.7253 9.4341 -8.94908
386 1 11.007 20.4417 1.57214 -8.9496
502 1 12.58 15.7251 9.43399 -8.95077
388 1 14.152 20.4418 1.57204 -8.94964
389 1 15.7245 18.8696 -0.00037299 -8.94966
390 1 17.297 20.4418 1.57204 -8.94956
501 1 9.43434 15.7406 9.43434 -8.97219
392 1 20.4416 20.4417 1.57226 -8.94956
393 1 1.57208 11.007 4.71671 -8.94957
394 1 4.71594 11.007 4.71594 -8.94816
395 1 7.86193 11.007 4.71375 -8.95355
396 1 11.0091 11.007 4.70218 -8.97426
397 1 14.1569 11.007 4.71076 -8.9472
398 1 17.2995 11.007 4.71503 -8.94933
399 1 20.4425 11.007 4.71644 -8.94974
400 1 22.0142 12.5796 3.14434 -8.94962
401 1 1.57208 14.1523 4.71671 -8.94978
402 1 3.14433 12.5797 3.14433 -8.94958
403 1 4.71585 14.153 4.71585 -8.94856
404 1 6.2889 12.5798 3.14342 -8.95051
405 1 7.86139 14.1529 4.7152 -8.95095
406 1 9.43401 12.5807 3.14217 -8.94651
407 1 11.0072 14.1524 4.71455 -8.95061
408 1 12.5823 12.5812 3.13865 -8.9516
409 1 14.1574 14.1565 4.71114 -8.94341
410 1 15.7268 12.5802 3.14196 -8.94931
411 1 17.2993 14.1532 4.7153 -8.94989
412 1 18.8704 12.5798 3.14366 -8.94953
413 1 20.4423 14.1524 4.71654 -8.94985
414 1 22.0141 15.7248 3.14441 -8.94966
415 1 1.5722 17.2972 4.71693 -8.94961
416 1 3.14432 15.725 3.14432 -8.94936
417 1 4.7165 17.2977 4.7165 -8.94899
418 1 6.28917 15.7251 3.14401 -8.94976
419 1 7.86211 17.2973 4.7167 -8.95023
420 1 9.43456 15.7251 3.14398 -8.94922
421 1 11.0073 17.2975 4.71626 -8.9496
422 1 12.58 15.7253 3.14323 -8.9501
423 1 14.1531 17.2985 4.71581 -8.94998
424 1 15.7264 15.7263 3.14251 -8.94788
425 1 17.2977 17.2977 4.71647 -8.94956
426 1 18.8702 15.7251 3.1439 -8.94957
427 1 20.4419 17.2973 4.71685 -8.94955
428 1 22.0139 18.8695 3.14462 -8.94958
429 1 1.57229 20.4417 4.71711 -8.94966
430 1 3.14452 18.8696 3.14452 -8.94942
431 1 4.71683 20.4419 4.71683 -8.9495
432 1 6.28952 18.8695 3.14452 -8.94979
433 1 7.86203 20.4418 4.71691 -8.94956
434 1 9.43455 18.8696 3.14443 -8.94959
435 1 11.0071 20.4418 4.7168 -8.94955
436 1 12.5797 18.8697 3.14419 -8.94964
437 1 14.1524 20.442 4.71668 -8.94971
438 1 15.7249 18.87 3.14409 -8.94962
439 1 17.2971 20.4418 4.71697 -8.94967
440 1 18.8695 18.8696 3.14445 -8.94958
441 1 20.4417 20.4417 4.71711 -8.94961
442 1 1.57141 11.007 7.86196 -8.9501
443 1 4.71375 11.007 7.86193 -8.95355
444 1 7.84832 11.007 7.84832 -9.01256
445 1 11.0457 11.007 7.77348 -9.26555
446 1 14.1622 11.007 7.85573 -9.00915
447 1 17.3003 11.007 7.86068 -8.95097
448 1 20.4424 11.007 7.86162 -8.94994
449 1 22.0141 12.5797 6.28919 -8.94996
450 1 1.5716 14.1526 7.86169 -8.94952
451 1 3.14342 12.5798 6.2889 -8.95051
452 1 4.7152 14.1529 7.86139 -8.95095
453 1 6.28538 12.5813 6.28538 -8.947
454 1 7.85578 14.157 7.85578 -9.0096
455 1 9.43127 12.5808 6.28899 -9.03945
456 1 11.0135 14.1526 7.85733 -9.03335
457 1 12.5953 12.5904 6.27226 -8.97393
458 1 14.1564 14.1541 7.85949 -8.9483
459 1 15.7299 12.5809 6.28587 -8.95208
460 1 17.299 14.153 7.86094 -8.94942
461 1 18.8711 12.5799 6.28856 -8.95026
462 1 20.4421 14.1525 7.86162 -8.94968
463 1 22.014 15.7249 6.28927 -8.9496
464 1 1.57215 17.2972 7.86199 -8.94958
465 1 3.14401 15.7251 6.28917 -8.94976
466 1 4.7167 17.2973 7.86211 -8.95023
467 1 6.28766 15.7266 6.28766 -8.94721
468 1 7.86045 17.2999 7.86045 -8.94812
469 1 9.43525 15.7253 6.28947 -8.95115
470 1 11.0087 17.2991 7.86042 -8.94664
471 1 12.5819 15.7273 6.28699 -8.95178
472 1 14.1529 17.2977 7.86161 -8.95026
473 1 15.7264 15.7258 6.28819 -8.94924
474 1 17.2975 17.2974 7.86177 -8.94961
475 1 18.8702 15.7251 6.28898 -8.94947
476 1 20.4417 17.2973 7.86192 -8.94956
477 1 22.0139 18.8695 6.28953 -8.94961
478 1 1.57225 20.4417 7.86204 -8.9496
479 1 3.14452 18.8695 6.28952 -8.94979
480 1 4.71691 20.4418 7.86203 -8.94956
481 1 6.28889 18.8703 6.28889 -8.94934
482 1 7.8617 20.4423 7.8617 -8.95005
483 1 9.43471 18.8699 6.28921 -8.94924
484 1 11.0074 20.4422 7.86169 -8.94972
485 1 12.5803 18.8703 6.28877 -8.94968
486 1 14.1523 20.4418 7.86194 -8.94966
487 1 15.725 18.8698 6.28927 -8.94976
488 1 17.297 20.4418 7.86201 -8.94961
489 1 18.8695 18.8696 6.28945 -8.94962
490 1 20.4416 20.4417 7.86204 -8.94961
491 1 22.0132 12.5799 9.43431 -8.9496
492 1 3.14217 12.5807 9.43401 -8.94651
493 1 6.28899 12.5808 9.43127 -9.03945
494 1 9.41607 12.657 9.41607 -9.3718
495 1 12.5864 12.5814 9.42834 -9.03215
496 1 15.7287 12.5808 9.43248 -8.94785
497 1 18.8706 12.58 9.43399 -8.94976
498 1 22.0137 15.7249 9.43444 -8.9495
499 1 3.14398 15.7251 9.43456 -8.94922
500 1 6.28947 15.7253 9.43525 -8.95115
512 1 1.56865 11.007 11.0073 -8.95313
513 1 4.70218 11.007 11.0091 -8.97426
539 1 20.4415 20.4417 11.007 -8.9496
686 1 20.4415 20.4417 20.4415 -8.94943
685 1 18.8692 18.8695 18.8692 -8.94945
514 1 7.77348 11.007 11.0457 -9.26555
515 1 11.0748 11.007 11.0748 -9.3275
684 1 17.2968 20.4417 20.4414 -8.94961
517 1 17.3001 11.007 11.0066 -8.95301
518 1 20.4414 11.007 11.007 -8.95067
683 1 15.7244 18.8695 18.8691 -8.94965
682 1 14.1519 20.4417 20.4414 -8.94961
521 1 7.85733 14.1526 11.0135 -9.03335
522 1 11.0108 14.1534 11.0108 -9.05667
523 1 14.1543 14.1526 11.0063 -8.95014
524 1 17.298 14.1525 11.0068 -8.94939
525 1 20.4414 14.1525 11.007 -8.94954
526 1 1.57185 17.2973 11.0071 -8.94957
681 1 12.5795 18.8695 18.8692 -8.9496
528 1 7.86042 17.2991 11.0087 -8.94664
529 1 11.0084 17.2991 11.0084 -8.94709
530 1 14.1525 17.2973 11.0068 -8.94986
680 1 11.007 20.4417 20.4415 -8.9496
679 1 9.43448 18.8695 18.8693 -8.9496
533 1 1.57214 20.4417 11.007 -8.9496
678 1 7.86204 20.4417 20.4416 -8.94961
535 1 7.86169 20.4422 11.0074 -8.94972
536 1 11.0074 20.4422 11.0074 -8.94976
677 1 6.28945 18.8696 18.8695 -8.94962
676 1 4.71711 20.4417 20.4417 -8.94961
391 1 18.8694 18.8696 22.0136 -8.9494
540 1 1.56938 11.007 14.1535 -8.94954
541 1 4.71076 11.007 14.1569 -8.9472
542 1 7.85573 11.007 14.1622 -9.00915
543 1 11.0063 11.007 14.1659 -9.01502
544 1 14.1533 11.007 14.1533 -8.94971
545 1 17.2975 11.007 14.1524 -8.94917
546 1 20.4408 11.007 14.1525 -8.94974
547 1 22.0121 12.5799 12.5801 -8.95046
548 1 1.56977 14.1532 14.1535 -8.94982
549 1 3.13865 12.5812 12.5823 -8.9516
550 1 4.71114 14.1565 14.1574 -8.94341
551 1 6.27226 12.5904 12.5953 -8.97393
552 1 7.85949 14.1541 14.1564 -8.9483
553 1 9.42834 12.5814 12.5864 -9.03215
554 1 11.0063 14.1526 14.1543 -8.95014
555 1 12.5878 12.5884 12.5878 -9.00814
556 1 14.1547 14.1547 14.1547 -8.9454
557 1 15.7277 12.5808 12.5807 -8.94983
558 1 17.2977 14.1528 14.1526 -8.94967
559 1 18.8697 12.5799 12.5798 -8.95016
560 1 20.441 14.1525 14.1524 -8.94992
561 1 -0.000698963 15.725 12.5797 -8.94952
562 1 1.57157 17.2975 14.1523 -8.94979
563 1 3.14323 15.7253 12.58 -8.9501
564 1 4.71581 17.2985 14.1531 -8.94998
565 1 6.28699 15.7273 12.5819 -8.95178
566 1 7.86161 17.2977 14.1529 -8.95026
567 1 9.43399 15.7251 12.58 -8.95077
568 1 11.0068 17.2973 14.1525 -8.94986
569 1 12.5808 15.7267 12.5808 -8.95112
570 1 14.1525 17.2979 14.1525 -8.94966
571 1 15.7251 15.7251 12.5796 -8.94998
572 1 17.297 17.2973 14.152 -8.94975
573 1 18.8693 15.7249 12.5795 -8.94955
574 1 20.4413 17.2972 14.152 -8.9496
575 1 22.0136 18.8695 12.5795 -8.9496
576 1 1.57204 20.4418 14.152 -8.94964
577 1 3.14419 18.8697 12.5797 -8.94964
578 1 4.71668 20.442 14.1524 -8.94971
579 1 6.28877 18.8703 12.5803 -8.94968
580 1 7.86194 20.4418 14.1523 -8.94966
581 1 9.43445 18.8698 12.5799 -8.9493
582 1 11.007 20.4417 14.1522 -8.94958
583 1 12.5801 18.8701 12.5801 -8.94958
584 1 14.1522 20.4419 14.1522 -8.94961
585 1 15.7246 18.8695 12.5795 -8.94971
586 1 17.2968 20.4417 14.1519 -8.94966
587 1 18.8692 18.8695 12.5795 -8.9496
588 1 20.4414 20.4417 14.1519 -8.94961
589 1 1.57098 11.007 17.298 -8.94953
590 1 4.71503 11.007 17.2995 -8.94933
591 1 7.86068 11.007 17.3003 -8.95097
592 1 11.0066 11.007 17.3001 -8.95301
593 1 14.1524 11.007 17.2975 -8.94917
594 1 17.2969 11.007 17.2969 -8.94956
595 1 20.441 11.007 17.2972 -8.94957
596 1 22.0126 12.5798 15.7253 -8.94954
597 1 1.57111 14.1526 17.2979 -8.94955
598 1 3.14196 12.5802 15.7268 -8.94931
599 1 4.7153 14.1532 17.2993 -8.94989
600 1 6.28587 12.5809 15.7299 -8.95208
601 1 7.86094 14.153 17.299 -8.94942
602 1 9.43248 12.5808 15.7287 -8.94785
603 1 11.0068 14.1525 17.298 -8.94939
604 1 12.5807 12.5808 15.7277 -8.94983
605 1 14.1526 14.1528 17.2977 -8.94967
606 1 15.725 12.5797 15.725 -8.94999
607 1 17.297 14.1523 17.297 -8.94976
608 1 18.869 12.5797 15.7247 -8.94961
609 1 20.4411 14.1523 17.2972 -8.94959
610 1 22.0129 15.7252 15.7251 -8.94956
611 1 1.57153 17.2976 17.2975 -8.94909
612 1 3.14251 15.7263 15.7264 -8.94788
613 1 4.71647 17.2977 17.2977 -8.94956
614 1 6.28819 15.7258 15.7264 -8.94924
615 1 7.86177 17.2974 17.2975 -8.94961
616 1 9.4341 15.7253 15.7256 -8.94908
617 1 11.0069 17.2972 17.2971 -8.94953
618 1 12.5796 15.7251 15.7251 -8.94998
619 1 14.152 17.2973 17.297 -8.94975
620 1 15.7252 15.7254 15.7252 -8.94854
621 1 17.297 17.2973 17.297 -8.94932
622 1 18.8692 15.725 15.7247 -8.94958
623 1 20.4412 17.2973 17.2971 -8.94949
624 1 -0.00037299 18.8696 15.7245 -8.94966
625 1 1.57204 20.4418 17.297 -8.94956
626 1 3.14409 18.87 15.7249 -8.94962
627 1 4.71697 20.4418 17.2971 -8.94967
628 1 6.28927 18.8698 15.725 -8.94976
629 1 7.86201 20.4418 17.297 -8.94961
630 1 9.43444 18.8696 15.7248 -8.94958
631 1 11.007 20.4417 17.2969 -8.9496
632 1 12.5795 18.8695 15.7246 -8.94971
633 1 14.1519 20.4417 17.2968 -8.94966
634 1 15.7246 18.8697 15.7246 -8.94955
635 1 17.2968 20.4417 17.2968 -8.94957
636 1 18.8691 18.8695 15.7244 -8.94965
637 1 20.4414 20.4417 17.2968 -8.94961
638 1 1.57186 11.007 20.442 -8.94957
639 1 4.71644 11.007 20.4425 -8.94974
640 1 7.86162 11.007 20.4424 -8.94994
641 1 11.007 11.007 20.4414 -8.95067
642 1 14.1525 11.007 20.4408 -8.94974
643 1 17.2972 11.007 20.441 -8.94957
644 1 20.4415 11.007 20.4415 -8.94958
645 1 22.0133 12.5796 18.8697 -8.94957
646 1 1.5719 14.1522 20.442 -8.94958
647 1 3.14366 12.5798 18.8704 -8.94953
648 1 4.71654 14.1524 20.4423 -8.94985
649 1 6.28856 12.5799 18.8711 -8.95026
650 1 7.86162 14.1525 20.4421 -8.94968
651 1 9.43399 12.58 18.8706 -8.94976
652 1 11.007 14.1525 20.4414 -8.94954
653 1 12.5798 12.5799 18.8697 -8.95016
654 1 14.1524 14.1525 20.441 -8.94992
655 1 15.7247 12.5797 18.869 -8.94961
656 1 17.2972 14.1523 20.4411 -8.94959
657 1 18.8692 12.5796 18.8692 -8.94958
658 1 20.4415 14.1522 20.4415 -8.94958
659 1 22.0134 15.7248 18.8696 -8.94958
660 1 1.57204 17.2973 20.4418 -8.94953
661 1 3.1439 15.7251 18.8702 -8.94957
662 1 4.71685 17.2973 20.4419 -8.94955
663 1 6.28898 15.7251 18.8702 -8.94947
664 1 7.86192 17.2973 20.4417 -8.94956
665 1 9.43433 15.725 18.8697 -8.94949
666 1 11.007 17.2972 20.4415 -8.94956
667 1 12.5795 15.7249 18.8693 -8.94955
668 1 14.152 17.2972 20.4413 -8.9496
669 1 15.7247 15.725 18.8692 -8.94958
670 1 17.2971 17.2973 20.4412 -8.94949
671 1 18.8692 15.7247 18.8692 -8.94962
672 1 20.4415 17.2972 20.4415 -8.94957
673 1 22.0136 18.8696 18.8694 -8.9494
674 1 1.57226 20.4417 20.4416 -8.94956
675 1 3.14445 18.8696 18.8695 -8.94958
351 1 22.0139 12.5796 22.0139 -8.94959
355 1 6.28919 12.5797 22.0141 -8.94996
357 1 9.43431 12.5799 22.0132 -8.9496
359 1 12.5801 12.5799 22.0121 -8.95046
367 1 3.14441 15.7248 22.0141 -8.94966
369 1 6.28927 15.7249 22.014 -8.9496
371 1 9.43444 15.7249 22.0137 -8.9495
375 1 15.7251 15.7252 22.0129 -8.94956
379 1 22.0139 18.8695 22.0139 -8.9495
383 1 6.28953 18.8695 22.0139 -8.94961
385 1 9.4345 18.8695 22.0138 -8.94959
387 1 12.5795 18.8695 22.0136 -8.9496
353 1 3.14434 12.5796 22.0142 -8.94962
538 1 17.2969 20.4417 11.007 -8.9496
361 1 15.7253 12.5798 22.0126 -8.94954
363 1 18.8697 12.5796 22.0133 -8.94957
532 1 20.4415 17.2972 11.007 -8.94956
531 1 17.2971 17.2972 11.0069 -8.94953
365 1 22.0139 15.7247 22.0139 -8.94959
377 1 18.8696 15.7248 22.0134 -8.94958
381 1 3.14462 18.8695 22.0139 -8.94958
