ITEM: TIMESTEP
44
ITEM: NUMBER OF ATOMS
688
ITEM: BOX BOUNDS pp pp pp
0.0000000000000000e+00 2.2013900999999997e+01
0.0000000000000000e+00 2.2013900999999997e+01
0.0000000000000000e+00 2.2013900999999997e+01
ITEM: ATOMS id type x y z c_pot
175 1 18.8704 9.43404 9.43435 -8.94975
2 1 1.57231 1.57232 1.57231 -8.94954
174 1 15.7282 9.43314 9.43316 -8.94794
4 1 4.71717 1.57231 1.57228 -8.94968
191 1 4.71515 7.86147 11.0067 -8.95061
6 1 7.86205 1.57229 1.57226 -8.94961
7 1 9.43451 1.74334e-15 -6.39527e-05 -8.94962
8 1 11.0069 1.57228 1.57223 -8.94961
173 1 12.5861 9.43212 9.42869 -9.03225
10 1 14.1519 1.57226 1.57222 -8.94964
11 1 15.7243 7.06797e-16 -7.71004e-05 -8.94963
12 1 17.2968 1.57224 1.57222 -8.94958
172 1 9.4161 9.35576 9.4161 -9.37107
14 1 20.4415 1.57232 1.57235 -8.94959
171 1 6.28942 9.43294 9.43096 -9.03992
16 1 1.57225 4.71702 1.57225 -8.94955
190 1 1.57136 7.8615 11.0069 -8.94926
18 1 4.71699 4.71692 1.57212 -8.94962
170 1 3.14268 9.43335 9.43375 -8.94661
20 1 7.86198 4.71688 1.57214 -8.94959
169 1 22.0134 9.43411 9.43429 -8.94958
22 1 11.0069 4.71684 1.57206 -8.94959
168 1 18.8696 6.28914 9.43455 -8.94951
24 1 14.152 4.71674 1.57196 -8.9498
25 1 15.7243 3.1446 -0.000148574 -8.94968
26 1 17.2972 4.71666 1.57188 -8.94911
167 1 15.7254 6.28863 9.4345 -8.94905
28 1 20.4416 4.71701 1.57221 -8.94956
184 1 4.7165 4.71649 11.007 -8.94957
30 1 1.57222 7.86195 1.57222 -8.94963
166 1 12.5798 6.28844 9.43426 -8.95071
32 1 4.71679 7.86179 1.57197 -8.94977
165 1 9.43429 6.27282 9.43429 -8.97224
34 1 7.86166 7.86151 1.57167 -8.94956
164 1 6.2896 6.2885 9.43504 -8.95106
36 1 11.0069 7.8615 1.57136 -8.94926
37 1 12.5795 6.28925 -0.000344316 -8.94953
38 1 14.1529 7.86102 1.5705 -8.94985
163 1 3.14419 6.28892 9.43436 -8.94922
40 1 17.2974 7.86169 1.5717 -8.94957
180 1 14.1521 1.57214 11.007 -8.94959
42 1 20.4417 7.86195 1.57216 -8.94959
162 1 22.0137 6.28924 9.43443 -8.94952
177 1 4.7169 1.57213 11.007 -8.94955
161 1 18.8693 3.14456 9.43455 -8.94961
160 1 15.7247 3.14432 9.43457 -8.94958
159 1 12.5798 3.144 9.43452 -8.9493
158 1 9.43452 3.14146 9.43452 -8.95454
157 1 6.28925 3.144 9.4346 -8.94922
50 1 22.0139 7.48428e-16 3.14478 -8.94964
51 1 1.57228 1.57231 4.71717 -8.94968
52 1 3.14462 7.24592e-16 3.14462 -8.94951
53 1 4.71685 1.5721 4.71685 -8.9495
54 1 6.28959 2.03757e-15 3.14463 -8.94963
55 1 7.86201 1.57219 4.71694 -8.94956
56 1 9.4345 1.18603e-15 3.1446 -8.94962
57 1 11.007 1.57213 4.7169 -8.94955
58 1 12.5794 -8.8904e-17 3.14458 -8.94962
59 1 14.1522 1.57198 4.71686 -8.94971
60 1 15.7245 -1.45168e-16 3.14458 -8.94964
61 1 17.2969 1.57221 4.71713 -8.94966
62 1 18.8692 4.48589e-16 3.14475 -8.94963
63 1 20.4415 1.57231 4.7172 -8.94962
64 1 22.0139 3.14465 3.14471 -8.9496
65 1 1.57212 4.71692 4.71699 -8.94962
66 1 3.14454 3.14452 3.14454 -8.94942
67 1 4.71647 4.71636 4.71647 -8.94895
68 1 6.28953 3.14454 3.14451 -8.9498
69 1 7.862 4.71667 4.71672 -8.95022
70 1 9.43447 3.14446 3.14451 -8.94959
71 1 11.007 4.71649 4.7165 -8.94957
72 1 12.5795 3.1444 3.14442 -8.94963
73 1 14.1528 4.71563 4.71623 -8.94995
74 1 15.7247 3.14419 3.14437 -8.94962
75 1 17.2973 4.71656 4.71684 -8.94956
76 1 18.8693 3.14456 3.14465 -8.9496
77 1 20.4417 4.71694 4.71706 -8.94957
78 1 22.0139 6.28942 3.14456 -8.94967
79 1 1.57197 7.86179 4.71679 -8.94977
80 1 3.14432 6.28921 3.14432 -8.94938
81 1 4.71585 7.86105 4.71585 -8.9486
82 1 6.28914 6.28904 3.14397 -8.94977
83 1 7.86121 7.86101 4.71532 -8.951
84 1 9.43436 6.28892 3.14419 -8.94922
85 1 11.0067 7.86147 4.71515 -8.95061
86 1 12.5796 6.28884 3.14378 -8.95008
87 1 14.1567 7.85757 4.71201 -8.94335
88 1 15.7259 6.288 3.14312 -8.94787
89 1 17.2986 7.86102 4.71601 -8.9499
90 1 18.8697 6.28915 3.1443 -8.94959
91 1 20.442 7.86179 4.71688 -8.94985
92 1 22.0139 9.43443 3.14453 -8.94961
93 1 3.1443 9.43436 3.1443 -8.94957
94 1 6.28887 9.43422 3.14348 -8.95048
95 1 9.43375 9.43335 3.14268 -8.94661
96 1 12.5816 9.43289 3.13963 -8.95171
97 1 15.726 9.43386 3.14292 -8.94929
98 1 18.8698 9.43432 3.14424 -8.94954
99 1 22.0139 8.44547e-16 6.28964 -8.94961
100 1 1.57226 1.57229 7.86205 -8.94961
101 1 3.14463 9.41853e-16 6.28959 -8.94963
102 1 4.71694 1.57219 7.86201 -8.94956
103 1 6.28926 1.49214e-15 6.28926 -8.94976
104 1 7.86168 1.57155 7.86168 -8.95007
105 1 9.43452 2.67914e-16 6.28934 -8.94949
106 1 11.0073 1.57163 7.86172 -8.94972
107 1 12.5797 1.72692e-15 6.28931 -8.94978
108 1 14.1521 1.57208 7.86202 -8.94967
109 1 15.7245 2.55618e-15 6.28958 -8.94969
110 1 17.2969 1.57222 7.86208 -8.94962
111 1 18.8692 1.05126e-15 6.28964 -8.94962
112 1 20.4415 1.57231 7.86208 -8.94962
113 1 22.0138 3.14464 6.2896 -8.94962
114 1 1.57214 4.71688 7.86198 -8.94959
115 1 3.14451 3.14454 6.28953 -8.9498
116 1 4.71672 4.71667 7.862 -8.95022
117 1 6.28886 3.14368 6.28886 -8.94932
118 1 7.86037 4.71381 7.86037 -8.94814
119 1 9.4346 3.144 6.28925 -8.94922
120 1 11.0086 4.71457 7.86058 -8.94659
121 1 12.5801 3.14358 6.28895 -8.94968
122 1 14.1527 4.71617 7.86193 -8.95022
123 1 15.7247 3.14424 6.2895 -8.94975
124 1 17.2972 4.71665 7.86203 -8.94961
125 1 18.8693 3.14455 6.2896 -8.94963
126 1 20.4416 4.71692 7.86204 -8.94958
127 1 22.0138 6.2893 6.28941 -8.94962
128 1 1.57167 7.86151 7.86166 -8.94956
129 1 3.14397 6.28904 6.28914 -8.94977
130 1 4.71532 7.86101 7.86121 -8.951
131 1 6.28754 6.2873 6.28754 -8.94704
132 1 7.85556 7.85642 7.85556 -9.00967
133 1 9.43504 6.2885 6.2896 -8.95106
134 1 11.0133 7.86092 7.85758 -9.03313
135 1 12.5815 6.28652 6.28749 -8.95174
136 1 14.156 7.8597 7.86021 -8.94822
137 1 15.7259 6.28825 6.28878 -8.94923
138 1 17.2986 7.86107 7.86154 -8.94944
139 1 18.8698 6.28907 6.28936 -8.94949
140 1 20.4419 7.86163 7.86187 -8.94969
141 1 22.0139 9.43437 6.28937 -8.94995
142 1 3.14348 9.43422 6.28887 -8.95048
143 1 6.2855 9.43274 6.2855 -8.94712
144 1 9.43096 9.43294 6.28942 -9.03992
145 1 12.5948 9.42329 6.27314 -8.97369
146 1 15.7292 9.43304 6.28687 -8.9521
147 1 18.8705 9.43419 6.28913 -8.95027
148 1 -6.39527e-05 9.91694e-16 9.43451 -8.94962
149 1 3.1446 1.30052e-15 9.4345 -8.94962
150 1 6.28934 8.5725e-17 9.43452 -8.94949
151 1 9.43452 6.84719e-16 9.43452 -8.95101
152 1 12.5797 4.60603e-16 9.43453 -8.94948
153 1 15.7245 1.59227e-15 9.43454 -8.94965
154 1 18.8692 5.70727e-16 9.43454 -8.94961
155 1 22.0138 3.14461 9.4345 -8.94961
156 1 3.14451 3.14446 9.43447 -8.94959
182 1 20.4415 1.57231 11.007 -8.94962
176 1 1.57223 1.57228 11.0069 -8.94961
343 1 18.8692 9.43448 18.8692 -8.94961
178 1 7.86172 1.57163 11.0073 -8.94972
179 1 11.0073 1.57161 11.0073 -8.94978
342 1 15.7246 9.43441 18.8692 -8.9496
341 1 12.5798 9.43417 18.8698 -8.95008
47 1 12.5798 9.43414 22.0127 -8.95042
183 1 1.57206 4.71684 11.0069 -8.94959
340 1 9.43435 9.43404 18.8704 -8.94975
185 1 7.86058 4.71457 11.0086 -8.94659
186 1 11.0084 4.71448 11.0084 -8.94713
187 1 14.1525 4.71649 11.007 -8.94984
339 1 6.28913 9.43419 18.8705 -8.95027
338 1 3.14424 9.43432 18.8698 -8.94954
337 1 22.0137 9.43446 18.8693 -8.9496
336 1 20.4415 7.86203 20.4415 -8.94961
192 1 7.85758 7.86092 11.0133 -9.03313
193 1 11.0108 7.85985 11.0108 -9.05608
194 1 14.154 7.86118 11.0066 -8.95015
195 1 17.2978 7.86147 11.0071 -8.94938
196 1 20.4416 7.86167 11.007 -8.94954
197 1 22.0138 6.64221e-16 12.5794 -8.94962
198 1 1.57222 1.57226 14.1519 -8.94964
199 1 3.14458 1.55419e-15 12.5794 -8.94962
200 1 4.71686 1.57198 14.1522 -8.94971
201 1 6.28931 1.82521e-15 12.5797 -8.94978
202 1 7.86202 1.57208 14.1521 -8.94967
203 1 9.43453 1.65011e-15 12.5797 -8.94948
204 1 11.007 1.57214 14.1521 -8.94959
205 1 12.5798 2.53741e-15 12.5798 -8.94974
206 1 14.1522 1.57206 14.1522 -8.9496
207 1 15.7245 1.25077e-15 12.5795 -8.94964
208 1 17.2968 1.57228 14.1519 -8.94966
209 1 18.8692 9.58648e-16 12.5794 -8.94961
210 1 20.4415 1.57232 14.1518 -8.94962
211 1 22.0138 3.14461 12.5794 -8.94961
212 1 1.57196 4.71674 14.152 -8.9498
213 1 3.14442 3.1444 12.5795 -8.94963
214 1 4.71623 4.71563 14.1528 -8.94995
215 1 6.28895 3.14358 12.5801 -8.94968
216 1 7.86193 4.71617 14.1527 -8.95022
217 1 9.43452 3.144 12.5798 -8.9493
218 1 11.007 4.71649 14.1525 -8.94984
219 1 12.5801 3.14369 12.5801 -8.94955
220 1 14.1526 4.7161 14.1526 -8.94958
221 1 15.7246 3.14443 12.5795 -8.94971
222 1 17.297 4.71683 14.152 -8.94974
223 1 18.8692 3.1446 12.5795 -8.9496
224 1 20.4415 4.71697 14.1519 -8.94961
225 1 -0.000344316 6.28925 12.5795 -8.94953
226 1 1.5705 7.86102 14.1529 -8.94985
227 1 3.14378 6.28884 12.5796 -8.95008
228 1 4.71201 7.85757 14.1567 -8.94335
229 1 6.28749 6.28652 12.5815 -8.95174
230 1 7.86021 7.8597 14.156 -8.94822
231 1 9.43426 6.28844 12.5798 -8.95071
232 1 11.0066 7.86118 14.154 -8.95015
233 1 12.5809 6.28706 12.5809 -8.9509
234 1 14.1544 7.85947 14.1544 -8.94572
235 1 15.7251 6.2889 12.5797 -8.94997
236 1 17.2977 7.86136 14.1526 -8.94966
237 1 18.8694 6.28925 12.5796 -8.94955
238 1 20.4413 7.86169 14.1522 -8.9499
239 1 22.0127 9.43414 12.5798 -8.95042
240 1 3.13963 9.43289 12.5816 -8.95171
241 1 6.27314 9.42329 12.5948 -8.97369
242 1 9.42869 9.43212 12.5861 -9.03225
243 1 12.587 9.42583 12.587 -9.00844
244 1 15.7273 9.43323 12.5807 -8.94975
245 1 18.8698 9.43417 12.5798 -8.95008
246 1 -7.71004e-05 9.95205e-16 15.7243 -8.94963
247 1 1.57222 1.57224 17.2968 -8.94958
248 1 3.14458 -2.96464e-16 15.7245 -8.94964
249 1 4.71713 1.57221 17.2969 -8.94966
250 1 6.28958 1.17168e-15 15.7245 -8.94969
251 1 7.86208 1.57222 17.2969 -8.94962
252 1 9.43454 1.686e-15 15.7245 -8.94965
253 1 11.007 1.57225 17.2969 -8.94961
254 1 12.5795 1.39195e-15 15.7245 -8.94964
255 1 14.1519 1.57228 17.2968 -8.94966
256 1 15.7245 1.3389e-15 15.7245 -8.94957
257 1 17.2968 1.57229 17.2968 -8.94957
258 1 18.8691 1.61413e-15 15.7243 -8.94964
259 1 20.4415 1.57232 17.2967 -8.94963
260 1 -0.000148574 3.1446 15.7243 -8.94968
261 1 1.57188 4.71666 17.2972 -8.94911
262 1 3.14437 3.14419 15.7247 -8.94962
263 1 4.71684 4.71656 17.2973 -8.94956
264 1 6.2895 3.14424 15.7247 -8.94975
265 1 7.86203 4.71665 17.2972 -8.94961
266 1 9.43457 3.14432 15.7247 -8.94958
267 1 11.0071 4.71677 17.2971 -8.94953
268 1 12.5795 3.14443 15.7246 -8.94971
269 1 14.152 4.71683 17.297 -8.94974
270 1 15.7246 3.14441 15.7246 -8.94953
271 1 17.2969 4.71689 17.2969 -8.94937
272 1 18.8692 3.14463 15.7243 -8.94965
273 1 20.4414 4.71697 17.2969 -8.94953
274 1 22.0133 6.28912 15.7247 -8.94958
275 1 1.5717 7.86169 17.2974 -8.94957
276 1 3.14312 6.288 15.7259 -8.94787
277 1 4.71601 7.86102 17.2986 -8.9499
278 1 6.28878 6.28825 15.7259 -8.94923
279 1 7.86154 7.86107 17.2986 -8.94944
280 1 9.4345 6.28863 15.7254 -8.94905
281 1 11.0071 7.86147 17.2978 -8.94938
282 1 12.5797 6.2889 15.7251 -8.94997
283 1 14.1526 7.86136 17.2977 -8.94966
284 1 15.7251 6.28875 15.7251 -8.94865
285 1 17.297 7.86191 17.297 -8.94979
286 1 18.8693 6.28927 15.7246 -8.94959
287 1 20.4413 7.86194 17.2969 -8.94961
288 1 22.0132 9.43431 15.7248 -8.94954
289 1 3.14292 9.43386 15.726 -8.94929
290 1 6.28687 9.43304 15.7292 -8.9521
291 1 9.43316 9.43314 15.7282 -8.94794
292 1 12.5807 9.43323 15.7273 -8.94975
293 1 15.7249 9.43433 15.7249 -8.95003
294 1 18.8692 9.43441 15.7246 -8.9496
295 1 22.0138 1.26315e-16 18.8691 -8.94955
296 1 1.57235 1.57232 20.4415 -8.94959
297 1 3.14475 1.21205e-15 18.8692 -8.94963
298 1 4.7172 1.57231 20.4415 -8.94962
299 1 6.28964 1.59086e-15 18.8692 -8.94962
300 1 7.86208 1.57231 20.4415 -8.94962
301 1 9.43454 1.09685e-15 18.8692 -8.94961
302 1 11.007 1.57231 20.4415 -8.94962
303 1 12.5794 7.22246e-16 18.8692 -8.94961
304 1 14.1518 1.57232 20.4415 -8.94962
305 1 15.7243 6.90458e-16 18.8691 -8.94964
306 1 17.2967 1.57232 20.4415 -8.94963
307 1 18.8691 1.90996e-15 18.8691 -8.9496
308 1 20.4415 1.57234 20.4415 -8.94949
309 1 22.0138 3.14463 18.8692 -8.94945
310 1 1.57221 4.71701 20.4416 -8.94956
311 1 3.14465 3.14456 18.8693 -8.9496
312 1 4.71706 4.71694 20.4417 -8.94957
313 1 6.2896 3.14455 18.8693 -8.94963
314 1 7.86204 4.71692 20.4416 -8.94958
315 1 9.43455 3.14456 18.8693 -8.94961
316 1 11.007 4.71693 20.4416 -8.94958
317 1 12.5795 3.1446 18.8692 -8.9496
318 1 14.1519 4.71697 20.4415 -8.94961
319 1 15.7243 3.14463 18.8692 -8.94965
320 1 17.2969 4.71697 20.4414 -8.94953
321 1 18.8691 3.14465 18.8691 -8.9495
322 1 20.4415 4.71712 20.4415 -8.94962
323 1 22.0137 6.28948 18.8693 -8.94961
324 1 1.57216 7.86195 20.4417 -8.94959
325 1 3.1443 6.28915 18.8697 -8.94959
326 1 4.71688 7.86179 20.442 -8.94985
327 1 6.28936 6.28907 18.8698 -8.94949
328 1 7.86187 7.86163 20.4419 -8.94969
329 1 9.43455 6.28914 18.8696 -8.94951
330 1 11.007 7.86167 20.4416 -8.94954
331 1 12.5796 6.28925 18.8694 -8.94955
332 1 14.1522 7.86169 20.4413 -8.9499
333 1 15.7246 6.28927 18.8693 -8.94959
334 1 17.2969 7.86194 20.4413 -8.94961
335 1 18.8692 6.28952 18.8692 -8.94966
1 1 22.0139 1.5489e-15 22.0139 -8.94957
3 1 3.14478 1.56233e-15 22.0139 -8.94964
9 1 12.5794 1.05346e-15 22.0138 -8.94962
13 1 18.8691 6.86886e-16 22.0138 -8.94955
15 1 22.0139 3.14469 22.0139 -8.94954
19 1 6.2896 3.14464 22.0138 -8.94962
21 1 9.4345 3.14461 22.0138 -8.94961
23 1 12.5794 3.14461 22.0138 -8.94961
27 1 18.8692 3.14463 22.0138 -8.94945
31 1 3.14456 6.28942 22.0139 -8.94967
33 1 6.28941 6.2893 22.0138 -8.94962
35 1 9.43443 6.28924 22.0137 -8.94952
39 1 15.7247 6.28912 22.0133 -8.94958
43 1 22.0138 9.43448 22.0138 -8.9496
45 1 6.28937 9.43437 22.0139 -8.94995
46 1 9.43429 9.43411 22.0134 -8.94958
5 1 6.28964 7.6066e-16 22.0139 -8.94961
17 1 3.14471 3.14465 22.0139 -8.9496
29 1 22.0138 6.28955 22.0138 -8.94961
189 1 20.4416 4.71693 11.007 -8.94958
188 1 17.2971 4.71677 11.0071 -8.94953
41 1 18.8693 6.28948 22.0137 -8.94961
181 1 17.2969 1.57225 11.007 -8.94961
44 1 3.14453 9.43443 22.0139 -8.94961
48 1 15.7248 9.43431 22.0132 -8.94954
49 1 18.8693 9.43446 22.0137 -8.9496
344 1 1.57221 11.007 1.57221 -8.94961
345 1 4.71678 11.007 1.57194 -8.94956
346 1 7.86191 11.007 1.57156 -8.95007
347 1 11.007 11.007 1.56933 -8.95296
348 1 14.1529 11.007 1.57029 -8.94952
349 1 17.2974 11.007 1.57167 -8.94954
350 1 20.4417 11.007 1.57215 -8.94959
688 2 10.3195 11.007 9.35603 0.550226
352 1 1.57222 14.1519 1.57222 -8.94963
537 1 14.1521 20.4418 11.007 -8.94959
354 1 4.71679 14.1521 1.57197 -8.94977
687 2 9.35603 11.007 10.3195 0.550226
356 1 7.86166 14.1524 1.57167 -8.94956
511 1 18.8693 18.8693 9.43455 -8.94961
358 1 11.0069 14.1524 1.57136 -8.94926
510 1 15.7247 18.8696 9.43457 -8.94958
360 1 14.1529 14.1529 1.5705 -8.94985
534 1 4.7169 20.4418 11.007 -8.94955
362 1 17.2974 14.1522 1.5717 -8.94957
527 1 4.7165 17.2974 11.007 -8.94957
364 1 20.4417 14.1519 1.57216 -8.94959
520 1 4.71515 14.1524 11.0067 -8.95061
366 1 1.57225 17.2969 1.57225 -8.94955
509 1 12.5798 18.8699 9.43452 -8.9493
368 1 4.71699 17.297 1.57212 -8.94962
508 1 9.43452 18.8724 9.43452 -8.95454
370 1 7.86198 17.297 1.57214 -8.94959
507 1 6.28925 18.8699 9.4346 -8.94922
372 1 11.0069 17.2971 1.57206 -8.94959
373 1 12.5795 15.7247 -0.000344316 -8.94953
374 1 14.152 17.2972 1.57196 -8.9498
506 1 3.14451 18.8694 9.43447 -8.94959
376 1 17.2972 17.2972 1.57188 -8.94911
519 1 1.57136 14.1524 11.0069 -8.94926
378 1 20.4416 17.2969 1.57221 -8.94956
505 1 22.0138 18.8693 9.4345 -8.94961
380 1 1.57231 20.4416 1.57231 -8.94954
516 1 14.1649 11.007 11.0064 -9.01455
382 1 4.71717 20.4416 1.57228 -8.94968
504 1 18.8696 15.7248 9.43455 -8.94951
384 1 7.86205 20.4416 1.57226 -8.94961
503 1 15.7254 15.7253 9.4345 -8.94905
386 1 11.0069 20.4416 1.57223 -8.94961
502 1 12.5798 15.7255 9.43426 -8.95071
388 1 14.1519 20.4416 1.57222 -8.94964
389 1 15.7243 18.8693 -0.000148574 -8.94968
390 1 17.2968 20.4417 1.57222 -8.94958
501 1 9.43429 15.7411 9.43429 -8.97224
392 1 20.4415 20.4416 1.57235 -8.94959
393 1 1.57194 11.007 4.71678 -8.94956
394 1 4.71594 11.007 4.71594 -8.94817
395 1 7.86177 11.007 4.71416 -8.95344
396 1 11.0085 11.007 4.70344 -8.97442
397 1 14.1561 11.007 4.71196 -8.94715
398 1 17.2987 11.007 4.71591 -8.94933
399 1 20.442 11.007 4.71684 -8.94974
400 1 22.0139 12.5795 3.14453 -8.94961
401 1 1.57197 14.1521 4.71679 -8.94977
402 1 3.1443 12.5795 3.1443 -8.94957
403 1 4.71585 14.1528 4.71585 -8.9486
404 1 6.28887 12.5797 3.14348 -8.95048
405 1 7.86121 14.1529 4.71532 -8.951
406 1 9.43375 12.5805 3.14268 -8.94661
407 1 11.0067 14.1524 4.71515 -8.95061
408 1 12.5816 12.581 3.13963 -8.95171
409 1 14.1567 14.1563 4.71201 -8.94335
410 1 15.726 12.58 3.14292 -8.94929
411 1 17.2986 14.1529 4.71601 -8.9499
412 1 18.8698 12.5796 3.14424 -8.94954
413 1 20.442 14.1521 4.71688 -8.94985
414 1 22.0139 15.7245 3.14456 -8.94967
415 1 1.57212 17.297 4.71699 -8.94962
416 1 3.14432 15.7247 3.14432 -8.94938
417 1 4.71647 17.2975 4.71647 -8.94895
418 1 6.28914 15.7249 3.14397 -8.94977
419 1 7.862 17.2972 4.71672 -8.95022
420 1 9.43436 15.725 3.14419 -8.94922
421 1 11.007 17.2974 4.7165 -8.94957
422 1 12.5796 15.7251 3.14378 -8.95008
423 1 14.1528 17.2983 4.71623 -8.94995
424 1 15.7259 15.7259 3.14312 -8.94787
425 1 17.2973 17.2973 4.71684 -8.94956
426 1 18.8697 15.7248 3.1443 -8.94959
427 1 20.4417 17.297 4.71706 -8.94957
428 1 22.0139 18.8692 3.14471 -8.9496
429 1 1.57228 20.4416 4.71717 -8.94968
430 1 3.14454 18.8694 3.14454 -8.94942
431 1 4.71685 20.4418 4.71685 -8.9495
432 1 6.28953 18.8694 3.14451 -8.9498
433 1 7.86201 20.4417 4.71694 -8.94956
434 1 9.43447 18.8694 3.14451 -8.94959
435 1 11.007 20.4418 4.7169 -8.94955
436 1 12.5795 18.8695 3.14442 -8.94963
437 1 14.1522 20.4419 4.71686 -8.94971
438 1 15.7247 18.8697 3.14437 -8.94962
439 1 17.2969 20.4417 4.71713 -8.94966
440 1 18.8693 18.8693 3.14465 -8.9496
441 1 20.4415 20.4416 4.7172 -8.94962
442 1 1.57156 11.007 7.86191 -8.95007
443 1 4.71416 11.007 7.86177 -8.95344
444 1 7.84881 11.007 7.84881 -9.01153
445 1 11.0457 11.007 7.77378 -9.26681
446 1 14.1615 11.007 7.85668 -9.00928
447 1 17.2997 11.007 7.86141 -8.95097
448 1 20.4421 11.007 7.86191 -8.94993
449 1 22.0139 12.5795 6.28937 -8.94995
450 1 1.57167 14.1524 7.86166 -8.94956
451 1 3.14348 12.5797 6.28887 -8.95048
452 1 4.71532 14.1529 7.86121 -8.951
453 1 6.2855 12.5812 6.2855 -8.94712
454 1 7.85556 14.1575 7.85556 -9.00967
455 1 9.43096 12.581 6.28942 -9.03992
456 1 11.0133 14.153 7.85758 -9.03313
457 1 12.5948 12.5906 6.27314 -8.97369
458 1 14.156 14.1542 7.86021 -8.94822
459 1 15.7292 12.5809 6.28687 -8.9521
460 1 17.2986 14.1528 7.86154 -8.94944
461 1 18.8705 12.5797 6.28913 -8.95027
462 1 20.4419 14.1523 7.86187 -8.94969
463 1 22.0138 15.7246 6.28941 -8.94962
464 1 1.57214 17.297 7.86198 -8.94959
465 1 3.14397 15.7249 6.28914 -8.94977
466 1 4.71672 17.2972 7.862 -8.95022
467 1 6.28754 15.7266 6.28754 -8.94704
468 1 7.86037 17.3001 7.86037 -8.94814
469 1 9.43504 15.7254 6.2896 -8.95106
470 1 11.0086 17.2993 7.86058 -8.94659
471 1 12.5815 15.7274 6.28749 -8.95174
472 1 14.1527 17.2977 7.86193 -8.95022
473 1 15.7259 15.7256 6.28878 -8.94923
474 1 17.2972 17.2973 7.86203 -8.94961
475 1 18.8698 15.7248 6.28936 -8.94949
476 1 20.4416 17.297 7.86204 -8.94958
477 1 22.0138 18.8693 6.2896 -8.94962
478 1 1.57226 20.4416 7.86205 -8.94961
479 1 3.14451 18.8694 6.28953 -8.9498
480 1 4.71694 20.4417 7.86201 -8.94956
481 1 6.28886 18.8702 6.28886 -8.94932
482 1 7.86168 20.4424 7.86168 -8.95007
483 1 9.4346 18.8699 6.28925 -8.94922
484 1 11.0073 20.4423 7.86172 -8.94972
485 1 12.5801 18.8703 6.28895 -8.94968
486 1 14.1521 20.4418 7.86202 -8.94967
487 1 15.7247 18.8697 6.2895 -8.94975
488 1 17.2969 20.4417 7.86208 -8.94962
489 1 18.8693 18.8694 6.2896 -8.94963
490 1 20.4415 20.4416 7.86208 -8.94962
491 1 22.0134 12.5798 9.43429 -8.94958
492 1 3.14268 12.5805 9.43375 -8.94661
493 1 6.28942 12.581 9.43096 -9.03992
494 1 9.4161 12.6581 9.4161 -9.37107
495 1 12.5861 12.5818 9.42869 -9.03225
496 1 15.7282 12.5808 9.43316 -8.94794
497 1 18.8704 12.5799 9.43435 -8.94975
498 1 22.0137 15.7247 9.43443 -8.94952
499 1 3.14419 15.725 9.43436 -8.94922
500 1 6.2896 15.7254 9.43504 -8.95106
512 1 1.56933 11.007 11.007 -8.95296
513 1 4.70344 11.007 11.0085 -8.97442
539 1 20.4415 20.4416 11.007 -8.94962
686 1 20.4415 20.4416 20.4415 -8.94949
685 1 18.8691 18.8692 18.8691 -8.9495
514 1 7.77378 11.007 11.0457 -9.26681
515 1 11.0731 11.007 11.0731 -9.32792
684 1 17.2967 20.4416 20.4415 -8.94963
517 1 17.2997 11.007 11.007 -8.95282
518 1 20.4415 11.007 11.007 -8.95061
683 1 15.7243 18.8693 18.8692 -8.94965
682 1 14.1518 20.4416 20.4415 -8.94962
521 1 7.85758 14.153 11.0133 -9.03313
522 1 11.0108 14.1541 11.0108 -9.05608
523 1 14.154 14.1527 11.0066 -8.95015
524 1 17.2978 14.1524 11.0071 -8.94938
525 1 20.4416 14.1522 11.007 -8.94954
526 1 1.57206 17.2971 11.0069 -8.94959
681 1 12.5795 18.8693 18.8692 -8.9496
528 1 7.86058 17.2993 11.0086 -8.94659
529 1 11.0084 17.2994 11.0084 -8.94713
530 1 14.1525 17.2974 11.007 -8.94984
680 1 11.007 20.4416 20.4415 -8.94962
679 1 9.43455 18.8693 18.8693 -8.94961
533 1 1.57223 20.4416 11.0069 -8.94961
678 1 7.86208 20.4416 20.4415 -8.94962
535 1 7.86172 20.4423 11.0073 -8.94972
536 1 11.0073 20.4423 11.0073 -8.94978
677 1 6.2896 18.8694 18.8693 -8.94963
676 1 4.7172 20.4416 20.4415 -8.94962
391 1 18.8692 18.8693 22.0138 -8.94945
540 1 1.57029 11.007 14.1529 -8.94952
541 1 4.71196 11.007 14.1561 -8.94715
542 1 7.85668 11.007 14.1615 -9.00928
543 1 11.0064 11.007 14.1649 -9.01455
544 1 14.1529 11.007 14.1529 -8.9499
545 1 17.2974 11.007 14.1523 -8.94914
546 1 20.4412 11.007 14.1522 -8.94971
547 1 22.0127 12.5798 12.5798 -8.95042
548 1 1.5705 14.1529 14.1529 -8.94985
549 1 3.13963 12.581 12.5816 -8.95171
550 1 4.71201 14.1563 14.1567 -8.94335
551 1 6.27314 12.5906 12.5948 -8.97369
552 1 7.86021 14.1542 14.156 -8.94822
553 1 9.42869 12.5818 12.5861 -9.03225
554 1 11.0066 14.1527 14.154 -8.95015
555 1 12.587 12.5881 12.587 -9.00844
556 1 14.1544 14.1544 14.1544 -8.94572
557 1 15.7273 12.5807 12.5807 -8.94975
558 1 17.2977 14.1525 14.1526 -8.94966
559 1 18.8698 12.5797 12.5798 -8.95008
560 1 20.4413 14.1522 14.1522 -8.9499
561 1 -0.000344316 15.7247 12.5795 -8.94953
562 1 1.57196 17.2972 14.152 -8.9498
563 1 3.14378 15.7251 12.5796 -8.95008
564 1 4.71623 17.2983 14.1528 -8.94995
565 1 6.28749 15.7274 12.5815 -8.95174
566 1 7.86193 17.2977 14.1527 -8.95022
567 1 9.43426 15.7255 12.5798 -8.95071
568 1 11.007 17.2974 14.1525 -8.94984
569 1 12.5809 15.7268 12.5809 -8.9509
570 1 14.1526 17.2978 14.1526 -8.94958
571 1 15.7251 15.725 12.5797 -8.94997
572 1 17.297 17.2971 14.152 -8.94974
573 1 18.8694 15.7246 12.5796 -8.94955
574 1 20.4415 17.2969 14.1519 -8.94961
575 1 22.0138 18.8693 12.5794 -8.94961
576 1 1.57222 20.4416 14.1519 -8.94964
577 1 3.14442 18.8695 12.5795 -8.94963
578 1 4.71686 20.4419 14.1522 -8.94971
579 1 6.28895 18.8703 12.5801 -8.94968
580 1 7.86202 20.4418 14.1521 -8.94967
581 1 9.43452 18.8699 12.5798 -8.9493
582 1 11.007 20.4418 14.1521 -8.94959
583 1 12.5801 18.8702 12.5801 -8.94955
584 1 14.1522 20.4418 14.1522 -8.9496
585 1 15.7246 18.8695 12.5795 -8.94971
586 1 17.2968 20.4416 14.1519 -8.94966
587 1 18.8692 18.8693 12.5795 -8.9496
588 1 20.4415 20.4416 14.1518 -8.94962
589 1 1.57167 11.007 17.2974 -8.94954
590 1 4.71591 11.007 17.2987 -8.94933
591 1 7.86141 11.007 17.2997 -8.95097
592 1 11.007 11.007 17.2997 -8.95282
593 1 14.1523 11.007 17.2974 -8.94914
594 1 17.2969 11.007 17.2969 -8.94959
595 1 20.4413 11.007 17.2969 -8.94959
596 1 22.0132 12.5796 15.7248 -8.94954
597 1 1.5717 14.1522 17.2974 -8.94957
598 1 3.14292 12.58 15.726 -8.94929
599 1 4.71601 14.1529 17.2986 -8.9499
600 1 6.28687 12.5809 15.7292 -8.9521
601 1 7.86154 14.1528 17.2986 -8.94944
602 1 9.43316 12.5808 15.7282 -8.94794
603 1 11.0071 14.1524 17.2978 -8.94938
604 1 12.5807 12.5807 15.7273 -8.94975
605 1 14.1526 14.1525 17.2977 -8.94966
606 1 15.7249 12.5796 15.7249 -8.95003
607 1 17.297 14.152 17.297 -8.94979
608 1 18.8692 12.5795 15.7246 -8.9496
609 1 20.4413 14.152 17.2969 -8.94961
610 1 22.0133 15.7248 15.7247 -8.94958
611 1 1.57188 17.2972 17.2972 -8.94911
612 1 3.14312 15.7259 15.7259 -8.94787
613 1 4.71684 17.2973 17.2973 -8.94956
614 1 6.28878 15.7256 15.7259 -8.94923
615 1 7.86203 17.2973 17.2972 -8.94961
616 1 9.4345 15.7253 15.7254 -8.94905
617 1 11.0071 17.2971 17.2971 -8.94953
618 1 12.5797 15.725 15.7251 -8.94997
619 1 14.152 17.2971 17.297 -8.94974
620 1 15.7251 15.7251 15.7251 -8.94865
621 1 17.2969 17.297 17.2969 -8.94937
622 1 18.8693 15.7246 15.7246 -8.94959
623 1 20.4414 17.2969 17.2969 -8.94953
624 1 -0.000148574 18.8693 15.7243 -8.94968
625 1 1.57222 20.4417 17.2968 -8.94958
626 1 3.14437 18.8697 15.7247 -8.94962
627 1 4.71713 20.4417 17.2969 -8.94966
628 1 6.2895 18.8697 15.7247 -8.94975
629 1 7.86208 20.4417 17.2969 -8.94962
630 1 9.43457 18.8696 15.7247 -8.94958
631 1 11.007 20.4417 17.2969 -8.94961
632 1 12.5795 18.8695 15.7246 -8.94971
633 1 14.1519 20.4416 17.2968 -8.94966
634 1 15.7246 18.8695 15.7246 -8.94953
635 1 17.2968 20.4416 17.2968 -8.94957
636 1 18.8692 18.8693 15.7243 -8.94965
637 1 20.4415 20.4416 17.2967 -8.94963
638 1 1.57215 11.007 20.4417 -8.94959
639 1 4.71684 11.007 20.442 -8.94974
640 1 7.86191 11.007 20.4421 -8.94993
641 1 11.007 11.007 20.4415 -8.95061
642 1 14.1522 11.007 20.4412 -8.94971
643 1 17.2969 11.007 20.4413 -8.94959
644 1 20.4415 11.007 20.4415 -8.9496
645 1 22.0137 12.5794 18.8693 -8.9496
646 1 1.57216 14.1519 20.4417 -8.94959
647 1 3.14424 12.5796 18.8698 -8.94954
648 1 4.71688 14.1521 20.442 -8.94985
649 1 6.28913 12.5797 18.8705 -8.95027
650 1 7.86187 14.1523 20.4419 -8.94969
651 1 9.43435 12.5799 18.8704 -8.94975
652 1 11.007 14.1522 20.4416 -8.94954
653 1 12.5798 12.5797 18.8698 -8.95008
654 1 14.1522 14.1522 20.4413 -8.9499
655 1 15.7246 12.5795 18.8692 -8.9496
656 1 17.2969 14.152 20.4413 -8.94961
657 1 18.8692 12.5794 18.8692 -8.94961
658 1 20.4415 14.1519 20.4415 -8.94961
659 1 22.0137 15.7244 18.8693 -8.94961
660 1 1.57221 17.2969 20.4416 -8.94956
661 1 3.1443 15.7248 18.8697 -8.94959
662 1 4.71706 17.297 20.4417 -8.94957
663 1 6.28936 15.7248 18.8698 -8.94949
664 1 7.86204 17.297 20.4416 -8.94958
665 1 9.43455 15.7248 18.8696 -8.94951
666 1 11.007 17.297 20.4416 -8.94958
667 1 12.5796 15.7246 18.8694 -8.94955
668 1 14.1519 17.2969 20.4415 -8.94961
669 1 15.7246 15.7246 18.8693 -8.94959
670 1 17.2969 17.2969 20.4414 -8.94953
671 1 18.8692 15.7244 18.8692 -8.94966
672 1 20.4415 17.2968 20.4415 -8.94962
673 1 22.0138 18.8693 18.8692 -8.94945
674 1 1.57235 20.4416 20.4415 -8.94959
675 1 3.14465 18.8693 18.8693 -8.9496
351 1 22.0138 12.5794 22.0138 -8.9496
355 1 6.28937 12.5795 22.0139 -8.94995
357 1 9.43429 12.5798 22.0134 -8.94958
359 1 12.5798 12.5798 22.0127 -8.95042
367 1 3.14456 15.7245 22.0139 -8.94967
369 1 6.28941 15.7246 22.0138 -8.94962
371 1 9.43443 15.7247 22.0137 -8.94952
375 1 15.7247 15.7248 22.0133 -8.94958
379 1 22.0139 18.8692 22.0139 -8.94954
383 1 6.2896 18.8693 22.0138 -8.94962
385 1 9.4345 18.8693 22.0138 -8.94961
387 1 12.5794 18.8693 22.0138 -8.94961
353 1 3.14453 12.5795 22.0139 -8.94961
538 1 17.2969 20.4417 11.007 -8.94961
361 1 15.7248 12.5796 22.0132 -8.94954
363 1 18.8693 12.5794 22.0137 -8.9496
532 1 20.4416 17.297 11.007 -8.94958
531 1 17.2971 17.2971 11.0071 -8.94953
365 1 22.0138 15.7244 22.0138 -8.94961
377 1 18.8693 15.7244 22.0137 -8.94961
381 1 3.14471 18.8692 22.0139 -8.9496
