ITEM: TIMESTEP
80
ITEM: NUMBER OF ATOMS
736
ITEM: BOX BOUNDS pp pp pp
0.0000000000000000e+00 2.2013900999999997e+01
0.0000000000000000e+00 2.2013900999999997e+01
0.0000000000000000e+00 5.3462330999999999e+01
ITEM: ATOMS id type x y z c_pot c_ke
1 1 5.5582e-05 9.10178e-16 0.0946326 -7.40177 0.00118358
2 1 1.57249 1.57244 1.62146 -8.68383 0.00113895
3 1 3.14492 22.0139 0.0946714 -7.40178 0.00121333
4 1 4.71734 1.57244 1.62153 -8.68383 0.00118809
5 1 6.28975 22.0139 0.0947142 -7.4018 0.00123693
6 1 7.86215 1.57244 1.62158 -8.68384 0.00121154
7 1 9.43455 22.0139 0.094729 -7.4018 0.00123687
8 1 11.007 1.57244 1.62157 -8.68384 0.0011919
9 1 12.5794 3.55271e-15 0.0947047 -7.40179 0.00121349
10 1 14.1518 1.57244 1.62151 -8.68383 0.00114435
11 1 15.7242 4.56341e-16 0.0946595 -7.40178 0.00118406
12 1 17.2966 1.57243 1.62145 -8.68383 0.00110428
13 1 18.8691 3.55271e-15 0.0946273 -7.40177 0.00117055
14 1 20.4415 1.57243 1.62143 -8.68383 0.00110162
15 1 5.73246e-05 3.14487 0.0946463 -7.40177 0.00118823
16 1 1.5725 4.7173 1.6215 -8.68383 0.00115903
17 1 3.14492 3.14487 0.0946881 -7.40179 0.00122273
18 1 4.71735 4.7173 1.62158 -8.68384 0.00122671
19 1 6.28975 3.14488 0.0947343 -7.4018 0.00125139
20 1 7.86216 4.71731 1.62163 -8.68384 0.00126334
21 1 9.43455 3.14488 0.0947501 -7.40181 0.00125264
22 1 11.007 4.71731 1.62162 -8.68384 0.00123963
23 1 12.5794 3.14488 0.0947237 -7.4018 0.00122572
24 1 14.1518 4.7173 1.62156 -8.68384 0.00117446
25 1 15.7242 3.14487 0.0946749 -7.40178 0.00119083
26 1 17.2966 4.71729 1.62148 -8.68383 0.00111821
27 1 18.8691 3.14487 0.0946404 -7.40177 0.00117409
28 1 20.4415 4.71729 1.62146 -8.68383 0.00111165
29 1 6.12242e-05 6.28972 0.0946769 -7.40178 0.0011986
30 1 1.57251 7.86213 1.62155 -8.68384 0.00118378
31 1 3.14493 6.28972 0.0947255 -7.4018 0.00124369
32 1 4.71735 7.86214 1.62164 -8.68384 0.00127514
33 1 6.28976 6.28973 0.0947793 -7.40182 0.00128407
34 1 7.86216 7.86214 1.62171 -8.68385 0.00132964
35 1 9.43455 6.28973 0.0947976 -7.40183 0.00128856
36 1 11.007 7.86214 1.62169 -8.68385 0.00130067
37 1 12.5794 6.28973 0.0947664 -7.40182 0.00125334
38 1 14.1518 7.86214 1.62161 -8.68384 0.00121208
39 1 15.7242 6.28972 0.0947096 -7.4018 0.00120585
40 1 17.2966 7.86213 1.62153 -8.68383 0.00113516
41 1 18.8691 6.28972 0.0946698 -7.40178 0.00118193
42 1 20.4415 7.86213 1.6215 -8.68383 0.00112387
43 1 6.43324e-05 9.43454 0.0947014 -7.40179 0.00120681
44 1 1.57251 11.007 1.62157 -8.68384 0.00119471
45 1 3.14494 9.43455 0.0947554 -7.40181 0.00126041
46 1 4.71736 11.007 1.62167 -8.68384 0.00129686
47 1 6.28976 9.43455 0.0948155 -7.40183 0.0013105
48 1 7.86216 11.007 1.62174 -8.68385 0.00135973
49 1 9.43455 9.43455 0.0948359 -7.40184 0.00131787
50 1 11.007 11.007 1.62173 -8.68385 0.00132843
51 1 12.5794 9.43455 0.0948008 -7.40183 0.00127568
52 1 14.1518 11.007 1.62164 -8.68384 0.00122889
53 1 15.7242 9.43455 0.0947372 -7.40181 0.00121775
54 1 17.2966 11.007 1.62155 -8.68384 0.00114256
55 1 18.8691 9.43454 0.0946934 -7.40179 0.0011881
56 1 20.4415 11.007 1.62152 -8.68383 0.00112921
57 1 6.43324e-05 12.5794 0.0947014 -7.40179 0.00120681
58 1 1.57251 14.1518 1.62155 -8.68384 0.00118378
59 1 3.14494 12.5794 0.0947554 -7.40181 0.00126041
60 1 4.71735 14.1518 1.62164 -8.68384 0.00127514
61 1 6.28976 12.5794 0.0948155 -7.40183 0.0013105
62 1 7.86216 14.1518 1.62171 -8.68385 0.00132964
63 1 9.43455 12.5794 0.0948359 -7.40184 0.00131787
64 1 11.007 14.1518 1.62169 -8.68385 0.00130067
65 1 12.5794 12.5794 0.0948008 -7.40183 0.00127568
66 1 14.1518 14.1518 1.62161 -8.68384 0.00121208
67 1 15.7242 12.5794 0.0947372 -7.40181 0.00121775
68 1 17.2966 14.1518 1.62153 -8.68383 0.00113516
69 1 18.8691 12.5794 0.0946934 -7.40179 0.0011881
70 1 20.4415 14.1518 1.6215 -8.68383 0.00112387
71 1 6.12242e-05 15.7242 0.0946769 -7.40178 0.0011986
72 1 1.5725 17.2966 1.6215 -8.68383 0.00115903
73 1 3.14493 15.7242 0.0947255 -7.4018 0.00124369
74 1 4.71735 17.2966 1.62158 -8.68384 0.00122671
75 1 6.28976 15.7242 0.0947793 -7.40182 0.00128407
76 1 7.86216 17.2966 1.62163 -8.68384 0.00126334
77 1 9.43455 15.7242 0.0947976 -7.40183 0.00128856
78 1 11.007 17.2966 1.62162 -8.68384 0.00123963
79 1 12.5794 15.7242 0.0947664 -7.40182 0.00125334
80 1 14.1518 17.2966 1.62156 -8.68384 0.00117446
81 1 15.7242 15.7242 0.0947096 -7.4018 0.00120585
82 1 17.2966 17.2966 1.62148 -8.68383 0.00111821
83 1 18.8691 15.7242 0.0946698 -7.40178 0.00118193
84 1 20.4415 17.2966 1.62146 -8.68383 0.00111165
85 1 5.73246e-05 18.869 0.0946463 -7.40177 0.00118823
86 1 1.57249 20.4415 1.62146 -8.68383 0.00113895
87 1 3.14492 18.869 0.0946881 -7.40179 0.00122273
88 1 4.71734 20.4415 1.62153 -8.68383 0.00118809
89 1 6.28975 18.869 0.0947343 -7.4018 0.00125139
90 1 7.86215 20.4415 1.62158 -8.68384 0.00121154
91 1 9.43455 18.869 0.0947501 -7.40181 0.00125264
92 1 11.007 20.4415 1.62157 -8.68384 0.0011919
93 1 12.5794 18.869 0.0947237 -7.4018 0.00122572
94 1 14.1518 20.4415 1.62151 -8.68383 0.00114435
95 1 15.7242 18.869 0.0946749 -7.40178 0.00119083
96 1 17.2966 20.4415 1.62145 -8.68383 0.00110428
97 1 18.8691 18.869 0.0946404 -7.40177 0.00117409
98 1 20.4415 20.4415 1.62143 -8.68383 0.00110162
99 1 6.80193e-05 7.52874e-16 3.15161 -8.93806 0.00106397
100 1 1.57253 1.57244 4.74104 -8.90304 0.0010404
101 1 3.14493 22.0139 3.15168 -8.93805 0.00112542
102 1 4.71738 1.57245 4.74114 -8.90304 0.00113666
103 1 6.28976 22.0139 3.15175 -8.93805 0.00117883
104 1 7.86218 1.57245 4.74121 -8.90304 0.00118809
105 1 9.43456 22.0139 3.15177 -8.93804 0.00118369
106 1 11.007 1.57245 4.74119 -8.90304 0.00115644
107 1 12.5794 3.55271e-15 3.15173 -8.93805 0.00113728
108 1 14.1518 1.57245 4.74111 -8.90304 0.00106687
109 1 15.7242 22.0139 3.15165 -8.93806 0.0010744
110 1 17.2966 1.57244 4.74102 -8.90304 0.000985879
111 1 18.8691 22.0139 3.1516 -8.93807 0.00104157
112 1 20.4415 1.57244 4.74099 -8.90304 0.000973597
113 1 7.08673e-05 3.14487 3.15163 -8.93806 0.00107536
114 1 1.57254 4.71731 4.7411 -8.90304 0.00108438
115 1 3.14494 3.14487 3.15171 -8.93805 0.00114892
116 1 4.71739 4.71732 4.74122 -8.90304 0.00122102
117 1 6.28976 3.14488 3.15179 -8.93804 0.00121649
118 1 7.86219 4.71733 4.7413 -8.90303 0.00130291
119 1 9.43456 3.14488 3.15181 -8.93804 0.0012256
120 1 11.007 4.71733 4.74129 -8.90303 0.00126257
121 1 12.5794 3.14488 3.15176 -8.93804 0.00116959
122 1 14.1518 4.71732 4.74118 -8.90304 0.00113377
123 1 15.7242 3.14487 3.15168 -8.93805 0.00109194
124 1 17.2966 4.7173 4.74107 -8.90304 0.0010178
125 1 18.8691 3.14487 3.15162 -8.93806 0.00105057
126 1 20.4415 4.7173 4.74103 -8.90304 0.000996762
127 1 7.71978e-05 6.28972 3.15168 -8.93805 0.00110055
128 1 1.57256 7.86214 4.74117 -8.90304 0.00113844
129 1 3.14495 6.28972 3.15177 -8.93804 0.00120152
130 1 4.71741 7.86216 4.74132 -8.90303 0.0013269
131 1 6.28977 6.28973 3.15187 -8.93802 0.00130252
132 1 7.86219 7.86216 4.74142 -8.90302 0.00145029
133 1 9.43456 6.28973 3.1519 -8.93802 0.00132232
134 1 11.007 7.86216 4.7414 -8.90303 0.00139912
135 1 12.5794 6.28973 3.15184 -8.93803 0.00124329
136 1 14.1518 7.86215 4.74127 -8.90303 0.00121794
137 1 15.7242 6.28972 3.15174 -8.93805 0.00113101
138 1 17.2966 7.86214 4.74113 -8.90304 0.00105642
139 1 18.8691 6.28971 3.15167 -8.93806 0.0010703
140 1 20.4416 7.86214 4.74109 -8.90304 0.00102463
141 1 8.22195e-05 9.43454 3.15172 -8.93805 0.00112039
142 1 1.57256 11.007 4.7412 -8.90304 0.00116225
143 1 3.14495 9.43455 3.15182 -8.93803 0.00124369
144 1 4.71742 11.007 4.74136 -8.90303 0.00137437
145 1 6.28978 9.43455 3.15194 -8.93801 0.00137274
146 1 7.8622 11.007 4.74148 -8.90302 0.00151684
147 1 9.43456 9.43455 3.15197 -8.93801 0.0014021
148 1 11.007 11.007 4.74145 -8.90302 0.00146117
149 1 12.5794 9.43455 3.1519 -8.93802 0.00130351
150 1 14.1518 11.007 4.74131 -8.90303 0.00125568
151 1 15.7242 9.43454 3.15178 -8.93804 0.00116207
152 1 17.2966 11.007 4.74116 -8.90304 0.00107321
153 1 18.8691 9.43454 3.15171 -8.93805 0.00108566
154 1 20.4416 11.007 4.74111 -8.90304 0.00103669
155 1 8.22195e-05 12.5794 3.15172 -8.93805 0.00112039
156 1 1.57256 14.1518 4.74117 -8.90304 0.00113844
157 1 3.14495 12.5794 3.15182 -8.93803 0.00124369
158 1 4.71741 14.1517 4.74132 -8.90303 0.0013269
159 1 6.28978 12.5794 3.15194 -8.93801 0.00137274
160 1 7.86219 14.1517 4.74142 -8.90302 0.00145029
161 1 9.43456 12.5794 3.15197 -8.93801 0.0014021
162 1 11.007 14.1517 4.7414 -8.90303 0.00139912
163 1 12.5794 12.5794 3.1519 -8.93802 0.00130351
164 1 14.1518 14.1518 4.74127 -8.90303 0.00121794
165 1 15.7242 12.5794 3.15178 -8.93804 0.00116207
166 1 17.2966 14.1518 4.74113 -8.90304 0.00105642
167 1 18.8691 12.5794 3.15171 -8.93805 0.00108566
168 1 20.4416 14.1518 4.74109 -8.90304 0.00102463
169 1 7.71978e-05 15.7242 3.15168 -8.93805 0.00110055
170 1 1.57254 17.2966 4.7411 -8.90304 0.00108438
171 1 3.14495 15.7242 3.15177 -8.93804 0.00120152
172 1 4.71739 17.2966 4.74122 -8.90304 0.00122102
173 1 6.28977 15.7242 3.15187 -8.93802 0.00130252
174 1 7.86219 17.2966 4.7413 -8.90303 0.00130291
175 1 9.43456 15.7242 3.1519 -8.93802 0.00132232
176 1 11.007 17.2966 4.74129 -8.90303 0.00126257
177 1 12.5794 15.7242 3.15184 -8.93803 0.00124329
178 1 14.1518 17.2966 4.74118 -8.90304 0.00113377
179 1 15.7242 15.7242 3.15174 -8.93805 0.00113101
180 1 17.2966 17.2966 4.74107 -8.90304 0.0010178
181 1 18.8691 15.7242 3.15167 -8.93806 0.0010703
182 1 20.4415 17.2966 4.74103 -8.90304 0.000996762
183 1 7.08673e-05 18.869 3.15163 -8.93806 0.00107536
184 1 1.57253 20.4415 4.74104 -8.90304 0.0010404
185 1 3.14494 18.869 3.15171 -8.93805 0.00114892
186 1 4.71738 20.4415 4.74114 -8.90304 0.00113666
187 1 6.28976 18.869 3.15179 -8.93804 0.00121649
188 1 7.86218 20.4414 4.74121 -8.90304 0.00118809
189 1 9.43456 18.869 3.15181 -8.93804 0.0012256
190 1 11.007 20.4415 4.74119 -8.90304 0.00115644
191 1 12.5794 18.869 3.15176 -8.93804 0.00116959
192 1 14.1518 20.4415 4.74111 -8.90304 0.00106687
193 1 15.7242 18.869 3.15168 -8.93805 0.00109194
194 1 17.2966 20.4415 4.74102 -8.90304 0.000985879
195 1 18.8691 18.869 3.15162 -8.93806 0.00105057
196 1 20.4415 20.4415 4.74099 -8.90304 0.000973597
197 1 0.000130311 3.29559e-15 6.30286 -8.88813 0.00090311
198 1 1.57265 1.57247 7.87227 -8.90469 0.000915407
199 1 3.14502 3.55271e-15 6.30298 -8.88812 0.00102932
200 1 4.7175 1.57249 7.87245 -8.90467 0.00111392
201 1 6.28982 0 6.30309 -8.88812 0.00114271
202 1 7.86225 1.5725 7.87257 -8.90467 0.00121919
203 1 9.43458 22.0139 6.30313 -8.88812 0.0011572
204 1 11.007 1.5725 7.87254 -8.90467 0.00115435
205 1 12.5794 3.55271e-15 6.30306 -8.88812 0.0010655
206 1 14.1517 1.57248 7.87239 -8.90468 0.000972563
207 1 15.7242 2.75363e-15 6.30293 -8.88813 0.000935482
208 1 17.2966 1.57246 7.87222 -8.90469 0.000806891
209 1 18.8691 3.55271e-15 6.30284 -8.88813 0.00086246
210 1 20.4416 1.57246 7.87217 -8.90469 0.000779686
211 1 0.000138678 3.14489 6.3029 -8.88813 0.000928858
212 1 1.57269 4.71737 7.87237 -8.90468 0.00101027
213 1 3.14503 3.14491 6.30303 -8.88812 0.00108403
214 1 4.71755 4.71742 7.87261 -8.90466 0.00129513
215 1 6.28984 3.14493 6.30316 -8.88811 0.00123343
216 1 7.86227 4.71745 7.87278 -8.90465 0.00146899
217 1 9.43458 3.14494 6.30321 -8.88811 0.00125876
218 1 11.0069 4.71744 7.87274 -8.90465 0.00138171
219 1 12.5793 3.14492 6.30312 -8.88812 0.00114182
220 1 14.1517 4.7174 7.87252 -8.90467 0.00111135
221 1 15.7242 3.1449 6.30297 -8.88812 0.000975194
222 1 17.2966 4.71735 7.8723 -8.90468 0.000871909
223 1 18.8691 3.14489 6.30287 -8.88813 0.000882419
224 1 20.4416 4.71734 7.87224 -8.90469 0.000825895
225 1 0.000157073 6.28975 6.30297 -8.88812 0.000984732
226 1 1.57273 7.86219 7.87249 -8.90467 0.00112502
227 1 3.14506 6.28977 6.30314 -8.88811 0.00120645
228 1 4.7176 7.86223 7.87281 -8.90464 0.001522
229 1 6.28986 6.2898 6.30333 -8.8881 0.00143758
230 1 7.8623 7.86226 7.87304 -8.90462 0.00177709
231 1 9.43459 6.28981 6.30339 -8.88809 0.00149002
232 1 11.0069 7.86225 7.87298 -8.90462 0.00167071
233 1 12.5793 6.28979 6.30327 -8.8881 0.00131544
234 1 14.1517 7.86221 7.87269 -8.90466 0.00129396
235 1 15.7242 6.28976 6.30307 -8.88812 0.00106461
236 1 17.2966 7.86218 7.87241 -8.90468 0.000948797
237 1 18.8691 6.28974 6.30294 -8.88813 0.00092499
238 1 20.4416 7.86217 7.87233 -8.90468 0.000878938
239 1 0.000171563 9.43456 6.30303 -8.88812 0.00102803
240 1 1.57275 11.007 7.87255 -8.90467 0.00117477
241 1 3.14509 9.43457 6.30323 -8.88811 0.00130395
242 1 4.71762 11.007 7.8729 -8.90464 0.00162058
243 1 6.28989 9.43458 6.30346 -8.88809 0.00160202
244 1 7.86232 11.007 7.87316 -8.9046 0.00190916
245 1 9.43459 9.43458 6.30353 -8.88808 0.00167942
246 1 11.0069 11.007 7.8731 -8.90461 0.00179878
247 1 12.5793 9.43457 6.30339 -8.88809 0.00145803
248 1 14.1517 11.007 7.87277 -8.90465 0.00137555
249 1 15.7242 9.43456 6.30315 -8.88812 0.0011354
250 1 17.2966 11.007 7.87245 -8.90468 0.000981491
251 1 18.8691 9.43455 6.303 -8.88812 0.000957248
252 1 20.4416 11.007 7.87236 -8.90468 0.000901145
253 1 0.000171563 12.5793 6.30303 -8.88812 0.00102803
254 1 1.57273 14.1517 7.87249 -8.90467 0.00112502
255 1 3.14509 12.5793 6.30323 -8.88811 0.00130395
256 1 4.7176 14.1517 7.87281 -8.90464 0.001522
257 1 6.28989 12.5793 6.30346 -8.88809 0.00160202
258 1 7.8623 14.1516 7.87304 -8.90462 0.00177709
259 1 9.43459 12.5793 6.30353 -8.88808 0.00167942
260 1 11.0069 14.1516 7.87298 -8.90462 0.00167071
261 1 12.5793 12.5793 6.30339 -8.88809 0.00145803
262 1 14.1517 14.1517 7.87269 -8.90466 0.00129396
263 1 15.7242 12.5793 6.30315 -8.88812 0.0011354
264 1 17.2966 14.1517 7.87241 -8.90468 0.000948797
265 1 18.8691 12.5793 6.303 -8.88812 0.000957248
266 1 20.4416 14.1517 7.87233 -8.90468 0.000878938
267 1 0.000157073 15.7242 6.30297 -8.88812 0.000984732
268 1 1.57269 17.2965 7.87237 -8.90468 0.00101027
269 1 3.14506 15.7241 6.30314 -8.88811 0.00120645
270 1 4.71755 17.2965 7.87261 -8.90466 0.00129513
271 1 6.28986 15.7241 6.30333 -8.8881 0.00143758
272 1 7.86227 17.2965 7.87278 -8.90465 0.00146899
273 1 9.43459 15.7241 6.30339 -8.88809 0.00149002
274 1 11.0069 17.2965 7.87274 -8.90465 0.00138171
275 1 12.5793 15.7241 6.30327 -8.8881 0.00131544
276 1 14.1517 17.2965 7.87252 -8.90467 0.00111135
277 1 15.7242 15.7241 6.30307 -8.88812 0.00106461
278 1 17.2966 17.2965 7.8723 -8.90468 0.000871909
279 1 18.8691 15.7242 6.30294 -8.88813 0.00092499
280 1 20.4416 17.2966 7.87224 -8.90469 0.000825895
281 1 0.000138678 18.869 6.3029 -8.88813 0.000928858
282 1 1.57265 20.4414 7.87227 -8.90469 0.000915407
283 1 3.14503 18.869 6.30303 -8.88812 0.00108403
284 1 4.7175 20.4414 7.87245 -8.90467 0.00111392
285 1 6.28984 18.869 6.30316 -8.88811 0.00123343
286 1 7.86225 20.4414 7.87257 -8.90467 0.00121919
287 1 9.43458 18.869 6.30321 -8.88811 0.00125876
288 1 11.007 20.4414 7.87254 -8.90467 0.00115435
289 1 12.5793 18.869 6.30312 -8.88812 0.00114182
290 1 14.1517 20.4414 7.87239 -8.90468 0.000972563
291 1 15.7242 18.869 6.30297 -8.88812 0.000975194
292 1 17.2966 20.4414 7.87222 -8.90469 0.000806891
293 1 18.8691 18.869 6.30287 -8.88813 0.000882419
294 1 20.4416 20.4414 7.87217 -8.90469 0.000779686
295 1 0.000253869 1.30953e-14 9.44062 -8.89868 0.000717943
296 1 1.57287 1.57252 11.009 -8.9001 0.00076622
297 1 3.14519 0 9.44082 -8.89867 0.000955795
298 1 4.71774 1.57258 11.0093 -8.90009 0.00107811
299 1 6.28996 0 9.44104 -8.89866 0.00115936
300 1 7.86238 1.57261 11.0095 -8.90007 0.00121901
301 1 9.43462 1.04318e-15 9.4411 -8.89866 0.00117318
302 1 11.0069 1.5726 11.0095 -8.90008 0.00109003
303 1 12.5793 1.29439e-14 9.44096 -8.89867 0.00100173
304 1 14.1517 1.57255 11.0092 -8.90009 0.000801202
305 1 15.7241 3.20273e-15 9.44073 -8.89868 0.000766275
306 1 17.2966 1.5725 11.0089 -8.90011 0.000552195
307 1 18.8691 7.10543e-15 9.44058 -8.89868 0.000636631
308 1 20.4417 1.57249 11.0088 -8.90011 0.000526218
309 1 0.000276461 3.14494 9.44068 -8.89868 0.000765149
310 1 1.57296 4.71749 11.0092 -8.9001 0.000909357
311 1 3.14523 3.145 9.44092 -8.89867 0.00105408
312 1 4.71786 4.71762 11.0096 -8.90007 0.00125032
313 1 6.29 3.14506 9.44119 -8.89866 0.0013216
314 1 7.86246 4.71771 11.01 -8.90005 0.0014276
315 1 9.43463 3.14507 9.44127 -8.89865 0.00135477
316 1 11.0069 4.71768 11.0099 -8.90006 0.00128782
317 1 12.5793 3.14504 9.4411 -8.89866 0.00113136
318 1 14.1516 4.71756 11.0095 -8.90008 0.00094995
319 1 15.7241 3.14497 9.44081 -8.89867 0.000832137
320 1 17.2966 4.71744 11.009 -8.9001 0.000647477
321 1 18.8691 3.14493 9.44063 -8.89868 0.000670828
322 1 20.4417 4.71741 11.0089 -8.9001 0.000593796
323 1 0.000325381 6.28981 9.44081 -8.89867 0.000864141
324 1 1.57307 7.86228 11.0094 -8.90009 0.00108246
325 1 3.14531 6.28988 9.44115 -8.89866 0.00127565
326 1 4.718 7.8624 11.0101 -8.90005 0.00150433
327 1 6.29008 6.28996 9.44154 -8.89864 0.00161179
328 1 7.86256 7.86248 11.0106 -8.90005 0.0014718
329 1 9.43465 6.28998 9.44167 -8.89863 0.00167459
330 1 11.0069 7.86246 11.0105 -8.90003 0.0014478
331 1 12.5793 6.28993 9.44141 -8.89865 0.00139445
332 1 14.1516 7.86235 11.0098 -8.90006 0.0012609
333 1 15.7241 6.28985 9.441 -8.89867 0.000994246
334 1 17.2966 7.86225 11.0092 -8.90009 0.000763207
335 1 18.8691 6.2898 9.44074 -8.89867 0.000739894
336 1 20.4418 7.86222 11.009 -8.90009 0.000663756
337 1 0.000363531 9.43458 9.44091 -8.89867 0.000937423
338 1 1.57311 11.007 11.0095 -8.90008 0.00115219
339 1 3.14538 9.43462 9.44132 -8.89866 0.0014482
340 1 4.71806 11.007 11.0102 -8.90004 0.0015948
341 1 6.29014 9.43465 9.44182 -8.89862 0.00184902
342 1 7.86261 11.007 11.0109 -8.89997 0.0015358
343 1 9.43467 9.43467 9.442 -8.89859 0.00195204
344 1 11.0069 11.007 11.0107 -8.89992 0.00159891
345 1 12.5792 9.43464 9.44167 -8.89862 0.00164511
346 1 14.1515 11.007 11.01 -8.90005 0.00140329
347 1 15.7241 9.4346 9.44114 -8.89867 0.00112414
348 1 17.2966 11.007 11.0093 -8.90009 0.000809247
349 1 18.8691 9.43458 9.44083 -8.89867 0.000788269
350 1 20.4418 11.007 11.0091 -8.90009 0.000690499
351 1 0.000363531 12.5793 9.44091 -8.89867 0.000937423
352 1 1.57307 14.1516 11.0094 -8.90009 0.00108246
353 1 3.14538 12.5793 9.44132 -8.89866 0.0014482
354 1 4.718 14.1515 11.0101 -8.90005 0.00150433
355 1 6.29014 12.5792 9.44182 -8.89862 0.00184902
356 1 7.86256 14.1514 11.0106 -8.90005 0.0014718
357 1 9.43467 12.5792 9.442 -8.89859 0.00195204
358 1 11.0069 14.1514 11.0105 -8.90003 0.0014478
359 1 12.5792 12.5793 9.44167 -8.89862 0.00164511
360 1 14.1516 14.1515 11.0098 -8.90006 0.0012609
361 1 15.7241 12.5793 9.44114 -8.89867 0.00112414
362 1 17.2966 14.1517 11.0092 -8.90009 0.000763207
363 1 18.8691 12.5793 9.44083 -8.89867 0.000788269
364 1 20.4418 14.1517 11.009 -8.90009 0.000663756
365 1 0.000325381 15.7241 9.44081 -8.89867 0.000864141
366 1 1.57296 17.2964 11.0092 -8.9001 0.000909357
367 1 3.14531 15.724 9.44115 -8.89866 0.00127565
368 1 4.71786 17.2963 11.0096 -8.90007 0.00125032
369 1 6.29008 15.7239 9.44154 -8.89864 0.00161179
370 1 7.86246 17.2962 11.01 -8.90005 0.0014276
371 1 9.43465 15.7239 9.44167 -8.89863 0.00167459
372 1 11.0069 17.2962 11.0099 -8.90006 0.00128782
373 1 12.5793 15.724 9.44141 -8.89865 0.00139445
374 1 14.1516 17.2963 11.0095 -8.90008 0.00094995
375 1 15.7241 15.7241 9.441 -8.89867 0.000994246
376 1 17.2966 17.2965 11.009 -8.9001 0.000647477
377 1 18.8691 15.7241 9.44074 -8.89867 0.000739894
378 1 20.4417 17.2965 11.0089 -8.9001 0.000593796
379 1 0.000276461 18.869 9.44068 -8.89868 0.000765149
380 1 1.57287 20.4414 11.009 -8.9001 0.00076622
381 1 3.14523 18.8689 9.44092 -8.89867 0.00105408
382 1 4.71774 20.4413 11.0093 -8.90009 0.00107811
383 1 6.29 18.8688 9.44119 -8.89866 0.0013216
384 1 7.86238 20.4413 11.0095 -8.90007 0.00121901
385 1 9.43463 18.8688 9.44127 -8.89865 0.00135477
386 1 11.0069 20.4413 11.0095 -8.90008 0.00109003
387 1 12.5793 18.8689 9.4411 -8.89866 0.00113136
388 1 14.1517 20.4413 11.0092 -8.90009 0.000801202
389 1 15.7241 18.8689 9.44081 -8.89867 0.000832137
390 1 17.2966 20.4414 11.0089 -8.90011 0.000552195
391 1 18.8691 18.869 9.44063 -8.89868 0.000670828
392 1 20.4417 20.4414 11.0088 -8.90011 0.000526218
393 1 0.000454754 22.0139 12.577 -8.89868 0.000476671
394 1 3.14549 3.55271e-15 12.5774 -8.89867 0.000797611
395 1 6.2902 7.10543e-15 12.5777 -8.89866 0.00101997
396 1 9.43469 0 12.5779 -8.89865 0.000981235
397 1 12.5792 22.0139 12.5776 -8.89866 0.00074572
398 1 15.7241 22.0139 12.5772 -8.89868 0.000467745
399 1 18.8692 7.10543e-15 12.5769 -8.89868 0.000330227
400 1 0.000508496 3.14503 12.5771 -8.89867 0.000531495
401 1 3.14558 3.14517 12.5776 -8.89867 0.000863597
402 1 6.2903 3.14531 12.5781 -8.89866 0.00105337
403 1 9.43473 3.14535 12.5782 -8.89865 0.00104927
404 1 12.5792 3.14525 12.5779 -8.89867 0.0007897
405 1 15.724 3.14509 12.5774 -8.89868 0.000517859
406 1 18.8692 3.145 12.577 -8.89868 0.000369614
407 1 0.000623909 6.28991 12.5773 -8.89867 0.000645758
408 1 3.14578 6.29009 12.578 -8.89868 0.00101572
409 1 6.2905 6.29029 12.5788 -8.89868 0.000703075
410 1 9.43483 6.29035 12.579 -8.89867 0.000735951
411 1 12.5792 6.29022 12.5785 -8.8987 0.000808578
412 1 15.724 6.29001 12.5777 -8.89869 0.000741817
413 1 18.8692 6.28987 12.5772 -8.89867 0.00045067
414 1 0.000712558 9.43463 12.5775 -8.89866 0.000722639
415 1 3.14593 9.43471 12.5783 -8.89867 0.00117242
416 1 6.29067 9.43482 12.5794 -8.89863 0.000782287
417 1 9.43493 9.43487 12.5799 -8.89863 0.000844058
418 1 12.5792 9.4348 12.5791 -8.89859 0.0013876
419 1 15.724 9.43467 12.578 -8.89868 0.000988472
420 1 18.8692 9.43461 12.5773 -8.89866 0.000500696
421 1 0.000712558 12.5793 12.5775 -8.89866 0.000722639
422 1 3.14593 12.5792 12.5783 -8.89867 0.00117242
423 1 6.29067 12.5791 12.5794 -8.89863 0.000782287
424 1 9.43493 12.579 12.5799 -8.89863 0.000844058
425 1 12.5792 12.5791 12.5791 -8.89859 0.0013876
426 1 15.724 12.5792 12.578 -8.89868 0.000988472
427 1 18.8692 12.5793 12.5773 -8.89866 0.000500696
428 1 0.000623909 15.724 12.5773 -8.89867 0.000645758
429 1 3.14578 15.7238 12.578 -8.89868 0.00101572
430 1 6.2905 15.7236 12.5788 -8.89868 0.000703075
431 1 9.43483 15.7235 12.579 -8.89867 0.000735951
432 1 12.5792 15.7237 12.5785 -8.8987 0.000808578
433 1 15.724 15.7239 12.5777 -8.89869 0.000741817
434 1 18.8692 15.724 12.5772 -8.89867 0.00045067
435 1 0.000508496 18.8689 12.5771 -8.89867 0.000531495
436 1 3.14558 18.8687 12.5776 -8.89867 0.000863597
437 1 6.2903 18.8686 12.5781 -8.89866 0.00105337
438 1 9.43473 18.8686 12.5782 -8.89865 0.00104927
439 1 12.5792 18.8687 12.5779 -8.89867 0.0007897
440 1 15.724 18.8688 12.5774 -8.89868 0.000517859
441 1 18.8692 18.8689 12.577 -8.89868 0.000369614
442 1 1.57319 1.5726 14.1456 -8.90467 0.000493425
443 1 4.71811 1.57272 14.1461 -8.90466 0.00064124
444 1 7.8626 1.5728 14.1465 -8.90464 0.000698423
445 1 11.0069 1.57277 14.1464 -8.90465 0.00053737
446 1 14.1516 1.57266 14.1459 -8.90466 0.00031735
447 1 17.2966 1.57255 14.1454 -8.90466 0.000191519
448 1 20.4419 1.57253 14.1453 -8.90466 0.000222912
449 1 1.57338 4.71766 14.1459 -8.90467 0.000508319
450 1 4.71836 4.71796 14.1467 -8.90466 0.000298717
451 1 7.86281 4.71816 14.1474 -8.9047 0.000261215
452 1 11.007 4.7181 14.1472 -8.90471 0.000350704
453 1 14.1515 4.71782 14.1464 -8.9047 0.000301592
454 1 17.2966 4.71756 14.1456 -8.90468 0.000281573
455 1 20.4419 4.71749 14.1454 -8.90465 0.000283945
456 1 1.5736 7.86242 14.1462 -8.90467 0.000610386
457 1 4.71868 7.86271 14.1475 -8.9047 0.000267526
458 1 7.86309 7.86293 14.1486 -8.90481 0.00063665
459 1 11.0071 7.86289 14.1485 -8.90469 0.000859935
460 1 14.1515 7.86263 14.1472 -8.90469 0.00113683
461 1 17.2966 7.86234 14.1459 -8.90468 0.000480985
462 1 20.4421 7.86228 14.1456 -8.90464 0.000345766
463 1 1.57369 11.007 14.1464 -8.90467 0.000632749
464 1 4.71881 11.007 14.1479 -8.90468 0.000316837
465 1 7.86323 11.007 14.1494 -8.90436 0.000336053
466 1 11.0072 11.007 14.1493 -8.90387 0.00129484
467 1 14.1515 11.007 14.1476 -8.90462 0.00178153
468 1 17.2966 11.007 14.1461 -8.90468 0.000560263
469 1 20.4421 11.007 14.1457 -8.90464 0.000365316
470 1 1.5736 14.1515 14.1462 -8.90467 0.000610386
471 1 4.71868 14.1512 14.1475 -8.9047 0.000267526
472 1 7.86309 14.151 14.1486 -8.90481 0.00063665
473 1 11.0071 14.151 14.1485 -8.90469 0.000859935
474 1 14.1515 14.1513 14.1472 -8.90469 0.00113683
475 1 17.2966 14.1516 14.1459 -8.90468 0.000480985
476 1 20.4421 14.1516 14.1456 -8.90464 0.000345766
477 1 1.57338 17.2962 14.1459 -8.90467 0.000508319
478 1 4.71836 17.2959 14.1467 -8.90466 0.000298717
479 1 7.86281 17.2957 14.1474 -8.9047 0.000261215
480 1 11.007 17.2958 14.1472 -8.90471 0.000350704
481 1 14.1515 17.2961 14.1464 -8.9047 0.000301592
482 1 17.2966 17.2963 14.1456 -8.90468 0.000281573
483 1 20.4419 17.2964 14.1454 -8.90465 0.000283945
484 1 1.57319 20.4413 14.1456 -8.90467 0.000493425
485 1 4.71811 20.4412 14.1461 -8.90466 0.00064124
486 1 7.8626 20.4411 14.1465 -8.90464 0.000698423
487 1 11.0069 20.4411 14.1464 -8.90465 0.00053737
488 1 14.1516 20.4412 14.1459 -8.90466 0.00031735
489 1 17.2966 20.4413 14.1454 -8.90466 0.000191519
490 1 20.4419 20.4414 14.1453 -8.90466 0.000222912
491 1 0.00067738 7.07034e-16 15.7145 -8.88812 0.000225375
492 1 1.57344 1.57264 17.2764 -8.90294 0.000177256
493 1 3.14581 22.0139 15.715 -8.88812 0.000396016
494 1 4.71841 1.57283 17.2771 -8.90292 0.000211547
495 1 6.2905 22.0139 15.7156 -8.8881 0.000416683
496 1 7.86286 1.57295 17.2777 -8.903 0.000632393
497 1 9.43482 3.55271e-15 15.7157 -8.88808 0.000356627
498 1 11.0071 1.57289 17.2776 -8.90301 0.000678751
499 1 12.5792 3.55271e-15 15.7154 -8.8881 0.000176694
500 1 14.1516 1.57271 17.2769 -8.90298 0.000302426
501 1 15.724 22.0139 15.7148 -8.88812 7.58138e-05
502 1 17.2967 1.57257 17.2762 -8.90297 2.5406e-05
503 1 18.8693 3.55271e-15 15.7144 -8.88812 5.35218e-05
504 1 20.442 1.57253 17.2761 -8.90294 0.00010161
505 1 0.000778549 3.1451 15.7146 -8.88812 0.000231181
506 1 1.57372 4.71776 17.2768 -8.90296 2.97147e-05
507 1 3.14598 3.14536 15.7153 -8.88814 0.00027863
508 1 4.71876 4.71823 17.2781 -8.90302 0.00357633
509 1 6.29067 3.14563 15.7161 -8.88819 0.000285995
510 1 7.86323 4.71848 17.2792 -8.90317 0.010585
511 1 9.43494 3.14569 15.7164 -8.88815 0.000495064
512 1 11.0074 4.71839 17.279 -8.90312 0.00952856
513 1 12.5792 3.1455 15.7158 -8.88817 0.00030973
514 1 14.1518 4.71801 17.2777 -8.90308 0.00366879
515 1 15.724 3.14521 15.715 -8.88813 0.000114672
516 1 17.2967 4.71761 17.2766 -8.90307 0.000289329
517 1 18.8693 3.14504 15.7145 -8.88812 8.82333e-05
518 1 20.4422 4.7175 17.2763 -8.90294 0.000118979
519 1 0.000995071 6.28999 15.7149 -8.88811 0.000242086
520 1 1.57406 7.86253 17.2774 -8.90306 6.73893e-05
521 1 3.14633 6.29034 15.716 -8.88821 8.66394e-05
522 1 4.71931 7.86309 17.2796 -8.90333 0.00467735
523 1 6.29103 6.29072 15.7174 -8.88814 0.00265549
524 1 7.8639 7.8634 17.2816 -8.90452 0.0464515
525 1 9.4353 6.29083 15.718 -8.8878 0.00434177
526 1 11.0078 7.86349 17.2818 -8.90434 0.0218815
527 1 12.5794 6.29063 15.7171 -8.88804 0.00253256
528 1 14.1517 7.86319 17.2795 -8.9036 0.0044236
529 1 15.724 6.2902 15.7156 -8.88817 0.000622089
530 1 17.2969 7.86242 17.2771 -8.90313 0.00071327
531 1 18.8694 6.28992 15.7148 -8.88812 0.000188332
532 1 20.4424 7.86228 17.2765 -8.90295 0.000139194
533 1 0.00115973 9.43466 15.7152 -8.8881 0.000269748
534 1 1.57419 11.007 17.2777 -8.90309 0.000130031
535 1 3.1466 9.43484 15.7166 -8.88814 0.000257266
536 1 4.7196 11.007 17.2804 -8.90321 0.00390889
537 1 6.29145 9.43517 15.7188 -8.88783 0.00171164
538 1 7.86439 11.007 17.2842 -8.90367 0.0199967
539 1 9.43566 9.43532 15.7199 -8.88787 0.00823146
540 1 11.0076 11.007 17.2855 -8.8993 0.00284765
541 1 12.5794 9.43522 15.7188 -8.88826 0.00316767
542 1 14.1516 11.007 17.2804 -8.90341 0.00828911
543 1 15.7241 9.43478 15.7162 -8.88809 0.00158484
544 1 17.297 11.007 17.2773 -8.90312 0.000880023
545 1 18.8695 9.43462 15.715 -8.8881 0.000267381
546 1 20.4425 11.007 17.2766 -8.90298 0.000143752
547 1 0.00115973 12.5792 15.7152 -8.8881 0.000269748
548 1 1.57406 14.1514 17.2774 -8.90306 6.73893e-05
549 1 3.1466 12.5791 15.7166 -8.88814 0.000257266
550 1 4.71931 14.1508 17.2796 -8.90333 0.00467735
551 1 6.29145 12.5787 15.7188 -8.88783 0.00171164
552 1 7.8639 14.1505 17.2816 -8.90452 0.0464515
553 1 9.43566 12.5786 15.7199 -8.88787 0.00823146
554 1 11.0078 14.1504 17.2818 -8.90434 0.0218815
555 1 12.5794 12.5787 15.7188 -8.88826 0.00316767
556 1 14.1517 14.1507 17.2795 -8.9036 0.0044236
557 1 15.7241 12.5791 15.7162 -8.88809 0.00158484
558 1 17.2969 14.1515 17.2771 -8.90313 0.00071327
559 1 18.8695 12.5793 15.715 -8.8881 0.000267381
560 1 20.4424 14.1516 17.2765 -8.90295 0.000139194
561 1 0.000995071 15.7239 15.7149 -8.88811 0.000242086
562 1 1.57372 17.2961 17.2768 -8.90296 2.97147e-05
563 1 3.14633 15.7236 15.716 -8.88821 8.66394e-05
564 1 4.71876 17.2957 17.2781 -8.90302 0.00357633
565 1 6.29103 15.7232 15.7174 -8.88814 0.00265549
566 1 7.86323 17.2954 17.2792 -8.90317 0.010585
567 1 9.4353 15.7231 15.718 -8.8878 0.00434177
568 1 11.0074 17.2955 17.279 -8.90312 0.00952856
569 1 12.5794 15.7233 15.7171 -8.88804 0.00253256
570 1 14.1518 17.2959 17.2777 -8.90308 0.00366879
571 1 15.724 15.7237 15.7156 -8.88817 0.000622089
572 1 17.2967 17.2963 17.2766 -8.90307 0.000289329
573 1 18.8694 15.724 15.7148 -8.88812 0.000188332
574 1 20.4422 17.2964 17.2763 -8.90294 0.000118979
575 1 0.000778549 18.8688 15.7146 -8.88812 0.000231181
576 1 1.57344 20.4413 17.2764 -8.90294 0.000177256
577 1 3.14598 18.8685 15.7153 -8.88814 0.00027863
578 1 4.71841 20.4411 17.2771 -8.90292 0.000211547
579 1 6.29067 18.8683 15.7161 -8.88819 0.000285995
580 1 7.86286 20.441 17.2777 -8.903 0.000632393
581 1 9.43494 18.8682 15.7164 -8.88815 0.000495064
582 1 11.0071 20.441 17.2776 -8.90301 0.000678751
583 1 12.5792 18.8684 15.7158 -8.88817 0.00030973
584 1 14.1516 20.4412 17.2769 -8.90298 0.000302426
585 1 15.724 18.8687 15.715 -8.88813 0.000114672
586 1 17.2967 20.4413 17.2762 -8.90297 2.5406e-05
587 1 18.8693 18.8689 15.7145 -8.88812 8.82333e-05
588 1 20.442 20.4414 17.2761 -8.90294 0.00010161
589 1 0.00077443 3.55271e-15 18.8653 -8.93804 0.000202307
590 1 1.57326 1.57252 20.3955 -8.68374 0.000128444
591 1 3.1459 22.0139 18.8658 -8.93804 0.000103535
592 1 4.71814 1.57261 20.3962 -8.68372 0.00050048
593 1 6.29063 9.43799e-16 18.8665 -8.9381 5.51016e-07