ITEM: TIMESTEP
97
ITEM: NUMBER OF ATOMS
736
ITEM: BOX BOUNDS pp pp pp
0.0000000000000000e+00 2.2013900999999997e+01
0.0000000000000000e+00 2.2013900999999997e+01
0.0000000000000000e+00 5.3462330999999999e+01
ITEM: ATOMS id type x y z c_pot c_ke
1 1 0.000110208 1.07997e-15 0.0959264 -7.40176 3.13223e-05
2 1 1.57255 1.57244 1.6227 -8.6838 2.71378e-05
3 1 3.14499 22.0139 0.0959664 -7.40178 2.97203e-05
4 1 4.71741 1.57244 1.62277 -8.6838 2.55816e-05
5 1 6.28982 22.0139 0.0960171 -7.4018 2.9807e-05
6 1 7.86223 1.57245 1.62283 -8.68381 2.68309e-05
7 1 9.43462 22.0139 0.0960403 -7.40181 3.1544e-05
8 1 11.007 1.57245 1.62283 -8.68381 3.00178e-05
9 1 12.5794 6.44882e-16 0.0960184 -7.4018 3.36038e-05
10 1 14.1518 1.57245 1.62278 -8.68381 3.27671e-05
11 1 15.7242 8.2803e-16 0.0959682 -7.40178 3.44178e-05
12 1 17.2967 1.57244 1.62271 -8.6838 3.29263e-05
13 1 18.8691 8.27465e-16 0.0959272 -7.40176 3.34007e-05
14 1 20.4416 1.57244 1.62267 -8.6838 3.03856e-05
15 1 0.000111726 3.14488 0.0959451 -7.40177 3.19424e-05
16 1 1.57256 4.71731 1.62275 -8.6838 2.8263e-05
17 1 3.14499 3.14489 0.0959875 -7.40179 3.01581e-05
18 1 4.71742 4.71731 1.62283 -8.68381 2.65548e-05
19 1 6.28982 3.14489 0.0960424 -7.40181 3.03203e-05
20 1 7.86224 4.71732 1.6229 -8.68381 2.84153e-05
21 1 9.43462 3.14489 0.0960686 -7.40182 3.23444e-05
22 1 11.007 4.71732 1.62291 -8.68381 3.25905e-05
23 1 12.5794 3.14489 0.0960462 -7.40181 3.46909e-05
24 1 14.1518 4.71732 1.62285 -8.68381 3.5932e-05
25 1 15.7242 3.14489 0.0959923 -7.40179 3.55638e-05
26 1 17.2967 4.71731 1.62276 -8.68381 3.57729e-05
27 1 18.8691 3.14488 0.0959473 -7.40177 3.43332e-05
28 1 20.4416 4.71731 1.62272 -8.6838 3.23088e-05
29 1 0.000115134 6.28974 0.0959872 -7.40179 3.33348e-05
30 1 1.57256 7.86214 1.62281 -8.68381 2.96875e-05
31 1 3.145 6.28974 0.096035 -7.40181 3.11444e-05
32 1 4.71743 7.86215 1.62291 -8.68381 2.78281e-05
33 1 6.28983 6.28975 0.0960997 -7.40184 3.15073e-05
34 1 7.86225 7.86215 1.62299 -8.68382 3.05948e-05
35 1 9.43462 6.28975 0.0961328 -7.40185 3.42289e-05
36 1 11.007 7.86215 1.62301 -8.68382 3.61691e-05
37 1 12.5794 6.28975 0.0961093 -7.40184 3.72377e-05
38 1 14.1518 7.86215 1.62294 -8.68382 4.02304e-05
39 1 15.7242 6.28974 0.0960466 -7.40181 3.82e-05
40 1 17.2967 7.86215 1.62284 -8.68381 3.94951e-05
41 1 18.8691 6.28974 0.0959923 -7.40179 3.64411e-05
42 1 20.4416 7.86214 1.62278 -8.68381 3.4761e-05
43 1 0.000117868 9.43455 0.0960208 -7.4018 3.44516e-05
44 1 1.57256 11.007 1.62284 -8.68381 3.03296e-05
45 1 3.145 9.43455 0.0960731 -7.40182 3.19385e-05
46 1 4.71743 11.007 1.62294 -8.68382 2.84154e-05
47 1 6.28984 9.43456 0.0961459 -7.40185 3.249e-05
48 1 7.86225 11.007 1.62304 -8.68382 3.16359e-05
49 1 9.43463 9.43456 0.0961851 -7.40187 3.58244e-05
50 1 11.007 11.007 1.62305 -8.68382 3.78987e-05
51 1 12.5794 9.43456 0.0961605 -7.40185 3.93822e-05
52 1 14.1518 11.007 1.62298 -8.68382 4.22682e-05
53 1 15.7242 9.43455 0.0960904 -7.40182 4.03706e-05
54 1 17.2967 11.007 1.62287 -8.68381 4.12128e-05
55 1 18.8691 9.43455 0.0960282 -7.4018 3.81449e-05
56 1 20.4416 11.007 1.62281 -8.68381 3.58722e-05
57 1 0.000117868 12.5794 0.0960208 -7.4018 3.44516e-05
58 1 1.57256 14.1518 1.62281 -8.68381 2.96875e-05
59 1 3.145 12.5793 0.0960731 -7.40182 3.19385e-05
60 1 4.71743 14.1518 1.62291 -8.68381 2.78281e-05
61 1 6.28984 12.5793 0.0961459 -7.40185 3.249e-05
62 1 7.86225 14.1517 1.62299 -8.68382 3.05948e-05
63 1 9.43463 12.5793 0.0961851 -7.40187 3.58244e-05
64 1 11.007 14.1517 1.62301 -8.68382 3.61691e-05
65 1 12.5794 12.5793 0.0961605 -7.40185 3.93822e-05
66 1 14.1518 14.1517 1.62294 -8.68382 4.02304e-05
67 1 15.7242 12.5793 0.0960904 -7.40182 4.03706e-05
68 1 17.2967 14.1518 1.62284 -8.68381 3.94951e-05
69 1 18.8691 12.5793 0.0960282 -7.4018 3.81449e-05
70 1 20.4416 14.1518 1.62278 -8.68381 3.4761e-05
71 1 0.000115134 15.7242 0.0959872 -7.40179 3.33348e-05
72 1 1.57256 17.2966 1.62275 -8.6838 2.8263e-05
73 1 3.145 15.7242 0.096035 -7.40181 3.11444e-05
74 1 4.71742 17.2966 1.62283 -8.68381 2.65548e-05
75 1 6.28983 15.7242 0.0960997 -7.40184 3.15073e-05
76 1 7.86224 17.2966 1.6229 -8.68381 2.84153e-05
77 1 9.43462 15.7242 0.0961328 -7.40185 3.42289e-05
78 1 11.007 17.2966 1.62291 -8.68381 3.25905e-05
79 1 12.5794 15.7242 0.0961093 -7.40184 3.72377e-05
80 1 14.1518 17.2966 1.62285 -8.68381 3.5932e-05
81 1 15.7242 15.7242 0.0960466 -7.40181 3.82e-05
82 1 17.2967 17.2966 1.62276 -8.68381 3.57729e-05
83 1 18.8691 15.7242 0.0959923 -7.40179 3.64411e-05
84 1 20.4416 17.2966 1.62272 -8.6838 3.23088e-05
85 1 0.000111726 18.869 0.0959451 -7.40177 3.19424e-05
86 1 1.57255 20.4415 1.6227 -8.6838 2.71378e-05
87 1 3.14499 18.869 0.0959875 -7.40179 3.01581e-05
88 1 4.71741 20.4415 1.62277 -8.6838 2.55816e-05
89 1 6.28982 18.869 0.0960424 -7.40181 3.03203e-05
90 1 7.86223 20.4415 1.62283 -8.68381 2.68309e-05
91 1 9.43462 18.869 0.0960686 -7.40182 3.23444e-05
92 1 11.007 20.4415 1.62283 -8.68381 3.00178e-05
93 1 12.5794 18.869 0.0960462 -7.40181 3.46909e-05
94 1 14.1518 20.4415 1.62278 -8.68381 3.27671e-05
95 1 15.7242 18.869 0.0959923 -7.40179 3.55638e-05
96 1 17.2967 20.4415 1.62271 -8.6838 3.29263e-05
97 1 18.8691 18.869 0.0959473 -7.40177 3.43332e-05
98 1 20.4416 20.4415 1.62267 -8.6838 3.03856e-05
99 1 0.000120903 9.74318e-16 3.1528 -8.93808 2.61898e-05
100 1 1.57258 1.57245 4.74214 -8.90302 2.09575e-05
101 1 3.14499 22.0139 3.15285 -8.93808 2.30511e-05
102 1 4.71745 1.57245 4.74222 -8.90303 1.84781e-05
103 1 6.28984 22.0139 3.15293 -8.93807 2.27211e-05
104 1 7.86228 1.57245 4.7423 -8.90303 2.01615e-05
105 1 9.43465 22.0139 3.15297 -8.93806 2.54488e-05
106 1 11.0071 1.57246 4.74231 -8.90303 2.49127e-05
107 1 12.5795 6.09821e-16 3.15294 -8.93806 2.93035e-05
108 1 14.1519 1.57246 4.74225 -8.90303 2.92582e-05
109 1 15.7243 22.0139 3.15287 -8.93807 3.13301e-05
110 1 17.2967 1.57245 4.74216 -8.90302 2.97095e-05
111 1 18.8691 22.0139 3.1528 -8.93808 2.99014e-05
112 1 20.4416 1.57245 4.74211 -8.90302 2.59132e-05
113 1 0.000122048 3.14488 3.15283 -8.93808 2.70732e-05
114 1 1.57259 4.71732 4.7422 -8.90303 2.22727e-05
115 1 3.145 3.14488 3.15289 -8.93807 2.3616e-05
116 1 4.71746 4.71733 4.7423 -8.90303 1.97301e-05
117 1 6.28984 3.14488 3.15297 -8.93806 2.34805e-05
118 1 7.8623 4.71734 4.74241 -8.90303 2.26722e-05
119 1 9.43466 3.14489 3.15302 -8.93806 2.68102e-05
120 1 11.0071 4.71735 4.74243 -8.90303 2.92948e-05
121 1 12.5795 3.14489 3.15299 -8.93806 3.12567e-05
122 1 14.1519 4.71734 4.74236 -8.90302 3.46008e-05
123 1 15.7243 3.14489 3.15291 -8.93807 3.33605e-05
124 1 17.2967 4.71733 4.74225 -8.90302 3.41598e-05
125 1 18.8691 3.14488 3.15284 -8.93808 3.14251e-05
126 1 20.4416 4.71732 4.74218 -8.90302 2.85315e-05
127 1 0.000124653 6.28973 3.1529 -8.93807 2.90955e-05
128 1 1.5726 7.86215 4.74229 -8.90303 2.3974e-05
129 1 3.14501 6.28973 3.15296 -8.93806 2.49291e-05
130 1 4.71748 7.86216 4.74241 -8.90303 2.14672e-05
131 1 6.28985 6.28974 3.15307 -8.93805 2.53566e-05
132 1 7.86231 7.86217 4.74254 -8.90302 2.64813e-05
133 1 9.43466 6.28975 3.15313 -8.93804 3.02786e-05
134 1 11.0071 7.86218 4.74259 -8.90302 3.60951e-05
135 1 12.5795 6.28975 3.1531 -8.93804 3.61857e-05
136 1 14.1519 7.86217 4.74251 -8.90302 4.25258e-05
137 1 15.7243 6.28974 3.15301 -8.93805 3.82989e-05
138 1 17.2967 7.86216 4.74236 -8.90302 4.02627e-05
139 1 18.8691 6.28973 3.15291 -8.93807 3.49839e-05
140 1 20.4416 7.86215 4.74227 -8.90303 3.19509e-05
141 1 0.00012677 9.43455 3.15295 -8.93806 3.07571e-05
142 1 1.5726 11.007 4.74233 -8.90303 2.47537e-05
143 1 3.14501 9.43455 3.15303 -8.93805 2.6024e-05
144 1 4.71749 11.007 4.74246 -8.90303 2.2299e-05
145 1 6.28986 9.43455 3.15315 -8.93804 2.70183e-05
146 1 7.86232 11.007 4.74261 -8.90302 2.84168e-05
147 1 9.43467 9.43456 3.15322 -8.93802 3.34773e-05
148 1 11.0071 11.007 4.74266 -8.90301 3.96347e-05
149 1 12.5795 9.43456 3.1532 -8.93802 4.06912e-05
150 1 14.1519 11.007 4.74257 -8.90301 4.65018e-05
151 1 15.7243 9.43455 3.15309 -8.93804 4.26182e-05
152 1 17.2967 11.007 4.74241 -8.90302 4.31701e-05
153 1 18.8691 9.43455 3.15298 -8.93806 3.79709e-05
154 1 20.4416 11.007 4.74231 -8.90303 3.35279e-05
155 1 0.00012677 12.5794 3.15295 -8.93806 3.07571e-05
156 1 1.5726 14.1517 4.74229 -8.90303 2.3974e-05
157 1 3.14501 12.5794 3.15303 -8.93805 2.6024e-05
158 1 4.71748 14.1517 4.74241 -8.90303 2.14672e-05
159 1 6.28986 12.5793 3.15315 -8.93804 2.70183e-05
160 1 7.86231 14.1517 4.74254 -8.90302 2.64813e-05
161 1 9.43467 12.5793 3.15322 -8.93802 3.34773e-05
162 1 11.0071 14.1517 4.74259 -8.90302 3.60951e-05
163 1 12.5795 12.5793 3.1532 -8.93802 4.06912e-05
164 1 14.1519 14.1517 4.74251 -8.90302 4.25258e-05
165 1 15.7243 12.5793 3.15309 -8.93804 4.26182e-05
166 1 17.2967 14.1517 4.74236 -8.90302 4.02627e-05
167 1 18.8691 12.5794 3.15298 -8.93806 3.79709e-05
168 1 20.4416 14.1517 4.74227 -8.90303 3.19509e-05
169 1 0.000124653 15.7242 3.1529 -8.93807 2.90955e-05
170 1 1.57259 17.2966 4.7422 -8.90303 2.22727e-05
171 1 3.14501 15.7242 3.15296 -8.93806 2.49291e-05
172 1 4.71746 17.2966 4.7423 -8.90303 1.97301e-05
173 1 6.28985 15.7242 3.15307 -8.93805 2.53566e-05
174 1 7.8623 17.2966 4.74241 -8.90303 2.26722e-05
175 1 9.43466 15.7242 3.15313 -8.93804 3.02786e-05
176 1 11.0071 17.2966 4.74243 -8.90303 2.92948e-05
177 1 12.5795 15.7242 3.1531 -8.93804 3.61857e-05
178 1 14.1519 17.2966 4.74236 -8.90302 3.46008e-05
179 1 15.7243 15.7242 3.15301 -8.93805 3.82989e-05
180 1 17.2967 17.2966 4.74225 -8.90302 3.41598e-05
181 1 18.8691 15.7242 3.15291 -8.93807 3.49839e-05
182 1 20.4416 17.2966 4.74218 -8.90302 2.85315e-05
183 1 0.000122048 18.869 3.15283 -8.93808 2.70732e-05
184 1 1.57258 20.4415 4.74214 -8.90302 2.09575e-05
185 1 3.145 18.869 3.15289 -8.93807 2.3616e-05
186 1 4.71745 20.4415 4.74222 -8.90303 1.84781e-05
187 1 6.28984 18.869 3.15297 -8.93806 2.34805e-05
188 1 7.86228 20.4414 4.7423 -8.90303 2.01615e-05
189 1 9.43466 18.869 3.15302 -8.93806 2.68102e-05
190 1 11.0071 20.4414 4.74231 -8.90303 2.49127e-05
191 1 12.5795 18.869 3.15299 -8.93806 3.12567e-05
192 1 14.1519 20.4414 4.74225 -8.90303 2.92582e-05
193 1 15.7243 18.869 3.15291 -8.93807 3.33605e-05
194 1 17.2967 20.4414 4.74216 -8.90302 2.97095e-05
195 1 18.8691 18.869 3.15284 -8.93808 3.14251e-05
196 1 20.4416 20.4415 4.74211 -8.90302 2.59132e-05
197 1 0.000168413 7.43076e-16 6.30385 -8.88813 1.91141e-05
198 1 1.57266 1.57247 7.87309 -8.90469 1.2506e-05
199 1 3.14507 8.51203e-16 6.30391 -8.88813 1.39651e-05
200 1 4.71756 1.57247 7.8732 -8.90468 8.27953e-06
201 1 6.28993 5.18397e-16 6.30402 -8.88813 1.31539e-05
202 1 7.8624 1.57249 7.87333 -8.90468 1.04335e-05
203 1 9.43473 22.0139 6.30408 -8.88812 1.72373e-05
204 1 11.0072 1.5725 7.87337 -8.90468 1.77694e-05
205 1 12.5795 1.29872e-15 6.30406 -8.88812 2.34556e-05
206 1 14.1519 1.5725 7.8733 -8.90468 2.51901e-05
207 1 15.7243 8.97343e-16 6.30397 -8.88812 2.70582e-05
208 1 17.2968 1.57249 7.87317 -8.90468 2.64939e-05
209 1 18.8692 1.00445e-15 6.30387 -8.88813 2.50355e-05
210 1 20.4416 1.57247 7.87308 -8.90469 2.05215e-05
211 1 0.000168826 3.14491 6.3039 -8.88813 2.03331e-05
212 1 1.57267 4.71737 7.8732 -8.90468 1.41685e-05
213 1 3.14507 3.14491 6.30397 -8.88813 1.4572e-05
214 1 4.71759 4.71739 7.87334 -8.90469 9.70182e-06
215 1 6.28994 3.14492 6.30409 -8.88813 1.42274e-05
216 1 7.86243 4.71742 7.87352 -8.90468 1.48619e-05
217 1 9.43474 3.14494 6.30417 -8.88812 1.96765e-05
218 1 11.0072 4.71745 7.8736 -8.90467 2.76197e-05
219 1 12.5795 3.14494 6.30415 -8.88812 2.73014e-05
220 1 14.1519 4.71745 7.87352 -8.90467 3.81647e-05
221 1 15.7243 3.14493 6.30404 -8.88812 3.1034e-05
222 1 17.2967 4.71742 7.87333 -8.90468 3.65802e-05
223 1 18.8692 3.14492 6.30393 -8.88813 2.76965e-05
224 1 20.4416 4.71738 7.87319 -8.90468 2.5367e-05
225 1 0.00016993 6.28976 6.304 -8.88812 2.32169e-05
226 1 1.57268 7.86219 7.87334 -8.90468 1.65213e-05
227 1 3.14509 6.28977 6.30409 -8.88812 1.60895e-05
228 1 4.71762 7.86221 7.87353 -8.90468 1.2081e-05
229 1 6.28996 6.28979 6.30425 -8.88812 1.72683e-05
230 1 7.86247 7.86225 7.87379 -8.90466 2.35475e-05
231 1 9.43476 6.28981 6.30437 -8.88811 2.69653e-05
232 1 11.0072 7.86228 7.87394 -8.90463 4.76404e-05
233 1 12.5795 6.28982 6.30436 -8.88811 3.85637e-05
234 1 14.1519 7.86227 7.87383 -8.90464 6.20409e-05
235 1 15.7243 6.28981 6.30422 -8.88811 4.17736e-05
236 1 17.2967 7.86223 7.87355 -8.90467 5.21774e-05
237 1 18.8692 6.28978 6.30406 -8.88812 3.42499e-05
238 1 20.4416 7.8622 7.87334 -8.90468 3.21912e-05
239 1 0.000170927 9.43456 6.30409 -8.88812 2.56759e-05
240 1 1.57268 11.007 7.8734 -8.90468 1.76685e-05
241 1 3.14511 9.43457 6.30418 -8.88812 1.74393e-05
242 1 4.71764 11.007 7.87361 -8.90467 1.33453e-05
243 1 6.28999 9.43458 6.30439 -8.88811 2.02954e-05
244 1 7.86248 11.007 7.87393 -8.90464 2.86543e-05
245 1 9.43477 9.43459 6.30456 -8.88809 3.48875e-05
246 1 11.0072 11.007 7.87411 -8.90459 5.99498e-05
247 1 12.5795 9.43459 6.30455 -8.88808 5.05829e-05
248 1 14.1519 11.007 7.87397 -8.90462 7.55183e-05
249 1 15.7243 9.43458 6.30437 -8.8881 5.20968e-05
250 1 17.2967 11.007 7.87364 -8.90466 6.01373e-05
251 1 18.8691 9.43457 6.30416 -8.88812 4.00382e-05
252 1 20.4416 11.007 7.87341 -8.90468 3.54959e-05
253 1 0.000170927 12.5793 6.30409 -8.88812 2.56759e-05
254 1 1.57268 14.1517 7.87334 -8.90468 1.65213e-05
255 1 3.14511 12.5793 6.30418 -8.88812 1.74393e-05
256 1 4.71762 14.1517 7.87353 -8.90468 1.2081e-05
257 1 6.28999 12.5793 6.30439 -8.88811 2.02954e-05
258 1 7.86247 14.1517 7.87379 -8.90466 2.35475e-05
259 1 9.43477 12.5793 6.30456 -8.88809 3.48875e-05
260 1 11.0072 14.1516 7.87394 -8.90463 4.76404e-05
261 1 12.5795 12.5793 6.30455 -8.88808 5.05829e-05
262 1 14.1519 14.1516 7.87383 -8.90464 6.20409e-05
263 1 15.7243 12.5793 6.30437 -8.8881 5.20968e-05
264 1 17.2967 14.1517 7.87355 -8.90467 5.21774e-05
265 1 18.8691 12.5793 6.30416 -8.88812 4.00382e-05
266 1 20.4416 14.1517 7.87334 -8.90468 3.21912e-05
267 1 0.00016993 15.7241 6.304 -8.88812 2.32169e-05
268 1 1.57267 17.2965 7.8732 -8.90468 1.41685e-05
269 1 3.14509 15.7241 6.30409 -8.88812 1.60895e-05
270 1 4.71759 17.2965 7.87334 -8.90469 9.70182e-06
271 1 6.28996 15.7241 6.30425 -8.88812 1.72683e-05
272 1 7.86243 17.2965 7.87352 -8.90468 1.48619e-05
273 1 9.43476 15.7241 6.30437 -8.88811 2.69653e-05
274 1 11.0072 17.2964 7.8736 -8.90467 2.76197e-05
275 1 12.5795 15.7241 6.30436 -8.88811 3.85637e-05
276 1 14.1519 17.2965 7.87352 -8.90467 3.81647e-05
277 1 15.7243 15.7241 6.30422 -8.88811 4.17736e-05
278 1 17.2967 17.2965 7.87333 -8.90468 3.65802e-05
279 1 18.8692 15.7241 6.30406 -8.88812 3.42499e-05
280 1 20.4416 17.2965 7.87319 -8.90468 2.5367e-05
281 1 0.000168826 18.869 6.3039 -8.88813 2.03331e-05
282 1 1.57266 20.4414 7.87309 -8.90469 1.2506e-05
283 1 3.14507 18.869 6.30397 -8.88813 1.4572e-05
284 1 4.71756 20.4414 7.8732 -8.90468 8.27953e-06
285 1 6.28994 18.869 6.30409 -8.88813 1.42274e-05
286 1 7.8624 20.4414 7.87333 -8.90468 1.04335e-05
287 1 9.43474 18.869 6.30417 -8.88812 1.96765e-05
288 1 11.0072 20.4414 7.87337 -8.90468 1.77694e-05
289 1 12.5795 18.869 6.30415 -8.88812 2.73014e-05
290 1 14.1519 20.4414 7.8733 -8.90468 2.51901e-05
291 1 15.7243 18.869 6.30404 -8.88812 3.1034e-05
292 1 17.2968 20.4414 7.87317 -8.90468 2.64939e-05
293 1 18.8692 18.869 6.30393 -8.88813 2.76965e-05
294 1 20.4416 20.4414 7.87308 -8.90469 2.05215e-05
295 1 0.000221882 2.43258e-16 9.44131 -8.89867 1.33463e-05
296 1 1.57272 1.57249 11.0094 -8.9001 8.45594e-06
297 1 3.14516 4.17025e-16 9.44138 -8.89867 5.5098e-06
298 1 4.71767 1.5725 11.0095 -8.90011 1.57212e-06
299 1 6.29005 5.75836e-16 9.44153 -8.89867 3.43584e-06
300 1 7.86255 1.57253 11.0097 -8.9001 1.80777e-06
301 1 9.43486 2.12141e-16 9.44165 -8.89866 8.09317e-06
302 1 11.0073 1.57257 11.0099 -8.9001 1.03289e-05
303 1 12.5796 1.16364e-15 9.44165 -8.89866 1.70481e-05
304 1 14.152 1.57258 11.0098 -8.9001 2.30484e-05
305 1 15.7244 7.96969e-16 9.44152 -8.89867 2.37823e-05
306 1 17.2968 1.57255 11.0096 -8.90011 2.79308e-05
307 1 18.8692 6.32715e-16 9.44137 -8.89867 2.19515e-05
308 1 20.4417 1.57251 11.0094 -8.90011 2.00056e-05
309 1 0.00021623 3.14495 9.44139 -8.89867 1.55481e-05
310 1 1.57272 4.71743 11.0096 -8.90011 1.20321e-05
311 1 3.14517 3.14495 9.44146 -8.89867 6.09228e-06
312 1 4.71772 4.71746 11.0098 -8.90013 2.59115e-06
313 1 6.29008 3.14499 9.44165 -8.89867 4.57293e-06
314 1 7.8626 4.71756 11.0101 -8.90012 8.38628e-06
315 1 9.43487 3.14503 9.44181 -8.89867 1.2459e-05
316 1 11.0073 4.71766 11.0103 -8.9001 3.68683e-05
317 1 12.5796 3.14506 9.44182 -8.89867 2.60591e-05
318 1 14.1519 4.71767 11.0102 -8.9001 6.50634e-05
319 1 15.7243 3.14504 9.44167 -8.89867 3.38217e-05
320 1 17.2967 4.71758 11.0099 -8.90011 5.89329e-05
321 1 18.8692 3.14499 9.44148 -8.89867 2.80718e-05
322 1 20.4416 4.71747 11.0096 -8.90011 3.28803e-05
323 1 0.000204468 6.28983 9.44157 -8.89867 2.13306e-05
324 1 1.57273 7.86225 11.0098 -8.9001 1.78227e-05
325 1 3.14521 6.28983 9.44167 -8.89867 7.86748e-06
326 1 4.71779 7.86229 11.0101 -8.90011 5.02107e-06
327 1 6.29014 6.28989 9.44195 -8.89869 9.04812e-06
328 1 7.86269 7.86242 11.0107 -8.90012 3.15776e-05
329 1 9.43491 6.28997 9.44224 -8.89867 3.08546e-05
330 1 11.0073 7.86252 11.0112 -8.90003 0.000123339
331 1 12.5795 6.29 9.44229 -8.89866 6.13753e-05
332 1 14.1517 7.86251 11.011 -8.90003 0.000174062
333 1 15.7242 6.28996 9.44205 -8.89867 6.70459e-05
334 1 17.2965 7.86239 11.0104 -8.90009 0.000117103
335 1 18.8691 6.28988 9.44172 -8.89867 4.50956e-05
336 1 20.4415 7.86228 11.0099 -8.9001 5.36047e-05
337 1 0.000195449 9.43459 9.44171 -8.89866 2.67598e-05
338 1 1.57274 11.007 11.0099 -8.9001 2.09159e-05
339 1 3.14524 9.4346 9.44184 -8.89867 9.73303e-06
340 1 4.71782 11.007 11.0103 -8.90009 6.71637e-06
341 1 6.29019 9.43463 9.44223 -8.89867 1.49135e-05
342 1 7.86273 11.007 11.0111 -8.90004 5.00214e-05
343 1 9.43494 9.43467 9.44268 -8.89858 5.88505e-05
344 1 11.0072 11.007 11.0117 -8.89976 0.000192411
345 1 12.5795 9.43469 9.44276 -8.89854 0.000111767
346 1 14.1516 11.007 11.0114 -8.89998 0.000245962
347 1 15.7242 9.43466 9.44237 -8.89865 0.000104734
348 1 17.2964 11.007 11.0106 -8.90008 0.000149567
349 1 18.8691 9.43462 9.44191 -8.89867 6.17079e-05
350 1 20.4415 11.007 11.01 -8.9001 6.43949e-05
351 1 0.000195449 12.5793 9.44171 -8.89866 2.67598e-05
352 1 1.57273 14.1517 11.0098 -8.9001 1.78227e-05
353 1 3.14524 12.5793 9.44184 -8.89867 9.73303e-06
354 1 4.71779 14.1516 11.0101 -8.90011 5.02107e-06
355 1 6.29019 12.5793 9.44223 -8.89867 1.49135e-05
356 1 7.86269 14.1515 11.0107 -8.90012 3.15776e-05
357 1 9.43494 12.5792 9.44268 -8.89858 5.88505e-05
358 1 11.0073 14.1514 11.0112 -8.90003 0.000123339
359 1 12.5795 12.5792 9.44276 -8.89854 0.000111767
360 1 14.1517 14.1514 11.011 -8.90003 0.000174062
361 1 15.7242 12.5792 9.44237 -8.89865 0.000104734
362 1 17.2965 14.1515 11.0104 -8.90009 0.000117103
363 1 18.8691 12.5793 9.44191 -8.89867 6.17079e-05
364 1 20.4415 14.1516 11.0099 -8.9001 5.36047e-05
365 1 0.000204468 15.7241 9.44157 -8.89867 2.13306e-05
366 1 1.57272 17.2965 11.0096 -8.90011 1.20321e-05
367 1 3.14521 15.7241 9.44167 -8.89867 7.86748e-06
368 1 4.71772 17.2964 11.0098 -8.90013 2.59115e-06
369 1 6.29014 15.724 9.44195 -8.89869 9.04812e-06
370 1 7.8626 17.2963 11.0101 -8.90012 8.38628e-06
371 1 9.43491 15.7239 9.44224 -8.89867 3.08546e-05
372 1 11.0073 17.2962 11.0103 -8.9001 3.68683e-05
373 1 12.5795 15.7239 9.44229 -8.89866 6.13753e-05
374 1 14.1519 17.2962 11.0102 -8.9001 6.50634e-05
375 1 15.7242 15.7239 9.44205 -8.89867 6.70459e-05
376 1 17.2967 17.2963 11.0099 -8.90011 5.89329e-05
377 1 18.8691 15.724 9.44172 -8.89867 4.50956e-05
378 1 20.4416 17.2964 11.0096 -8.90011 3.28803e-05
379 1 0.00021623 18.8689 9.44139 -8.89867 1.55481e-05
380 1 1.57272 20.4414 11.0094 -8.9001 8.45594e-06
381 1 3.14517 18.8689 9.44146 -8.89867 6.09228e-06
382 1 4.71767 20.4414 11.0095 -8.90011 1.57212e-06
383 1 6.29008 18.8689 9.44165 -8.89867 4.57293e-06
384 1 7.86255 20.4414 11.0097 -8.9001 1.80777e-06
385 1 9.43487 18.8689 9.44181 -8.89867 1.2459e-05
386 1 11.0073 20.4413 11.0099 -8.9001 1.03289e-05
387 1 12.5796 18.8688 9.44182 -8.89867 2.60591e-05
388 1 14.152 20.4413 11.0098 -8.9001 2.30484e-05
389 1 15.7243 18.8689 9.44167 -8.89867 3.38217e-05
390 1 17.2968 20.4414 11.0096 -8.90011 2.79308e-05
391 1 18.8692 18.8689 9.44148 -8.89867 2.80718e-05
392 1 20.4417 20.4414 11.0094 -8.90011 2.00056e-05
393 1 0.000237303 22.0139 12.5774 -8.89866 1.65385e-05
394 1 3.14521 5.36648e-16 12.5774 -8.89865 6.70934e-06
395 1 6.29017 7.16995e-16 12.5776 -8.89866 1.09291e-06
396 1 9.43501 1.68081e-16 12.5778 -8.89865 8.23555e-07
397 1 12.5797 22.0139 12.5779 -8.89865 1.0081e-05
398 1 15.7244 22.0139 12.5777 -8.89866 2.37992e-05
399 1 18.8692 1.12108e-15 12.5775 -8.89867 2.62382e-05
400 1 0.000207033 3.145 12.5775 -8.89866 2.29509e-05
401 1 3.14522 3.14497 12.5776 -8.89865 8.7987e-06
402 1 6.2902 3.14504 12.5778 -8.89868 1.27891e-06
403 1 9.43503 3.14516 12.5781 -8.89868 7.77502e-06
404 1 12.5797 3.14525 12.5782 -8.89868 3.52724e-05
405 1 15.7243 3.14522 12.578 -8.89869 5.53338e-05
406 1 18.8691 3.1451 12.5777 -8.89869 4.42089e-05
407 1 0.0001436 6.2899 12.5778 -8.89867 4.19116e-05
408 1 3.14526 6.28989 12.5779 -8.89868 1.4033e-05
409 1 6.2903 6.29002 12.5784 -8.89878 4.47845e-06
410 1 9.43507 6.29024 12.579 -8.89874 6.42223e-05
411 1 12.5795 6.29038 12.5793 -8.89871 0.000183528
412 1 15.724 6.29028 12.5788 -8.89877 0.000189603
413 1 18.8689 6.29004 12.5781 -8.89871 0.000102959
414 1 9.41697e-05 9.43463 12.578 -8.89866 6.15594e-05
415 1 3.1453 9.43463 12.5782 -8.89866 1.94014e-05
416 1 6.29041 9.43472 12.579 -8.8987 1.48732e-05
417 1 9.43512 9.4349 12.5803 -8.89851 0.000206319
418 1 12.5792 9.43496 12.5807 -8.89826 0.00049261
419 1 15.7237 9.43483 12.5796 -8.89869 0.000377647
420 1 18.8688 9.4347 12.5785 -8.89869 0.000167855
421 1 9.41697e-05 12.5793 12.578 -8.89866 6.15594e-05
422 1 3.1453 12.5793 12.5782 -8.89866 1.94014e-05
423 1 6.29041 12.5792 12.579 -8.8987 1.48732e-05
424 1 9.43512 12.579 12.5803 -8.89851 0.000206319
425 1 12.5792 12.5789 12.5807 -8.89826 0.00049261
426 1 15.7237 12.5791 12.5796 -8.89869 0.000377647
427 1 18.8688 12.5792 12.5785 -8.89869 0.000167855
428 1 0.0001436 15.724 12.5778 -8.89867 4.19116e-05
429 1 3.14526 15.724 12.5779 -8.89868 1.4033e-05
430 1 6.2903 15.7239 12.5784 -8.89878 4.47845e-06
431 1 9.43507 15.7237 12.579 -8.89874 6.42223e-05
432 1 12.5795 15.7235 12.5793 -8.89871 0.000183528
433 1 15.724 15.7236 12.5788 -8.89877 0.000189603
434 1 18.8689 15.7239 12.5781 -8.89871 0.000102959
435 1 0.000207033 18.8689 12.5775 -8.89866 2.29509e-05
436 1 3.14522 18.8689 12.5776 -8.89865 8.7987e-06
437 1 6.2902 18.8689 12.5778 -8.89868 1.27891e-06
438 1 9.43503 18.8687 12.5781 -8.89868 7.77502e-06
439 1 12.5797 18.8687 12.5782 -8.89868 3.52724e-05
440 1 15.7243 18.8687 12.578 -8.89869 5.53338e-05
441 1 18.8691 18.8688 12.5777 -8.89869 4.42089e-05
442 1 1.57268 1.57248 14.1456 -8.90466 2.22408e-05
443 1 4.71769 1.57247 14.1457 -8.90466 1.30031e-05
444 1 7.86266 1.57254 14.146 -8.90466 2.95129e-06
445 1 11.0075 1.57264 14.1462 -8.90465 5.36182e-06
446 1 14.1521 1.57269 14.1462 -8.90465 2.79912e-05
447 1 17.2968 1.57264 14.1459 -8.90468 4.33576e-05
448 1 20.4416 1.57255 14.1457 -8.90468 3.53077e-05
449 1 1.57264 4.71743 14.1458 -8.90467 3.88883e-05
450 1 4.7177 4.71743 14.146 -8.90468 1.81325e-05
451 1 7.86271 4.71766 14.1466 -8.90475 8.64802e-06
452 1 11.0074 4.71796 14.1471 -8.90473 9.17484e-05
453 1 14.1518 4.71807 14.1471 -8.90472 0.000192904
454 1 17.2965 4.71785 14.1465 -8.90473 0.0001532
455 1 20.4415 4.71758 14.146 -8.90469 7.72233e-05
456 1 1.5726 7.86227 14.1462 -8.90465 6.58414e-05
457 1 4.71781 7.86234 14.1466 -8.90473 2.23881e-05
458 1 7.86288 7.8627 14.1479 -8.90508 8.32309e-05
459 1 11.0071 7.86308 14.1493 -8.90466 0.000581545
460 1 14.151 7.86313 14.149 -8.90485 0.000806611
461 1 17.2959 7.86268 14.1474 -8.90474 0.000408473
462 1 20.4412 7.86239 14.1464 -8.90467 0.000154922
463 1 1.57259 11.007 14.1463 -8.90465 8.04509e-05
464 1 4.71786 11.007 14.147 -8.90471 2.58762e-05
465 1 7.86291 11.007 14.1489 -8.9045 0.000178418
466 1 11.0069 11.007 14.1511 -8.90219 0.00108876
467 1 14.1506 11.007 14.15 -8.9045 0.00128857
468 1 17.2957 11.007 14.1478 -8.90472 0.000564082
469 1 20.4411 11.007 14.1466 -8.90466 0.000197992
470 1 1.5726 14.1516 14.1462 -8.90465 6.58414e-05
471 1 4.71781 14.1516 14.1466 -8.90473 2.23881e-05
472 1 7.86288 14.1512 14.1479 -8.90508 8.32309e-05
473 1 11.0071 14.1508 14.1493 -8.90466 0.000581545
474 1 14.151 14.1508 14.149 -8.90485 0.000806611
475 1 17.2959 14.1512 14.1474 -8.90474 0.000408473
476 1 20.4412 14.1515 14.1464 -8.90467 0.000154922
477 1 1.57264 17.2965 14.1458 -8.90467 3.88883e-05
478 1 4.7177 17.2965 14.146 -8.90468 1.81325e-05
479 1 7.86271 17.2962 14.1466 -8.90475 8.64802e-06
480 1 11.0074 17.2959 14.1471 -8.90473 9.17484e-05
481 1 14.1518 17.2958 14.1471 -8.90472 0.000192904
482 1 17.2965 17.2961 14.1465 -8.90473 0.0001532
483 1 20.4415 17.2963 14.146 -8.90469 7.72233e-05
484 1 1.57268 20.4414 14.1456 -8.90466 2.22408e-05
485 1 4.71769 20.4414 14.1457 -8.90466 1.30031e-05
486 1 7.86266 20.4414 14.146 -8.90466 2.95129e-06
487 1 11.0075 20.4413 14.1462 -8.90465 5.36182e-06
488 1 14.1521 20.4412 14.1462 -8.90465 2.79912e-05
489 1 17.2968 20.4413 14.1459 -8.90468 4.33576e-05
490 1 20.4416 20.4414 14.1457 -8.90468 3.53077e-05
491 1 0.000187846 8.73891e-16 15.7147 -8.88811 3.65607e-05
492 1 1.57252 1.5724 17.2764 -8.90302 6.05771e-05
493 1 3.14511 22.0139 15.7147 -8.88807 3.0519e-05
494 1 4.71741 1.57225 17.2764 -8.90299 6.18468e-05
495 1 6.29014 22.0139 15.7149 -8.8881 2.13778e-05
496 1 7.86257 1.57232 17.2767 -8.90303 3.19822e-05
497 1 9.43512 3.44357e-16 15.7152 -8.88807 4.19838e-06
498 1 11.0076 1.57256 17.277 -8.90298 1.24178e-05
499 1 12.5799 5.37363e-16 15.7153 -8.88807 4.90601e-06
500 1 14.1523 1.57275 17.277 -8.90289 4.87721e-05
501 1 15.7245 22.0139 15.7151 -8.8881 3.01318e-05
502 1 17.2968 1.5727 17.2767 -8.90299 7.63647e-05
503 1 18.8692 1.33097e-15 15.7148 -8.88814 4.32833e-05
504 1 20.4416 1.57254 17.2764 -8.90302 6.68264e-05
505 1 8.8197e-05 3.14499 15.7148 -8.88811 5.77815e-05
506 1 1.57226 4.71723 17.2766 -8.90298 0.000132264
507 1 3.14505 3.14484 15.7148 -8.88806 4.5844e-05
508 1 4.71707 4.71686 17.2766 -8.90282 0.000102672
509 1 6.29011 3.14487 15.7151 -8.88816 2.49869e-05
510 1 7.86241 4.71716 17.2773 -8.90323 3.9878e-05
511 1 9.43509 3.14514 15.7156 -8.88811 1.24841e-05
512 1 11.0073 4.71801 17.2783 -8.90314 0.000279582
513 1 12.5797 3.14543 15.7158 -8.8881 7.72177e-05
514 1 14.1515 4.71856 17.2784 -8.90316 0.000646917
515 1 15.7243 3.14544 15.7156 -8.88818 0.00012561
516 1 17.2961 4.71816 17.2776 -8.90317 0.000434522
517 1 18.8691 3.14521 15.7151 -8.88818 9.34993e-05
518 1 20.4412 4.7176 17.2768 -8.90304 0.000185203
519 1 -0.000119443 6.28991 15.7152 -8.88813 0.000126314
520 1 1.57207 7.86215 17.2769 -8.90297 0.000260332
521 1 3.14499 6.28977 15.7152 -8.88815 8.53384e-05
522 1 4.71706 7.86207 17.2774 -8.90319 0.000205693
523 1 6.29007 6.28986 15.7157 -8.88819 2.66397e-05
524 1 7.86222 7.86258 17.2792 -8.90543 0.000392453
525 1 9.435 6.29046 15.7172 -8.88796 0.000210671
526 1 11.006 7.86411 17.2833 -8.90439 0.00281443
527 1 12.5791 6.29102 15.7179 -8.88791 0.000747399
528 1 14.149 7.86444 17.2824 -8.90466 0.00383517
529 1 15.7235 6.29078 15.717 -8.88828 0.000654468
530 1 17.2948 7.86317 17.279 -8.90328 0.00139388
531 1 18.8686 6.29024 15.7158 -8.88824 0.000287352
532 1 20.4407 7.86246 17.2774 -8.90297 0.000438454
533 1 -0.000280443 9.43464 15.7155 -8.88809 0.000203302
534 1 1.57199 11.007 17.2772 -8.90298 0.000330177
535 1 3.14501 9.4346 15.7157 -8.88806 0.000123049
536 1 4.71706 11.007 17.278 -8.90313 0.000270456
537 1 6.29022 9.43479 15.717 -8.88782 6.14537e-05
538 1 7.86212 11.007 17.2825 -8.90439 0.000779015
539 1 9.4351 9.43555 15.7209 -8.88914 0.00095935
540 1 11.0041 11.007 17.2929 -8.88741 0.00363011
541 1 12.5775 9.43596 15.7225 -8.88826 0.00257276
542 1 14.1472 11.007 17.2855 -8.90333 0.00646948
543 1 15.7224 9.4352 15.7187 -8.88798 0.00161753
544 1 17.2941 11.007 17.2798 -8.90299 0.00202957
545 1 18.8681 9.43481 15.7164 -8.88815 0.000539819
546 1 20.4404 11.007 17.2776 -8.90293 0.000585775
547 1 -0.000280443 12.5793 15.7155 -8.88809 0.000203302
548 1 1.57207 14.1518 17.2769 -8.90297 0.000260332
549 1 3.14501 12.5793 15.7157 -8.88806 0.000123049
550 1 4.71706 14.1518 17.2774 -8.90319 0.000205693
551 1 6.29022 12.5791 15.717 -8.88782 6.14537e-05
552 1 7.86222 14.1513 17.2792 -8.90543 0.000392453
553 1 9.4351 12.5783 15.7209 -8.88914 0.00095935
554 1 11.006 14.1498 17.2833 -8.90439 0.00281443
555 1 12.5775 12.5779 15.7225 -8.88826 0.00257276
556 1 14.149 14.1495 17.2824 -8.90466 0.00383517
557 1 15.7224 12.5787 15.7187 -8.88798 0.00161753
558 1 17.2948 14.1507 17.279 -8.90328 0.00139388
559 1 18.8681 12.5791 15.7164 -8.88815 0.000539819
560 1 20.4407 14.1514 17.2774 -8.90297 0.000438454
561 1 -0.000119443 15.724 15.7152 -8.88813 0.000126314
562 1 1.57226 17.2967 17.2766 -8.90298 0.000132264
563 1 3.14499 15.7241 15.7152 -8.88815 8.53384e-05
564 1 4.71707 17.297 17.2766 -8.90282 0.000102672
565 1 6.29007 15.724 15.7157 -8.88819 2.66397e-05
566 1 7.86241 17.2967 17.2773 -8.90323 3.9878e-05
567 1 9.435 15.7234 15.7172 -8.88796 0.000210671
568 1 11.0073 17.2959 17.2783 -8.90314 0.000279582
569 1 12.5791 15.7229 15.7179 -8.88791 0.000747399
570 1 14.1515 17.2953 17.2784 -8.90316 0.000646917
571 1 15.7235 15.7231 15.717 -8.88828 0.000654468
572 1 17.2961 17.2957 17.2776 -8.90317 0.000434522
573 1 18.8686 15.7237 15.7158 -8.88824 0.000287352
574 1 20.4412 17.2963 17.2768 -8.90304 0.000185203
575 1 8.8197e-05 18.8689 15.7148 -8.88811 5.77815e-05
576 1 1.57252 20.4415 17.2764 -8.90302 6.05771e-05
577 1 3.14505 18.8691 15.7148 -8.88806 4.5844e-05
578 1 4.71741 20.4416 17.2764 -8.90299 6.18468e-05
579 1 6.29011 18.869 15.7151 -8.88816 2.49869e-05
580 1 7.86257 20.4416 17.2767 -8.90303 3.19822e-05
581 1 9.43509 18.8688 15.7156 -8.88811 1.24841e-05
582 1 11.0076 20.4413 17.277 -8.90298 1.24178e-05
583 1 12.5797 18.8685 15.7158 -8.8881 7.72177e-05
584 1 14.1523 20.4412 17.277 -8.90289 4.87721e-05