ITEM: TIMESTEP
125
ITEM: NUMBER OF ATOMS
736
ITEM: BOX BOUNDS pp pp pp
0.0000000000000000e+00 2.2013900999999997e+01
0.0000000000000000e+00 2.2013900999999997e+01
0.0000000000000000e+00 5.3462330999999999e+01
ITEM: ATOMS id type x y z c_pot c_ke
1 1 9.44592e-05 5.8546e-16 0.0968649 -7.40176 4.71393e-08
2 1 1.57253 1.57244 1.62359 -8.68379 4.75392e-08
3 1 3.14499 2.46323e-16 0.0968609 -7.40176 4.30881e-08
4 1 4.71742 1.57244 1.62361 -8.68379 4.08224e-08
5 1 6.28988 1.09271e-15 0.0969023 -7.40177 3.84578e-08
6 1 7.86229 1.57244 1.62369 -8.68379 3.51484e-08
7 1 9.43472 8.61822e-16 0.096958 -7.4018 3.67074e-08
8 1 11.0071 1.57244 1.62376 -8.6838 3.44753e-08
9 1 12.5795 8.34438e-16 0.0969858 -7.40181 3.93881e-08
10 1 14.1519 1.57245 1.62377 -8.6838 3.96999e-08
11 1 15.7243 6.86314e-16 0.0969649 -7.4018 4.44046e-08
12 1 17.2967 1.57245 1.62371 -8.6838 4.7032e-08
13 1 18.8691 5.22044e-16 0.0969111 -7.40178 4.77798e-08
14 1 20.4416 1.57244 1.62363 -8.68379 5.04922e-08
15 1 9.09235e-05 3.14489 0.0968896 -7.40177 4.56134e-08
16 1 1.57252 4.71731 1.62365 -8.68379 4.29422e-08
17 1 3.14499 3.14489 0.0968848 -7.40177 4.14096e-08
18 1 4.71741 4.71731 1.62367 -8.68379 3.4655e-08
19 1 6.28988 3.14489 0.0969282 -7.40179 3.58829e-08
20 1 7.86228 4.71731 1.62376 -8.6838 2.64457e-08
21 1 9.43472 3.1449 0.0969874 -7.40181 3.31194e-08
22 1 11.0071 4.71731 1.62383 -8.6838 2.37048e-08
23 1 12.5795 3.1449 0.0970175 -7.40182 3.5398e-08
24 1 14.1519 4.71732 1.62385 -8.6838 2.86527e-08
25 1 15.7243 3.1449 0.0969959 -7.40181 4.09887e-08
26 1 17.2967 4.71732 1.62379 -8.6838 3.83141e-08
27 1 18.8691 3.1449 0.096939 -7.40179 4.54895e-08
28 1 20.4415 4.71732 1.6237 -8.68379 4.48948e-08
29 1 8.2981e-05 6.28975 0.0969453 -7.40179 4.20249e-08
30 1 1.57251 7.86214 1.62372 -8.68379 3.71512e-08
31 1 3.14499 6.28975 0.0969385 -7.40179 3.75202e-08
32 1 4.71741 7.86214 1.62375 -8.68379 2.7347e-08
33 1 6.28988 6.28975 0.0969864 -7.40181 3.00501e-08
34 1 7.86227 7.86214 1.62384 -8.6838 1.69772e-08
35 1 9.43471 6.28976 0.0970529 -7.40184 2.50809e-08
36 1 11.0071 7.86215 1.62393 -8.68381 1.23614e-08
37 1 12.5795 6.28976 0.0970882 -7.40186 2.64213e-08
38 1 14.1519 7.86215 1.62394 -8.68381 1.63961e-08
39 1 15.7243 6.28976 0.0970655 -7.40184 3.31927e-08
40 1 17.2967 7.86215 1.62388 -8.68381 2.78909e-08
41 1 18.8691 6.28976 0.0970018 -7.40182 4.01693e-08
42 1 20.4415 7.86215 1.62378 -8.6838 3.78584e-08
43 1 7.66139e-05 9.43456 0.0969901 -7.40181 3.89854e-08
44 1 1.57251 11.007 1.62375 -8.6838 3.45552e-08
45 1 3.14499 9.43456 0.0969818 -7.40181 3.42783e-08
46 1 4.7174 11.007 1.62378 -8.6838 2.42447e-08
47 1 6.28988 9.43456 0.097033 -7.40183 2.53253e-08
48 1 7.86227 11.007 1.62387 -8.6838 1.32998e-08
49 1 9.43471 9.43456 0.0971051 -7.40187 1.86657e-08
50 1 11.0071 11.007 1.62397 -8.68381 8.11837e-09
51 1 12.5795 9.43456 0.0971444 -7.40188 1.92214e-08
52 1 14.1519 11.007 1.62399 -8.68381 1.15269e-08
53 1 15.7243 9.43456 0.0971212 -7.40187 2.68179e-08
54 1 17.2967 11.007 1.62392 -8.68381 2.34231e-08
55 1 18.8691 9.43456 0.0970522 -7.40184 3.57239e-08
56 1 20.4415 11.007 1.62382 -8.6838 3.47082e-08
57 1 7.66139e-05 12.5793 0.0969901 -7.40181 3.89854e-08
58 1 1.57251 14.1518 1.62372 -8.68379 3.71512e-08
59 1 3.14499 12.5793 0.0969818 -7.40181 3.42783e-08
60 1 4.71741 14.1518 1.62375 -8.68379 2.7347e-08
61 1 6.28988 12.5793 0.097033 -7.40183 2.53253e-08
62 1 7.86227 14.1518 1.62384 -8.6838 1.69772e-08
63 1 9.43471 12.5793 0.0971051 -7.40187 1.86657e-08
64 1 11.0071 14.1518 1.62393 -8.68381 1.23614e-08
65 1 12.5795 12.5793 0.0971444 -7.40188 1.92214e-08
66 1 14.1519 14.1518 1.62394 -8.68381 1.63961e-08
67 1 15.7243 12.5793 0.0971212 -7.40187 2.68179e-08
68 1 17.2967 14.1518 1.62388 -8.68381 2.78909e-08
69 1 18.8691 12.5793 0.0970522 -7.40184 3.57239e-08
70 1 20.4415 14.1518 1.62378 -8.6838 3.78584e-08
71 1 8.2981e-05 15.7242 0.0969453 -7.40179 4.20249e-08
72 1 1.57252 17.2966 1.62365 -8.68379 4.29422e-08
73 1 3.14499 15.7242 0.0969385 -7.40179 3.75202e-08
74 1 4.71741 17.2966 1.62367 -8.68379 3.4655e-08
75 1 6.28988 15.7242 0.0969864 -7.40181 3.00501e-08
76 1 7.86228 17.2966 1.62376 -8.6838 2.64457e-08
77 1 9.43471 15.7241 0.0970529 -7.40184 2.50809e-08
78 1 11.0071 17.2966 1.62383 -8.6838 2.37048e-08
79 1 12.5795 15.7241 0.0970882 -7.40186 2.64213e-08
80 1 14.1519 17.2966 1.62385 -8.6838 2.86527e-08
81 1 15.7243 15.7241 0.0970655 -7.40184 3.31927e-08
82 1 17.2967 17.2966 1.62379 -8.6838 3.83141e-08
83 1 18.8691 15.7241 0.0970018 -7.40182 4.01693e-08
84 1 20.4415 17.2966 1.6237 -8.68379 4.48948e-08
85 1 9.09235e-05 18.869 0.0968896 -7.40177 4.56134e-08
86 1 1.57253 20.4415 1.62359 -8.68379 4.75392e-08
87 1 3.14499 18.869 0.0968848 -7.40177 4.14096e-08
88 1 4.71742 20.4415 1.62361 -8.68379 4.08224e-08
89 1 6.28988 18.869 0.0969282 -7.40179 3.58829e-08
90 1 7.86229 20.4415 1.62369 -8.68379 3.51484e-08
91 1 9.43472 18.869 0.0969874 -7.40181 3.31194e-08
92 1 11.0071 20.4415 1.62376 -8.6838 3.44753e-08
93 1 12.5795 18.869 0.0970175 -7.40182 3.5398e-08
94 1 14.1519 20.4415 1.62377 -8.6838 3.96999e-08
95 1 15.7243 18.869 0.0969959 -7.40181 4.09887e-08
96 1 17.2967 20.4415 1.62371 -8.6838 4.7032e-08
97 1 18.8691 18.869 0.096939 -7.40179 4.54895e-08
98 1 20.4416 20.4415 1.62363 -8.68379 5.04922e-08
99 1 7.21432e-05 7.16222e-16 3.15371 -8.93808 5.11915e-08
100 1 1.57247 1.57244 4.743 -8.90302 5.31266e-08
101 1 3.14496 4.63039e-16 3.1537 -8.93809 4.67163e-08
102 1 4.71737 1.57243 4.74302 -8.90302 4.72631e-08
103 1 6.28984 6.54404e-16 3.15375 -8.93808 3.96538e-08
104 1 7.86225 1.57243 4.74311 -8.90302 3.84388e-08
105 1 9.43469 4.94466e-16 3.15384 -8.93807 3.46824e-08
106 1 11.0071 1.57243 4.7432 -8.90302 3.22419e-08
107 1 12.5795 2.02676e-16 3.15389 -8.93806 3.55053e-08
108 1 14.1519 1.57244 4.74323 -8.90302 3.39091e-08
109 1 15.7243 -4.3196e-16 3.15387 -8.93806 4.21733e-08
110 1 17.2967 1.57244 4.74317 -8.90302 4.2989e-08
111 1 18.8691 1.10391e-15 3.15379 -8.93807 4.93973e-08
112 1 20.4415 1.57244 4.74306 -8.90302 5.16972e-08
113 1 6.57423e-05 3.14488 3.15375 -8.93808 4.78519e-08
114 1 1.57245 4.7173 4.74307 -8.90302 4.5793e-08
115 1 3.14495 3.14487 3.15373 -8.93808 4.32524e-08
116 1 4.71734 4.71729 4.74308 -8.90302 3.87985e-08
117 1 6.28983 3.14487 3.15379 -8.93808 3.48532e-08
118 1 7.86222 4.71729 4.74318 -8.90302 2.79119e-08
119 1 9.43468 3.14487 3.15388 -8.93807 2.83701e-08
120 1 11.0071 4.71729 4.74328 -8.90302 1.96327e-08
121 1 12.5795 3.14487 3.15394 -8.93806 2.82455e-08
122 1 14.1519 4.7173 4.74331 -8.90302 1.95701e-08
123 1 15.7243 3.14488 3.15391 -8.93806 3.53956e-08
124 1 17.2967 4.71731 4.74325 -8.90302 2.98176e-08
125 1 18.8691 3.14488 3.15383 -8.93807 4.45014e-08
126 1 20.4415 4.71731 4.74314 -8.90302 4.23034e-08
127 1 5.13472e-05 6.28973 3.15383 -8.93807 4.02604e-08
128 1 1.57243 7.86214 4.74315 -8.90302 3.65755e-08
129 1 3.14493 6.28972 3.15381 -8.93807 3.56135e-08
130 1 4.71732 7.86213 4.74316 -8.90302 2.94773e-08
131 1 6.28982 6.28972 3.15387 -8.93807 2.51326e-08
132 1 7.8622 7.86212 4.74325 -8.90302 1.89827e-08
133 1 9.43467 6.28972 3.15397 -8.93806 1.65177e-08
134 1 11.007 7.86213 4.74337 -8.90302 1.03419e-08
135 1 12.5795 6.28972 3.15403 -8.93805 1.44523e-08
136 1 14.1519 7.86214 4.74341 -8.90302 6.69079e-09
137 1 15.7243 6.28973 3.15401 -8.93805 2.15056e-08
138 1 17.2966 7.86214 4.74336 -8.90301 1.51593e-08
139 1 18.8691 6.28973 3.15392 -8.93806 3.37363e-08
140 1 20.4415 7.86214 4.74324 -8.90302 3.05869e-08
141 1 3.97879e-05 9.43455 3.1539 -8.93806 3.40933e-08
142 1 1.57242 11.007 4.74319 -8.90302 3.24513e-08
143 1 3.14492 9.43454 3.15387 -8.93807 2.96625e-08
144 1 4.7173 11.007 4.7432 -8.90302 2.58128e-08
145 1 6.2898 9.43454 3.15393 -8.93806 1.84899e-08
146 1 7.86218 11.007 4.74329 -8.90302 1.66185e-08
147 1 9.43466 9.43454 3.15403 -8.93806 9.52724e-09
148 1 11.007 11.007 4.7434 -8.90303 8.69234e-09
149 1 12.5795 9.43454 3.1541 -8.93804 6.0859e-09
150 1 14.1518 11.007 4.74346 -8.90302 2.85244e-09
151 1 15.7243 9.43455 3.15409 -8.93804 1.17843e-08
152 1 17.2966 11.007 4.74341 -8.90302 9.28916e-09
153 1 18.8691 9.43455 3.154 -8.93805 2.53548e-08
154 1 20.4415 11.007 4.74329 -8.90302 2.53729e-08
155 1 3.97879e-05 12.5794 3.1539 -8.93806 3.40933e-08
156 1 1.57243 14.1518 4.74315 -8.90302 3.65755e-08
157 1 3.14492 12.5794 3.15387 -8.93807 2.96625e-08
158 1 4.71732 14.1518 4.74316 -8.90302 2.94773e-08
159 1 6.2898 12.5794 3.15393 -8.93806 1.84899e-08
160 1 7.8622 14.1518 4.74325 -8.90302 1.89827e-08
161 1 9.43466 12.5794 3.15403 -8.93806 9.52724e-09
162 1 11.007 14.1518 4.74337 -8.90302 1.03419e-08
163 1 12.5795 12.5794 3.1541 -8.93804 6.0859e-09
164 1 14.1519 14.1518 4.74341 -8.90302 6.69079e-09
165 1 15.7243 12.5794 3.15409 -8.93804 1.17843e-08
166 1 17.2966 14.1518 4.74336 -8.90301 1.51593e-08
167 1 18.8691 12.5794 3.154 -8.93805 2.53548e-08
168 1 20.4415 14.1518 4.74324 -8.90302 3.05869e-08
169 1 5.13472e-05 15.7242 3.15383 -8.93807 4.02604e-08
170 1 1.57245 17.2966 4.74307 -8.90302 4.5793e-08
171 1 3.14493 15.7242 3.15381 -8.93807 3.56135e-08
172 1 4.71734 17.2966 4.74308 -8.90302 3.87985e-08
173 1 6.28982 15.7242 3.15387 -8.93807 2.51326e-08
174 1 7.86222 17.2966 4.74318 -8.90302 2.79119e-08
175 1 9.43467 15.7242 3.15397 -8.93806 1.65177e-08
176 1 11.0071 17.2966 4.74328 -8.90302 1.96327e-08
177 1 12.5795 15.7242 3.15403 -8.93805 1.44523e-08
178 1 14.1519 17.2966 4.74331 -8.90302 1.95701e-08
179 1 15.7243 15.7242 3.15401 -8.93805 2.15056e-08
180 1 17.2967 17.2966 4.74325 -8.90302 2.98176e-08
181 1 18.8691 15.7242 3.15392 -8.93806 3.37363e-08
182 1 20.4415 17.2966 4.74314 -8.90302 4.23034e-08
183 1 6.57423e-05 18.869 3.15375 -8.93808 4.78519e-08
184 1 1.57247 20.4415 4.743 -8.90302 5.31266e-08
185 1 3.14495 18.869 3.15373 -8.93808 4.32524e-08
186 1 4.71737 20.4415 4.74302 -8.90302 4.72631e-08
187 1 6.28983 18.869 3.15379 -8.93808 3.48532e-08
188 1 7.86225 20.4415 4.74311 -8.90302 3.84388e-08
189 1 9.43468 18.869 3.15388 -8.93807 2.83701e-08
190 1 11.0071 20.4415 4.7432 -8.90302 3.22419e-08
191 1 12.5795 18.869 3.15394 -8.93806 2.82455e-08
192 1 14.1519 20.4415 4.74323 -8.90302 3.39091e-08
193 1 15.7243 18.869 3.15391 -8.93806 3.53956e-08
194 1 17.2967 20.4415 4.74317 -8.90302 4.2989e-08
195 1 18.8691 18.869 3.15383 -8.93807 4.45014e-08
196 1 20.4415 20.4415 4.74306 -8.90302 5.16972e-08
197 1 -3.33493e-05 -1.52628e-16 6.30475 -8.88812 6.3273e-08
198 1 1.57232 1.57244 7.87393 -8.90468 8.2246e-08
199 1 3.14487 -3.50845e-17 6.30471 -8.88812 6.48352e-08
200 1 4.71725 1.57243 7.87394 -8.90468 8.20137e-08
201 1 6.28978 -4.66033e-16 6.30478 -8.88812 5.7027e-08
202 1 7.86216 1.57243 7.87407 -8.90467 6.75545e-08
203 1 9.43465 -1.09102e-16 6.30491 -8.88812 4.43244e-08
204 1 11.007 1.57243 7.87422 -8.90467 4.72103e-08
205 1 12.5795 2.47449e-16 6.30499 -8.88812 3.57439e-08
206 1 14.1518 1.57245 7.87428 -8.90467 3.6631e-08
207 1 15.7242 -8.36715e-17 6.30498 -8.88812 3.94794e-08
208 1 17.2965 1.57245 7.8742 -8.90467 4.62413e-08
209 1 18.869 7.10478e-16 6.30487 -8.88812 5.24047e-08
210 1 20.4413 1.57245 7.87405 -8.90468 6.72668e-08
211 1 -5.15551e-05 3.14488 6.3048 -8.88812 5.72055e-08
212 1 1.57226 4.71731 7.87403 -8.90468 6.81082e-08
213 1 3.14485 3.14487 6.30476 -8.88812 5.93985e-08
214 1 4.71718 4.71728 7.87402 -8.90467 6.9005e-08
215 1 6.28976 3.14486 6.30482 -8.88812 5.05665e-08
216 1 7.86209 4.71726 7.87413 -8.90467 5.73712e-08
217 1 9.43463 3.14486 6.30495 -8.88812 3.6715e-08
218 1 11.007 4.71728 7.87429 -8.90466 3.93027e-08
219 1 12.5794 3.14487 6.30504 -8.88811 2.65114e-08
220 1 14.1517 4.71731 7.87438 -8.90466 2.23488e-08
221 1 15.7242 3.14489 6.30503 -8.88811 2.91409e-08
222 1 17.2965 4.71733 7.87432 -8.90466 2.49084e-08
223 1 18.869 3.14489 6.30492 -8.88812 4.3665e-08
224 1 20.4413 4.71733 7.87416 -8.90467 4.85027e-08
225 1 -9.24782e-05 6.28974 6.30491 -8.88812 4.32344e-08
226 1 1.57219 7.86214 7.87414 -8.90467 5.06713e-08
227 1 3.1448 6.28972 6.30485 -8.88812 4.77675e-08
228 1 4.71709 7.86212 7.8741 -8.90467 5.85172e-08
229 1 6.2897 6.2897 6.3049 -8.88812 4.02094e-08
230 1 7.862 7.8621 7.87418 -8.90468 6.29795e-08
231 1 9.43458 6.2897 6.30503 -8.88812 2.88639e-08
232 1 11.0069 7.8621 7.87434 -8.90469 5.86049e-08
233 1 12.5794 6.28972 6.30514 -8.88812 1.60557e-08
234 1 14.1517 7.86213 7.87447 -8.90467 2.87716e-08
235 1 15.7242 6.28974 6.30515 -8.88811 1.15323e-08
236 1 17.2964 7.86216 7.87446 -8.90465 7.53165e-09
237 1 18.869 6.28975 6.30505 -8.88811 2.508e-08
238 1 20.4412 7.86216 7.8743 -8.90467 2.58037e-08
239 1 -0.00012534 9.43455 6.30499 -8.88812 3.16843e-08
240 1 1.57216 11.007 7.87419 -8.90467 4.30011e-08
241 1 3.14476 9.43454 6.30492 -8.88812 3.90936e-08
242 1 4.71706 11.007 7.87413 -8.90467 5.59568e-08
243 1 6.28966 9.43453 6.30496 -8.88812 3.63996e-08
244 1 7.86196 11.007 7.87419 -8.90469 7.22404e-08
245 1 9.43455 9.43453 6.30507 -8.88814 3.27195e-08
246 1 11.0069 11.007 7.87434 -8.90471 7.85221e-08
247 1 12.5794 9.43454 6.3052 -8.88813 1.89376e-08
248 1 14.1517 11.007 7.87451 -8.90468 4.06406e-08
249 1 15.7242 9.43455 6.30524 -8.88811 3.44094e-09
250 1 17.2964 11.007 7.87452 -8.90465 3.22613e-09
251 1 18.8689 9.43455 6.30514 -8.88811 1.12595e-08
252 1 20.4412 11.007 7.87436 -8.90466 1.59686e-08
253 1 -0.00012534 12.5793 6.30499 -8.88812 3.16843e-08
254 1 1.57219 14.1518 7.87414 -8.90467 5.06713e-08
255 1 3.14476 12.5794 6.30492 -8.88812 3.90936e-08
256 1 4.71709 14.1518 7.8741 -8.90467 5.85172e-08
257 1 6.28966 12.5794 6.30496 -8.88812 3.63996e-08
258 1 7.862 14.1518 7.87418 -8.90468 6.29795e-08
259 1 9.43455 12.5794 6.30507 -8.88814 3.27195e-08
260 1 11.0069 14.1518 7.87434 -8.90469 5.86049e-08
261 1 12.5794 12.5794 6.3052 -8.88813 1.89376e-08
262 1 14.1517 14.1518 7.87447 -8.90467 2.87716e-08
263 1 15.7242 12.5794 6.30524 -8.88811 3.44094e-09
264 1 17.2964 14.1517 7.87446 -8.90465 7.53165e-09
265 1 18.8689 12.5793 6.30514 -8.88811 1.12595e-08
266 1 20.4412 14.1517 7.8743 -8.90467 2.58037e-08
267 1 -9.24782e-05 15.7242 6.30491 -8.88812 4.32344e-08
268 1 1.57226 17.2966 7.87403 -8.90468 6.81082e-08
269 1 3.1448 15.7242 6.30485 -8.88812 4.77675e-08
270 1 4.71718 17.2966 7.87402 -8.90467 6.9005e-08
271 1 6.2897 15.7242 6.3049 -8.88812 4.02094e-08
272 1 7.86209 17.2966 7.87413 -8.90467 5.73712e-08
273 1 9.43458 15.7242 6.30503 -8.88812 2.88639e-08
274 1 11.007 17.2966 7.87429 -8.90466 3.93027e-08
275 1 12.5794 15.7242 6.30514 -8.88812 1.60557e-08
276 1 14.1517 17.2966 7.87438 -8.90466 2.23488e-08
277 1 15.7242 15.7242 6.30515 -8.88811 1.15323e-08
278 1 17.2965 17.2966 7.87432 -8.90466 2.49084e-08
279 1 18.869 15.7242 6.30505 -8.88811 2.508e-08
280 1 20.4413 17.2966 7.87416 -8.90467 4.85027e-08
281 1 -5.15551e-05 18.869 6.3048 -8.88812 5.72055e-08
282 1 1.57232 20.4415 7.87393 -8.90468 8.2246e-08
283 1 3.14485 18.869 6.30476 -8.88812 5.93985e-08
284 1 4.71725 20.4415 7.87394 -8.90468 8.20137e-08
285 1 6.28976 18.869 6.30482 -8.88812 5.05665e-08
286 1 7.86216 20.4415 7.87407 -8.90467 6.75545e-08
287 1 9.43463 18.869 6.30495 -8.88812 3.6715e-08
288 1 11.007 20.4415 7.87422 -8.90467 4.72103e-08
289 1 12.5794 18.869 6.30504 -8.88811 2.65114e-08
290 1 14.1518 20.4415 7.87428 -8.90467 3.6631e-08
291 1 15.7242 18.869 6.30503 -8.88811 2.91409e-08
292 1 17.2965 20.4414 7.8742 -8.90467 4.62413e-08
293 1 18.869 18.869 6.30492 -8.88812 4.3665e-08
294 1 20.4413 20.4414 7.87405 -8.90468 6.72668e-08
295 1 -0.0002608 5.86216e-16 9.44225 -8.89866 1.03907e-07
296 1 1.57202 1.57245 11.0103 -8.90011 1.51164e-07
297 1 3.14467 -8.62182e-16 9.44217 -8.89866 1.2014e-07
298 1 4.71699 1.57242 11.0103 -8.9001 1.60095e-07
299 1 6.28963 -5.84134e-16 9.44227 -8.89866 1.12878e-07
300 1 7.86194 1.57241 11.0105 -8.9001 1.36584e-07
301 1 9.43452 -8.1064e-16 9.44246 -8.89866 8.59359e-08
302 1 11.0068 1.57242 11.0107 -8.90009 9.42443e-08
303 1 12.5793 -7.0832e-16 9.44261 -8.89866 5.64906e-08
304 1 14.1515 1.57245 11.0109 -8.90009 5.93514e-08
305 1 15.724 -2.44817e-16 9.4426 -8.89866 5.00548e-08
306 1 17.2962 1.57248 11.0107 -8.90009 6.56635e-08
307 1 18.8688 1.68056e-16 9.44244 -8.89866 7.28887e-08
308 1 20.441 1.57248 11.0105 -8.9001 1.1013e-07
309 1 -0.000306804 3.1449 9.44232 -8.89866 8.99432e-08
310 1 1.57187 4.71732 11.0104 -8.90009 1.14959e-07
311 1 3.14462 3.14487 9.44223 -8.89866 1.0793e-07
312 1 4.71681 4.71724 11.0104 -8.90007 1.26171e-07
313 1 6.28956 3.14484 9.4423 -8.89865 1.00767e-07
314 1 7.86176 4.71719 11.0105 -8.90007 1.19627e-07
315 1 9.43447 3.14483 9.4425 -8.89865 7.72819e-08
316 1 11.0067 4.71721 11.0108 -8.90007 1.06488e-07
317 1 12.5793 3.14486 9.44266 -8.89865 4.7904e-08
318 1 14.1514 4.71729 11.011 -8.90006 6.29776e-08
319 1 15.724 3.1449 9.44268 -8.89865 3.44632e-08
320 1 17.2961 4.71737 11.0109 -8.90006 3.23696e-08
321 1 18.8688 3.14492 9.44253 -8.89865 5.47222e-08
322 1 20.4409 4.71738 11.0107 -8.90009 6.61899e-08
323 1 -0.000410091 6.28976 9.44248 -8.89866 5.91449e-08
324 1 1.5717 7.86215 11.0106 -8.90009 7.39478e-08
325 1 3.14449 6.28971 9.44234 -8.89865 8.42686e-08
326 1 4.71659 7.86207 11.0104 -8.90007 1.0305e-07
327 1 6.28941 6.28965 9.44236 -8.89864 9.1039e-08
328 1 7.8615 7.86199 11.0104 -8.9001 1.53227e-07
329 1 9.43434 6.28964 9.44252 -8.89865 9.66702e-08
330 1 11.0065 7.86199 11.0106 -8.90012 2.18456e-07
331 1 12.5792 6.28968 9.44273 -8.89864 7.60243e-08
332 1 14.1514 7.86207 11.011 -8.90007 1.56991e-07
333 1 15.724 6.28974 9.44282 -8.89863 2.96482e-08
334 1 17.296 7.86217 11.0111 -8.90005 3.81959e-08
335 1 18.8687 6.28978 9.44271 -8.89865 2.20588e-08
336 1 20.4408 7.86219 11.0109 -8.90009 2.1568e-08
337 1 -0.000493053 9.43456 9.4426 -8.89866 3.52195e-08
338 1 1.57162 11.007 11.0107 -8.90009 5.75047e-08
339 1 3.14439 9.43454 9.44243 -8.89865 6.93517e-08
340 1 4.71649 11.007 11.0105 -8.90008 1.01274e-07
341 1 6.28929 9.43451 9.44238 -8.89865 1.00986e-07
342 1 7.86138 11.007 11.0103 -8.90013 1.95387e-07
343 1 9.43422 9.43449 9.44246 -8.89872 1.47888e-07
344 1 11.0064 11.007 11.0105 -8.90032 2.95833e-07
345 1 12.5791 9.43451 9.4427 -8.89871 1.42604e-07
346 1 14.1513 11.007 11.0109 -8.9001 2.37238e-07
347 1 15.7239 9.43455 9.44291 -8.89864 5.59593e-08
348 1 17.296 11.007 11.0112 -8.90005 5.82115e-08
349 1 18.8686 9.43457 9.44285 -8.89865 4.36225e-09
350 1 20.4407 11.007 11.011 -8.90009 5.6486e-09
351 1 -0.000493053 12.5793 9.4426 -8.89866 3.52195e-08
352 1 1.5717 14.1518 11.0106 -8.90009 7.39478e-08
353 1 3.14439 12.5794 9.44243 -8.89865 6.93517e-08
354 1 4.71659 14.1518 11.0104 -8.90007 1.0305e-07
355 1 6.28929 12.5794 9.44238 -8.89865 1.00986e-07
356 1 7.8615 14.1519 11.0104 -8.9001 1.53227e-07
357 1 9.43422 12.5794 9.44246 -8.89872 1.47888e-07
358 1 11.0065 14.1519 11.0106 -8.90012 2.18456e-07
359 1 12.5791 12.5794 9.4427 -8.89871 1.42604e-07
360 1 14.1514 14.1518 11.011 -8.90007 1.56991e-07
361 1 15.7239 12.5794 9.44291 -8.89864 5.59593e-08
362 1 17.296 14.1517 11.0111 -8.90005 3.81959e-08
363 1 18.8686 12.5793 9.44285 -8.89865 4.36225e-09
364 1 20.4408 14.1517 11.0109 -8.90009 2.1568e-08
365 1 -0.000410091 15.7241 9.44248 -8.89866 5.91449e-08
366 1 1.57187 17.2966 11.0104 -8.90009 1.14959e-07
367 1 3.14449 15.7242 9.44234 -8.89865 8.42686e-08
368 1 4.71681 17.2967 11.0104 -8.90007 1.26171e-07
369 1 6.28941 15.7242 9.44236 -8.89864 9.1039e-08
370 1 7.86176 17.2967 11.0105 -8.90007 1.19627e-07
371 1 9.43434 15.7243 9.44252 -8.89865 9.66702e-08
372 1 11.0067 17.2967 11.0108 -8.90007 1.06488e-07
373 1 12.5792 15.7242 9.44273 -8.89864 7.60243e-08
374 1 14.1514 17.2966 11.011 -8.90006 6.29776e-08
375 1 15.724 15.7242 9.44282 -8.89863 2.96482e-08
376 1 17.2961 17.2965 11.0109 -8.90006 3.23696e-08
377 1 18.8687 15.7241 9.44271 -8.89865 2.20588e-08
378 1 20.4409 17.2965 11.0107 -8.90009 6.61899e-08
379 1 -0.000306804 18.869 9.44232 -8.89866 8.99432e-08
380 1 1.57202 20.4414 11.0103 -8.90011 1.51164e-07
381 1 3.14462 18.869 9.44223 -8.89866 1.0793e-07
382 1 4.71699 20.4415 11.0103 -8.9001 1.60095e-07
383 1 6.28956 18.8691 9.4423 -8.89865 1.00767e-07
384 1 7.86194 20.4415 11.0105 -8.9001 1.36584e-07
385 1 9.43447 18.8691 9.4425 -8.89865 7.72819e-08
386 1 11.0068 20.4415 11.0107 -8.90009 9.42443e-08
387 1 12.5793 18.869 9.44266 -8.89865 4.7904e-08
388 1 14.1515 20.4414 11.0109 -8.90009 5.93514e-08
389 1 15.724 18.869 9.44268 -8.89865 3.44632e-08
390 1 17.2962 20.4414 11.0107 -8.90009 6.56635e-08
391 1 18.8688 18.869 9.44253 -8.89865 5.47222e-08
392 1 20.441 20.4414 11.0105 -8.9001 1.1013e-07
393 1 -0.000648083 -4.81255e-16 12.5784 -8.89869 1.85548e-07
394 1 3.14434 -1.70632e-15 12.5783 -8.89868 2.20873e-07
395 1 6.28934 8.97654e-16 12.5785 -8.89868 2.10377e-07
396 1 9.43425 3.06945e-16 12.5788 -8.89868 1.64742e-07
397 1 12.579 -1.07854e-15 12.579 -8.89868 1.06674e-07
398 1 15.7237 -3.58316e-16 12.579 -8.89868 8.24519e-08
399 1 18.8684 -8.32419e-17 12.5787 -8.89868 1.21459e-07
400 1 22.0131 3.14495 12.5785 -8.89868 1.4993e-07
401 1 3.14422 3.14487 12.5784 -8.89867 1.85594e-07
402 1 6.28919 3.14479 12.5785 -8.89865 1.69688e-07
403 1 9.43412 3.14478 12.5788 -8.89866 1.37386e-07
404 1 12.5789 3.14485 12.5791 -8.89865 9.36394e-08
405 1 15.7236 3.14494 12.5791 -8.89865 5.55966e-08
406 1 18.8683 3.14499 12.5789 -8.89867 7.94797e-08
407 1 22.0129 6.2898 12.5788 -8.89868 7.78849e-08
408 1 3.14392 6.28968 12.5786 -8.89864 1.17136e-07
409 1 6.2888 6.28952 12.5785 -8.89855 1.17373e-07
410 1 9.43377 6.28946 12.5786 -8.8986 1.92114e-07
411 1 12.5787 6.28955 12.579 -8.8986 2.16311e-07
412 1 15.7235 6.28972 12.5793 -8.89854 9.67944e-08
413 1 18.8681 6.28984 12.5792 -8.89865 2.53407e-08
414 1 22.0127 9.43458 12.579 -8.89868 2.99204e-08
415 1 3.14368 9.43452 12.5787 -8.89865 7.65556e-08
416 1 6.28847 9.43443 12.5784 -8.89861 1.407e-07
417 1 9.43344 9.43434 12.5781 -8.89875 5.04156e-07
418 1 12.5786 9.43438 12.5786 -8.89874 6.28896e-07
419 1 15.7234 9.43452 12.5794 -8.89859 2.60846e-07
420 1 18.868 9.43459 12.5794 -8.89865 2.29496e-08
421 1 22.0127 12.5793 12.579 -8.89868 2.99204e-08
422 1 3.14368 12.5794 12.5787 -8.89865 7.65556e-08
423 1 6.28847 12.5795 12.5784 -8.89861 1.407e-07
424 1 9.43344 12.5796 12.5781 -8.89875 5.04156e-07
425 1 12.5786 12.5795 12.5786 -8.89874 6.28896e-07
426 1 15.7234 12.5794 12.5794 -8.89859 2.60846e-07
427 1 18.868 12.5793 12.5794 -8.89865 2.29496e-08
428 1 22.0129 15.7241 12.5788 -8.89868 7.78849e-08
429 1 3.14392 15.7242 12.5786 -8.89864 1.17136e-07
430 1 6.2888 15.7244 12.5785 -8.89855 1.17373e-07
431 1 9.43377 15.7244 12.5786 -8.8986 1.92114e-07
432 1 12.5787 15.7244 12.579 -8.8986 2.16311e-07
433 1 15.7235 15.7242 12.5793 -8.89854 9.67944e-08
434 1 18.8681 15.7241 12.5792 -8.89865 2.53407e-08
435 1 22.0131 18.869 12.5785 -8.89868 1.4993e-07
436 1 3.14422 18.869 12.5784 -8.89867 1.85594e-07
437 1 6.28919 18.8691 12.5785 -8.89865 1.69688e-07
438 1 9.43412 18.8691 12.5788 -8.89866 1.37386e-07
439 1 12.5789 18.8691 12.5791 -8.89865 9.36394e-08
440 1 15.7236 18.869 12.5791 -8.89865 5.55966e-08
441 1 18.8683 18.8689 12.5789 -8.89867 7.94797e-08
442 1 1.57158 1.57248 14.1466 -8.90469 2.54152e-07
443 1 4.71661 1.57242 14.1467 -8.90468 2.60126e-07
444 1 7.86157 1.57239 14.147 -8.9047 2.17846e-07
445 1 11.0064 1.57242 14.1474 -8.9047 1.58217e-07
446 1 14.1511 1.57249 14.1475 -8.90469 1.03099e-07
447 1 17.2957 1.57255 14.1473 -8.90468 1.07583e-07
448 1 20.4405 1.57253 14.1469 -8.9047 1.84679e-07
449 1 1.57129 4.71737 14.1469 -8.90468 1.66501e-07
450 1 4.71624 4.7172 14.1468 -8.90465 1.47551e-07
451 1 7.86114 4.71705 14.147 -8.90466 1.2569e-07
452 1 11.0061 4.71711 14.1473 -8.90466 1.63259e-07
453 1 14.1509 4.7173 14.1477 -8.90465 1.22393e-07
454 1 17.2955 4.71749 14.1477 -8.90466 4.45399e-08
455 1 20.4402 4.71749 14.1472 -8.90468 8.84324e-08
456 1 1.57092 7.86216 14.1471 -8.90469 7.42325e-08
457 1 4.71571 7.86197 14.1468 -8.90466 6.35399e-08
458 1 7.86043 7.86168 14.1464 -8.90438 5.25884e-07
459 1 11.0057 7.86168 14.1465 -8.90462 1.25931e-06
460 1 14.1508 7.86188 14.1474 -8.9043 1.01346e-06
461 1 17.2953 7.86221 14.148 -8.90464 1.35687e-07
462 1 20.4399 7.86226 14.1476 -8.9047 1.54779e-08
463 1 1.57075 11.007 14.1472 -8.90469 4.13371e-08
464 1 4.71549 11.007 14.1468 -8.90467 5.43962e-08
465 1 7.86015 11.007 14.146 -8.90465 9.08417e-07
466 1 11.0055 11.007 14.1455 -8.90689 3.08271e-06
467 1 14.1507 11.007 14.1471 -8.90459 1.72396e-06
468 1 17.2952 11.007 14.1481 -8.90465 2.55636e-07
469 1 20.4398 11.007 14.1477 -8.90469 1.20683e-09
470 1 1.57092 14.1517 14.1471 -8.90469 7.42325e-08
471 1 4.71571 14.1519 14.1468 -8.90466 6.35399e-08
472 1 7.86043 14.1522 14.1464 -8.90438 5.25884e-07
473 1 11.0057 14.1522 14.1465 -8.90462 1.25931e-06
474 1 14.1508 14.152 14.1474 -8.9043 1.01346e-06
475 1 17.2953 14.1517 14.148 -8.90464 1.35687e-07
476 1 20.4399 14.1516 14.1476 -8.9047 1.54779e-08
477 1 1.57129 17.2965 14.1469 -8.90468 1.66501e-07
478 1 4.71624 17.2967 14.1468 -8.90465 1.47551e-07
479 1 7.86114 17.2968 14.147 -8.90466 1.2569e-07
480 1 11.0061 17.2968 14.1473 -8.90466 1.63259e-07
481 1 14.1509 17.2966 14.1477 -8.90465 1.22393e-07
482 1 17.2955 17.2964 14.1477 -8.90466 4.45399e-08
483 1 20.4402 17.2964 14.1472 -8.90468 8.84324e-08
484 1 1.57158 20.4414 14.1466 -8.90469 2.54152e-07
485 1 4.71661 20.4415 14.1467 -8.90468 2.60126e-07
486 1 7.86157 20.4415 14.147 -8.9047 2.17846e-07
487 1 11.0064 20.4415 14.1474 -8.9047 1.58217e-07
488 1 14.1511 20.4414 14.1475 -8.90469 1.03099e-07
489 1 17.2957 20.4414 14.1473 -8.90468 1.07583e-07
490 1 20.4405 20.4414 14.1469 -8.9047 1.84679e-07
491 1 22.0128 -6.00236e-16 15.7158 -8.88818 2.93327e-07
492 1 1.57114 1.57254 17.2774 -8.90299 3.3683e-07
493 1 3.14396 7.30543e-17 15.7157 -8.88819 3.30227e-07
494 1 4.71628 1.57255 17.2776 -8.90304 3.1653e-07
495 1 6.28897 4.61618e-16 15.716 -8.88817 3.0406e-07
496 1 7.86116 1.57252 17.2781 -8.90313 2.47104e-07
497 1 9.43385 -1.15355e-15 15.7165 -8.8882 2.48392e-07
498 1 11.0059 1.5726 17.2786 -8.9031 1.95748e-07
499 1 12.5786 1.7223e-15 15.7168 -8.8882 1.82939e-07
500 1 14.1504 1.57273 17.2788 -8.90308 1.57279e-07
501 1 15.7231 1.3281e-15 15.7168 -8.88817 1.53092e-07
502 1 17.2949 1.57277 17.2785 -8.90303 1.81659e-07
503 1 18.8678 1.51725e-15 15.7163 -8.8882 2.08516e-07
504 1 20.4399 1.57264 17.2777 -8.90298 2.73807e-07
505 1 22.0126 3.14504 15.716 -8.88819 2.24312e-07
506 1 1.57074 4.71753 17.2778 -8.90303 2.11416e-07
507 1 3.14376 3.14493 15.7159 -8.88817 2.52245e-07
508 1 4.71588 4.7175 17.2781 -8.90325 1.2759e-07
509 1 6.2887 3.14481 15.7161 -8.88809 1.82557e-07
510 1 7.86044 4.71718 17.2784 -8.90291 7.49986e-08
511 1 9.43358 3.14479 15.7166 -8.88817 1.33646e-07
512 1 11.0052 4.71732 17.2788 -8.90282 3.7323e-07
513 1 12.5783 3.14494 15.717 -8.88817 1.04992e-07
514 1 14.1499 4.71771 17.2795 -8.90284 4.05857e-07
515 1 15.7229 3.14513 15.7171 -8.88809 7.43923e-08
516 1 17.2942 4.71806 17.2793 -8.90324 4.01771e-08
517 1 18.8676 3.14516 15.7166 -8.88819 1.1687e-07
518 1 20.4393 4.71775 17.2783 -8.90304 1.12443e-07
519 1 22.0121 6.28989 15.7165 -8.88817 9.59435e-08
520 1 1.5701 7.86225 17.2783 -8.90311 1.0639e-07
521 1 3.14321 6.2897 15.7162 -8.88808 1.03585e-07
522 1 4.71483 7.86199 17.2781 -8.90291 1.94603e-08
523 1 6.28793 6.2894 15.7162 -8.88768 1.18226e-07
524 1 7.85863 7.86105 17.2772 -8.90274 2.11128e-06
525 1 9.43281 6.28918 15.7161 -8.88787 7.09011e-07
526 1 11.0043 7.86123 17.2764 -8.90498 1.71297e-06
527 1 12.5779 6.2894 15.7167 -8.88789 1.20457e-06
528 1 14.1499 7.86155 17.2789 -8.90253 6.3817e-06
529 1 15.7226 6.28984 15.7175 -8.88774 4.35541e-07
530 1 17.2938 7.86249 17.2799 -8.90284 6.77589e-07
531 1 18.8672 6.29001 15.7172 -8.8881 2.33335e-08
532 1 20.4387 7.86244 17.279 -8.90309 2.92991e-08
533 1 22.0118 9.43461 15.7168 -8.8882 3.06533e-08
534 1 1.5698 11.007 17.2784 -8.9031 8.80195e-08
535 1 3.14273 9.43451 15.7163 -8.88816 2.53584e-08
536 1 4.71438 11.007 17.2779 -8.90284 2.95596e-08
537 1 6.28715 9.43429 15.7156 -8.88785 4.57727e-07
538 1 7.85818 11.007 17.2755 -8.90514 1.11974e-06
539 1 9.43174 9.43379 15.7139 -8.88737 2.367e-06
540 1 11.0038 11.007 17.2691 -8.9163 3.85431e-05
541 1 12.578 9.43388 15.7147 -8.88742 3.85684e-06
542 1 14.1496 11.007 17.2774 -8.90483 2.99566e-06
543 1 15.7225 9.43449 15.7173 -8.8879 1.71162e-06
544 1 17.2936 11.007 17.2799 -8.90279 1.25475e-06
545 1 18.8669 9.43465 15.7175 -8.88818 8.6638e-08
546 1 20.4385 11.007 17.2792 -8.90308 4.35402e-08
547 1 22.0118 12.5793 15.7168 -8.8882 3.06533e-08
548 1 1.5701 14.1516 17.2783 -8.90311 1.0639e-07
549 1 3.14273 12.5794 15.7163 -8.88816 2.53584e-08
550 1 4.71483 14.1519 17.2781 -8.90291 1.94603e-08
551 1 6.28715 12.5796 15.7156 -8.88785 4.57727e-07
552 1 7.85863 14.1529 17.2772 -8.90274 2.11128e-06
553 1 9.43174 12.5801 15.7139 -8.88737 2.367e-06
554 1 11.0043 14.1527 17.2764 -8.90498 1.71297e-06
555 1 12.578 12.58 15.7147 -8.88742 3.85684e-06
556 1 14.1499 14.1524 17.2789 -8.90253 6.3817e-06
557 1 15.7225 12.5794 15.7173 -8.8879 1.71162e-06
558 1 17.2938 14.1514 17.2799 -8.90284 6.77589e-07
559 1 18.8669 12.5792 15.7175 -8.88818 8.6638e-08
560 1 20.4387 14.1515 17.279 -8.90309 2.92991e-08
561 1 22.0121 15.724 15.7165 -8.88817 9.59435e-08
562 1 1.57074 17.2964 17.2778 -8.90303 2.11416e-07
563 1 3.14321 15.7242 15.7162 -8.88808 1.03585e-07
564 1 4.71588 17.2964 17.2781 -8.90325 1.2759e-07
565 1 6.28793 15.7245 15.7162 -8.88768 1.18226e-07
566 1 7.86044 17.2967 17.2784 -8.90291 7.49986e-08
567 1 9.43281 15.7247 15.7161 -8.88787 7.09011e-07
568 1 11.0052 17.2966 17.2788 -8.90282 3.7323e-07
569 1 12.5779 15.7245 15.7167 -8.88789 1.20457e-06
570 1 14.1499 17.2962 17.2795 -8.90284 4.05857e-07
571 1 15.7226 15.7241 15.7175 -8.88774 4.35541e-07
572 1 17.2942 17.2958 17.2793 -8.90324 4.01771e-08
573 1 18.8672 15.7239 15.7172 -8.8881 2.33335e-08
574 1 20.4393 17.2961 17.2783 -8.90304 1.12443e-07
575 1 22.0126 18.8689 15.716 -8.88819 2.24312e-07
576 1 1.57114 20.4414 17.2774 -8.90299 3.3683e-07
577 1 3.14376 18.869 15.7159 -8.88817 2.52245e-07
578 1 4.71628 20.4414 17.2776 -8.90304 3.1653e-07
579 1 6.2887 18.8691 15.7161 -8.88809 1.82557e-07
580 1 7.86116 20.4414 17.2781 -8.90313 2.47104e-07
581 1 9.43358 18.8691 15.7166 -8.88817 1.33646e-07
582 1 11.0059 20.4413 17.2786 -8.9031 1.95748e-07
583 1 12.5783 18.869 15.717 -8.88817 1.04992e-07
584 1 14.1504 20.4412 17.2788 -8.90308 1.57279e-07