ITEM: TIMESTEP
78
ITEM: NUMBER OF ATOMS
736
ITEM: BOX BOUNDS pp pp pp
0.0000000000000000e+00 2.2013900999999997e+01
0.0000000000000000e+00 2.2013900999999997e+01
0.0000000000000000e+00 5.3462330999999999e+01
ITEM: ATOMS id type x y z c_pot c_ke
1 1 4.00975e-05 8.72657e-16 0.0940206 -7.40176 0.000350394
2 1 1.57247 1.57243 1.62087 -8.68384 0.000318789
3 1 3.1449 1.62988e-16 0.0940531 -7.40178 0.000353762
4 1 4.71732 1.57244 1.62092 -8.68384 0.000323247
5 1 6.28974 22.0139 0.0940912 -7.40179 0.000355488
6 1 7.86214 1.57244 1.62097 -8.68384 0.000323924
7 1 9.43454 22.0139 0.0941062 -7.4018 0.000354298
8 1 11.007 1.57244 1.62096 -8.68384 0.000320371
9 1 12.5794 22.0139 0.0940869 -7.40179 0.000351119
10 1 14.1518 1.57243 1.62091 -8.68384 0.00031529
11 1 15.7242 1.13726e-15 0.0940477 -7.40178 0.000348312
12 1 17.2966 1.57243 1.62086 -8.68384 0.000312435
13 1 18.8691 22.0139 0.0940182 -7.40176 0.000347968
14 1 20.4415 1.57243 1.62084 -8.68384 0.000313954
15 1 4.13005e-05 3.14487 0.0940334 -7.40177 0.000350374
16 1 1.57248 4.71729 1.6209 -8.68384 0.00031945
17 1 3.14491 3.14487 0.094068 -7.40178 0.00035417
18 1 4.71733 4.7173 1.62097 -8.68384 0.000325551
19 1 6.28974 3.14487 0.0941085 -7.4018 0.000356238
20 1 7.86214 4.7173 1.62101 -8.68385 0.000327155
21 1 9.43454 3.14487 0.0941243 -7.4018 0.000355027
22 1 11.007 4.7173 1.62101 -8.68385 0.000322939
23 1 12.5794 3.14487 0.0941036 -7.4018 0.000351469
24 1 14.1518 4.71729 1.62095 -8.68384 0.000316167
25 1 15.7242 3.14487 0.094062 -7.40178 0.000348235
26 1 17.2966 4.71729 1.62089 -8.68384 0.00031202
27 1 18.8691 3.14487 0.0940307 -7.40177 0.000347738
28 1 20.4415 4.71729 1.62087 -8.68384 0.000313501
29 1 4.39947e-05 6.28972 0.0940622 -7.40178 0.000350321
30 1 1.57248 7.86213 1.62095 -8.68384 0.00032022
31 1 3.14491 6.28972 0.0941015 -7.4018 0.000355058
32 1 4.71733 7.86213 1.62102 -8.68385 0.000328401
33 1 6.28974 6.28972 0.0941474 -7.40181 0.000357934
34 1 7.86215 7.86213 1.62107 -8.68385 0.000331322
35 1 9.43455 6.28973 0.0941651 -7.40182 0.000356706
36 1 11.007 7.86213 1.62107 -8.68385 0.00032627
37 1 12.5794 6.28972 0.0941412 -7.40181 0.00035226
38 1 14.1518 7.86213 1.621 -8.68385 0.000317232
39 1 15.7242 6.28972 0.094094 -7.40179 0.000348033
40 1 17.2966 7.86213 1.62093 -8.68384 0.000311444
41 1 18.8691 6.28972 0.0940589 -7.40178 0.000347213
42 1 20.4415 7.86213 1.62091 -8.68384 0.000312911
43 1 4.61449e-05 9.43454 0.0940853 -7.40179 0.000350267
44 1 1.57248 11.007 1.62096 -8.68384 0.000320545
45 1 3.14491 9.43454 0.0941283 -7.40181 0.00035575
46 1 4.71733 11.007 1.62104 -8.68385 0.000329666
47 1 6.28974 9.43455 0.0941785 -7.40183 0.000359304
48 1 7.86215 11.007 1.6211 -8.68385 0.000333226
49 1 9.43455 9.43455 0.0941978 -7.40183 0.000358096
50 1 11.007 11.007 1.62109 -8.68385 0.000327803
51 1 12.5793 9.43455 0.0941714 -7.40182 0.000352904
52 1 14.1518 11.007 1.62103 -8.68385 0.000317698
53 1 15.7242 9.43454 0.0941196 -7.4018 0.000347849
54 1 17.2966 11.007 1.62095 -8.68384 0.000311169
55 1 18.8691 9.43454 0.0940814 -7.40179 0.00034678
56 1 20.4415 11.007 1.62093 -8.68384 0.000312638
57 1 4.61449e-05 12.5794 0.0940853 -7.40179 0.000350267
58 1 1.57248 14.1518 1.62095 -8.68384 0.00032022
59 1 3.14491 12.5794 0.0941283 -7.40181 0.00035575
60 1 4.71733 14.1518 1.62102 -8.68385 0.000328401
61 1 6.28974 12.5794 0.0941785 -7.40183 0.000359304
62 1 7.86215 14.1518 1.62107 -8.68385 0.000331322
63 1 9.43455 12.5794 0.0941978 -7.40183 0.000358096
64 1 11.007 14.1518 1.62107 -8.68385 0.00032627
65 1 12.5793 12.5794 0.0941714 -7.40182 0.000352904
66 1 14.1518 14.1518 1.621 -8.68385 0.000317232
67 1 15.7242 12.5794 0.0941196 -7.4018 0.000347849
68 1 17.2966 14.1518 1.62093 -8.68384 0.000311444
69 1 18.8691 12.5794 0.0940814 -7.40179 0.00034678
70 1 20.4415 14.1518 1.62091 -8.68384 0.000312911
71 1 4.39947e-05 15.7242 0.0940622 -7.40178 0.000350321
72 1 1.57248 17.2966 1.6209 -8.68384 0.00031945
73 1 3.14491 15.7242 0.0941015 -7.4018 0.000355058
74 1 4.71733 17.2966 1.62097 -8.68384 0.000325551
75 1 6.28974 15.7242 0.0941474 -7.40181 0.000357934
76 1 7.86214 17.2966 1.62101 -8.68385 0.000327155
77 1 9.43455 15.7242 0.0941651 -7.40182 0.000356706
78 1 11.007 17.2966 1.62101 -8.68385 0.000322939
79 1 12.5794 15.7242 0.0941412 -7.40181 0.00035226
80 1 14.1518 17.2966 1.62095 -8.68384 0.000316167
81 1 15.7242 15.7242 0.094094 -7.40179 0.000348033
82 1 17.2966 17.2966 1.62089 -8.68384 0.00031202
83 1 18.8691 15.7242 0.0940589 -7.40178 0.000347213
84 1 20.4415 17.2966 1.62087 -8.68384 0.000313501
85 1 4.13005e-05 18.869 0.0940334 -7.40177 0.000350374
86 1 1.57247 20.4415 1.62087 -8.68384 0.000318789
87 1 3.14491 18.869 0.094068 -7.40178 0.00035417
88 1 4.71732 20.4415 1.62092 -8.68384 0.000323247
89 1 6.28974 18.869 0.0941085 -7.4018 0.000356238
90 1 7.86214 20.4415 1.62097 -8.68384 0.000323924
91 1 9.43454 18.869 0.0941243 -7.4018 0.000355027
92 1 11.007 20.4415 1.62096 -8.68384 0.000320371
93 1 12.5794 18.869 0.0941036 -7.4018 0.000351469
94 1 14.1518 20.4415 1.62091 -8.68384 0.00031529
95 1 15.7242 18.869 0.094062 -7.40178 0.000348235
96 1 17.2966 20.4415 1.62086 -8.68384 0.000312435
97 1 18.8691 18.869 0.0940307 -7.40177 0.000347738
98 1 20.4415 20.4415 1.62084 -8.68384 0.000313954
99 1 4.66642e-05 1.46615e-15 3.15104 -8.93805 0.000283982
100 1 1.5725 1.57244 4.74049 -8.90304 0.000246684
101 1 3.14491 1.39011e-15 3.15109 -8.93805 0.000290446
102 1 4.71734 1.57244 4.74057 -8.90304 0.000255701
103 1 6.28974 22.0139 3.15115 -8.93804 0.000294461
104 1 7.86216 1.57244 4.74062 -8.90304 0.000258844
105 1 9.43455 22.0139 3.15117 -8.93804 0.000293028
106 1 11.007 1.57244 4.74061 -8.90304 0.000253877
107 1 12.5794 22.0139 3.15114 -8.93804 0.000287337
108 1 14.1518 1.57244 4.74055 -8.90304 0.00024464
109 1 15.7242 1.05646e-15 3.15108 -8.93805 0.000281614
110 1 17.2966 1.57243 4.74047 -8.90304 0.000237929
111 1 18.8691 22.0139 3.15104 -8.93805 0.000280072
112 1 20.4415 1.57243 4.74045 -8.90304 0.000238748
113 1 4.84293e-05 3.14486 3.15106 -8.93805 0.000284288
114 1 1.5725 4.7173 4.74053 -8.90304 0.000249715
115 1 3.14491 3.14487 3.15112 -8.93804 0.000292084
116 1 4.71735 4.71731 4.74063 -8.90304 0.000263652
117 1 6.28974 3.14487 3.15118 -8.93803 0.000297502
118 1 7.86216 4.71731 4.74069 -8.90304 0.000270298
119 1 9.43455 3.14487 3.15121 -8.93803 0.000296355
120 1 11.007 4.71731 4.74068 -8.90304 0.000264042
121 1 12.5794 3.14487 3.15117 -8.93804 0.000289559
122 1 14.1518 4.7173 4.7406 -8.90304 0.000249962
123 1 15.7242 3.14486 3.1511 -8.93805 0.000282308
124 1 17.2966 4.71729 4.74052 -8.90304 0.000239144
125 1 18.8691 3.14486 3.15105 -8.93805 0.000279989
126 1 20.4415 4.71729 4.74049 -8.90304 0.000239211
127 1 5.2358e-05 6.28971 3.1511 -8.93805 0.000284924
128 1 1.57251 7.86213 4.74059 -8.90304 0.000253334
129 1 3.14491 6.28971 3.15117 -8.93804 0.000295667
130 1 4.71736 7.86214 4.7407 -8.90304 0.000273589
131 1 6.28975 6.28972 3.15125 -8.93802 0.00030448
132 1 7.86217 7.86214 4.74078 -8.90303 0.000285426
133 1 9.43455 6.28972 3.15128 -8.93802 0.000304158
134 1 11.007 7.86214 4.74077 -8.90303 0.00027748
135 1 12.5794 6.28972 3.15123 -8.93803 0.000294656
136 1 14.1518 7.86214 4.74067 -8.90304 0.000256557
137 1 15.7242 6.28971 3.15115 -8.93804 0.000283762
138 1 17.2966 7.86213 4.74057 -8.90304 0.000240459
139 1 18.8691 6.28971 3.1511 -8.93805 0.000279747
140 1 20.4415 7.86213 4.74054 -8.90304 0.00023969
141 1 5.5476e-05 9.43454 3.15114 -8.93804 0.000285385
142 1 1.57252 11.007 4.74062 -8.90304 0.000254901
143 1 3.14492 9.43454 3.15121 -8.93803 0.000298488
144 1 4.71737 11.007 4.74073 -8.90304 0.000278051
145 1 6.28975 9.43454 3.1513 -8.93802 0.000310213
146 1 7.86217 11.007 4.74082 -8.90303 0.000292443
147 1 9.43455 9.43454 3.15133 -8.93801 0.000310728
148 1 11.007 11.007 4.74081 -8.90303 0.000283751
149 1 12.5794 9.43454 3.15128 -8.93802 0.000298863
150 1 14.1518 11.007 4.7407 -8.90304 0.000259491
151 1 15.7242 9.43454 3.15119 -8.93803 0.000284855
152 1 17.2966 11.007 4.74059 -8.90304 0.000240982
153 1 18.8691 9.43454 3.15113 -8.93804 0.0002795
154 1 20.4415 11.007 4.74056 -8.90304 0.000239871
155 1 5.5476e-05 12.5794 3.15114 -8.93804 0.000285385
156 1 1.57251 14.1518 4.74059 -8.90304 0.000253334
157 1 3.14492 12.5794 3.15121 -8.93803 0.000298488
158 1 4.71736 14.1518 4.7407 -8.90304 0.000273589
159 1 6.28975 12.5794 3.1513 -8.93802 0.000310213
160 1 7.86217 14.1518 4.74078 -8.90303 0.000285426
161 1 9.43455 12.5794 3.15133 -8.93801 0.000310728
162 1 11.007 14.1518 4.74077 -8.90303 0.00027748
163 1 12.5794 12.5794 3.15128 -8.93802 0.000298863
164 1 14.1518 14.1518 4.74067 -8.90304 0.000256557
165 1 15.7242 12.5794 3.15119 -8.93803 0.000284855
166 1 17.2966 14.1518 4.74057 -8.90304 0.000240459
167 1 18.8691 12.5794 3.15113 -8.93804 0.0002795
168 1 20.4415 14.1518 4.74054 -8.90304 0.00023969
169 1 5.2358e-05 15.7242 3.1511 -8.93805 0.000284924
170 1 1.5725 17.2966 4.74053 -8.90304 0.000249715
171 1 3.14491 15.7242 3.15117 -8.93804 0.000295667
172 1 4.71735 17.2966 4.74063 -8.90304 0.000263652
173 1 6.28975 15.7242 3.15125 -8.93802 0.00030448
174 1 7.86216 17.2966 4.74069 -8.90304 0.000270298
175 1 9.43455 15.7242 3.15128 -8.93802 0.000304158
176 1 11.007 17.2966 4.74068 -8.90304 0.000264042
177 1 12.5794 15.7242 3.15123 -8.93803 0.000294656
178 1 14.1518 17.2966 4.7406 -8.90304 0.000249962
179 1 15.7242 15.7242 3.15115 -8.93804 0.000283762
180 1 17.2966 17.2966 4.74052 -8.90304 0.000239144
181 1 18.8691 15.7242 3.1511 -8.93805 0.000279747
182 1 20.4415 17.2966 4.74049 -8.90304 0.000239211
183 1 4.84293e-05 18.869 3.15106 -8.93805 0.000284288
184 1 1.5725 20.4415 4.74049 -8.90304 0.000246684
185 1 3.14491 18.869 3.15112 -8.93804 0.000292084
186 1 4.71734 20.4415 4.74057 -8.90304 0.000255701
187 1 6.28974 18.869 3.15118 -8.93803 0.000297502
188 1 7.86216 20.4415 4.74062 -8.90304 0.000258844
189 1 9.43455 18.869 3.15121 -8.93803 0.000296355
190 1 11.007 20.4415 4.74061 -8.90304 0.000253877
191 1 12.5794 18.869 3.15117 -8.93804 0.000289559
192 1 14.1518 20.4415 4.74055 -8.90304 0.00024464
193 1 15.7242 18.869 3.1511 -8.93805 0.000282308
194 1 17.2966 20.4415 4.74047 -8.90304 0.000237929
195 1 18.8691 18.869 3.15105 -8.93805 0.000279989
196 1 20.4415 20.4415 4.74045 -8.90304 0.000238748
197 1 8.79515e-05 1.47037e-15 6.30235 -8.88812 0.000189409
198 1 1.57258 1.57245 7.87178 -8.90468 0.000155565
199 1 3.14496 22.0139 6.30244 -8.88812 0.000202098
200 1 4.71742 1.57247 7.87191 -8.90467 0.000175408
201 1 6.28978 22.0139 6.30253 -8.88812 0.000211628
202 1 7.8622 1.57247 7.872 -8.90467 0.000184446
203 1 9.43457 7.16448e-16 6.30256 -8.88812 0.000210864
204 1 11.007 1.57247 7.87198 -8.90467 0.000176098
205 1 12.5794 22.0139 6.30251 -8.88812 0.000200727
206 1 14.1518 1.57246 7.87187 -8.90468 0.00015709
207 1 15.7242 1.6388e-15 6.30241 -8.88812 0.000188701
208 1 17.2966 1.57245 7.87175 -8.90468 0.000141455
209 1 18.8691 22.0139 6.30234 -8.88812 0.000183544
210 1 20.4416 1.57245 7.87171 -8.90468 0.000140628
211 1 9.30872e-05 3.14488 6.30238 -8.88812 0.000191014
212 1 1.5726 4.71733 7.87185 -8.90468 0.000165126
213 1 3.14497 3.14489 6.30248 -8.88812 0.000207664
214 1 4.71745 4.71736 7.87203 -8.90467 0.000201424
215 1 6.28979 3.1449 6.30258 -8.88811 0.000221984
216 1 7.86222 4.71738 7.87214 -8.90466 0.00022369
217 1 9.43457 3.1449 6.30261 -8.88811 0.000222545
218 1 11.007 4.71738 7.87212 -8.90466 0.000211088
219 1 12.5794 3.1449 6.30255 -8.88812 0.000209023
220 1 14.1518 4.71735 7.87197 -8.90467 0.000175205
221 1 15.7242 3.14488 6.30245 -8.88812 0.000192091
222 1 17.2966 4.71732 7.87181 -8.90468 0.000146398
223 1 18.8691 3.14487 6.30237 -8.88812 0.000184333
224 1 20.4416 4.71732 7.87176 -8.90468 0.000143153
225 1 0.000104409 6.28973 6.30245 -8.88812 0.000194398
226 1 1.57262 7.86216 7.87195 -8.90467 0.000176579
227 1 3.14499 6.28974 6.30256 -8.88812 0.000219858
228 1 4.71748 7.86219 7.87217 -8.90466 0.000234948
229 1 6.2898 6.28976 6.3027 -8.88811 0.000246827
230 1 7.86224 7.8622 7.87233 -8.90463 0.000280169
231 1 9.43457 6.28976 6.30274 -8.8881 0.000251542
232 1 11.007 7.8622 7.8723 -8.90463 0.000261189
233 1 12.5794 6.28975 6.30266 -8.88811 0.000228733
234 1 14.1517 7.86218 7.8721 -8.90466 0.000198097
235 1 15.7242 6.28974 6.30252 -8.88812 0.000199264
236 1 17.2966 7.86215 7.8719 -8.90468 0.000151764
237 1 18.8691 6.28973 6.30243 -8.88812 0.00018585
238 1 20.4416 7.86215 7.87184 -8.90468 0.000145905
239 1 0.000113331 9.43455 6.3025 -8.88812 0.000196957
240 1 1.57263 11.007 7.87199 -8.90467 0.000181591
241 1 3.145 9.43455 6.30263 -8.88811 0.000229567
242 1 4.7175 11.007 7.87223 -8.90465 0.000250485
243 1 6.28982 9.43456 6.30279 -8.8881 0.000267817
244 1 7.86225 11.007 7.87242 -8.90461 0.000307537
245 1 9.43458 9.43456 6.30285 -8.88809 0.000277029
246 1 11.0069 11.007 7.87238 -8.90462 0.000285793
247 1 12.5793 9.43456 6.30275 -8.8881 0.000245434
248 1 14.1517 11.007 7.87215 -8.90466 0.000208471
249 1 15.7242 9.43455 6.30258 -8.88812 0.000204737
250 1 17.2966 11.007 7.87193 -8.90468 0.000153927
251 1 18.8691 9.43455 6.30248 -8.88812 0.000186865
252 1 20.4416 11.007 7.87187 -8.90468 0.000147019
253 1 0.000113331 12.5794 6.3025 -8.88812 0.000196957
254 1 1.57262 14.1517 7.87195 -8.90467 0.000176579
255 1 3.145 12.5793 6.30263 -8.88811 0.000229567
256 1 4.71748 14.1517 7.87217 -8.90466 0.000234948
257 1 6.28982 12.5793 6.30279 -8.8881 0.000267817
258 1 7.86224 14.1517 7.87233 -8.90463 0.000280169
259 1 9.43458 12.5793 6.30285 -8.88809 0.000277029
260 1 11.007 14.1517 7.8723 -8.90463 0.000261189
261 1 12.5793 12.5793 6.30275 -8.8881 0.000245434
262 1 14.1517 14.1517 7.8721 -8.90466 0.000198097
263 1 15.7242 12.5794 6.30258 -8.88812 0.000204737
264 1 17.2966 14.1517 7.8719 -8.90468 0.000151764
265 1 18.8691 12.5794 6.30248 -8.88812 0.000186865
266 1 20.4416 14.1518 7.87184 -8.90468 0.000145905
267 1 0.000104409 15.7242 6.30245 -8.88812 0.000194398
268 1 1.5726 17.2966 7.87185 -8.90468 0.000165126
269 1 3.14499 15.7242 6.30256 -8.88812 0.000219858
270 1 4.71745 17.2965 7.87203 -8.90467 0.000201424
271 1 6.2898 15.7241 6.3027 -8.88811 0.000246827
272 1 7.86222 17.2965 7.87214 -8.90466 0.00022369
273 1 9.43457 15.7241 6.30274 -8.8881 0.000251542
274 1 11.007 17.2965 7.87212 -8.90466 0.000211088
275 1 12.5794 15.7241 6.30266 -8.88811 0.000228733
276 1 14.1518 17.2966 7.87197 -8.90467 0.000175205
277 1 15.7242 15.7242 6.30252 -8.88812 0.000199264
278 1 17.2966 17.2966 7.87181 -8.90468 0.000146398
279 1 18.8691 15.7242 6.30243 -8.88812 0.00018585
280 1 20.4416 17.2966 7.87176 -8.90468 0.000143153
281 1 9.30872e-05 18.869 6.30238 -8.88812 0.000191014
282 1 1.57258 20.4414 7.87178 -8.90468 0.000155565
283 1 3.14497 18.869 6.30248 -8.88812 0.000207664
284 1 4.71742 20.4414 7.87191 -8.90467 0.000175408
285 1 6.28979 18.869 6.30258 -8.88811 0.000221984
286 1 7.8622 20.4414 7.872 -8.90467 0.000184446
287 1 9.43457 18.869 6.30261 -8.88811 0.000222545
288 1 11.007 20.4414 7.87198 -8.90467 0.000176098
289 1 12.5794 18.869 6.30255 -8.88812 0.000209023
290 1 14.1518 20.4414 7.87187 -8.90468 0.00015709
291 1 15.7242 18.869 6.30245 -8.88812 0.000192091
292 1 17.2966 20.4415 7.87175 -8.90468 0.000141455
293 1 18.8691 18.869 6.30237 -8.88812 0.000184333
294 1 20.4416 20.4415 7.87171 -8.90468 0.000140628
295 1 0.000169476 1.79724e-15 9.44019 -8.89868 0.000101207
296 1 1.57272 1.57249 11.0086 -8.90011 8.51358e-05
297 1 3.14507 22.0139 9.44033 -8.89868 0.000125492
298 1 4.71758 1.57253 11.0088 -8.9001 0.00012546
299 1 6.28987 6.17771e-16 9.44049 -8.89867 0.000145144
300 1 7.86229 1.57255 11.009 -8.90009 0.000144339
301 1 9.4346 8.23691e-16 9.44054 -8.89867 0.000145037
302 1 11.007 1.57254 11.0089 -8.90009 0.000127953
303 1 12.5793 1.83673e-15 9.44045 -8.89868 0.000126572
304 1 14.1517 1.57251 11.0087 -8.9001 9.07434e-05
305 1 15.7242 1.60692e-15 9.44028 -8.89868 0.000103205
306 1 17.2966 1.57247 11.0085 -8.90011 6.04282e-05
307 1 18.8691 22.0139 9.44017 -8.89868 9.17804e-05
308 1 20.4416 1.57247 11.0084 -8.9001 5.81817e-05
309 1 0.000183994 3.14491 9.44024 -8.89868 0.000105707
310 1 1.57278 4.71741 11.0087 -8.9001 0.000110765
311 1 3.1451 3.14495 9.44041 -8.89868 0.000141351
312 1 4.71767 4.71751 11.0091 -8.90009 0.000209134
313 1 6.28989 3.14498 9.44061 -8.89867 0.000177134
314 1 7.86234 4.71757 11.0093 -8.90006 0.000282915
315 1 9.4346 3.14499 9.44067 -8.89867 0.000181528
316 1 11.0069 4.71755 11.0093 -8.90006 0.000247112
317 1 12.5793 3.14497 9.44055 -8.89867 0.000151435
318 1 14.1517 4.71746 11.0089 -8.90009 0.000143106
319 1 15.7242 3.14493 9.44035 -8.89868 0.000112593
320 1 17.2966 4.71738 11.0086 -8.9001 7.15272e-05
321 1 18.8691 3.1449 9.44021 -8.89868 9.41574e-05
322 1 20.4417 4.71736 11.0085 -8.9001 6.38469e-05
323 1 0.000215383 6.28977 9.44034 -8.89868 0.000114952
324 1 1.57285 7.86222 11.0089 -8.9001 0.000141684
325 1 3.14515 6.28981 9.44058 -8.89868 0.00017737
326 1 4.71778 7.86231 11.0094 -8.90007 0.000326108
327 1 6.28995 6.28987 9.44087 -8.89865 0.000263652
328 1 7.86242 7.86237 11.0098 -8.89991 0.000529505
329 1 9.43461 6.28988 9.44097 -8.89864 0.000286165
330 1 11.0069 7.86235 11.0097 -8.89995 0.000455626
331 1 12.5793 6.28985 9.44078 -8.89866 0.000216828
332 1 14.1516 7.86227 11.0092 -8.90008 0.000213463
333 1 15.7242 6.28979 9.44048 -8.89868 0.000132571
334 1 17.2966 7.8622 11.0088 -8.9001 8.23244e-05
335 1 18.8691 6.28976 9.4403 -8.89868 9.84093e-05
336 1 20.4417 7.86218 11.0086 -8.9001 6.95351e-05
337 1 0.000239845 9.43457 9.44042 -8.89867 0.000121928
338 1 1.57288 11.007 11.009 -8.90009 0.000155551
339 1 3.1452 9.43459 9.44071 -8.89867 0.000206803
340 1 4.71782 11.007 11.0095 -8.90006 0.000383594
341 1 6.29 9.43461 9.44108 -8.89864 0.000341222
342 1 7.86246 11.007 11.0101 -8.89988 0.000654621
343 1 9.43463 9.43462 9.44122 -8.89861 0.000387783
344 1 11.0069 11.007 11.0099 -8.8999 0.000567054
345 1 12.5793 9.4346 9.44097 -8.89865 0.000276001
346 1 14.1516 11.007 11.0093 -8.90008 0.000246282
347 1 15.7241 9.43457 9.44059 -8.89868 0.000147618
348 1 17.2966 11.007 11.0088 -8.9001 8.63197e-05
349 1 18.8691 9.43456 9.44037 -8.89867 0.000101122
350 1 20.4417 11.007 11.0087 -8.9001 7.17646e-05
351 1 0.000239845 12.5793 9.44042 -8.89867 0.000121928
352 1 1.57285 14.1517 11.0089 -8.9001 0.000141684
353 1 3.1452 12.5793 9.44071 -8.89867 0.000206803
354 1 4.71778 14.1516 11.0094 -8.90007 0.000326108
355 1 6.29 12.5793 9.44108 -8.89864 0.000341222
356 1 7.86242 14.1515 11.0098 -8.89991 0.000529505
357 1 9.43463 12.5793 9.44122 -8.89861 0.000387783
358 1 11.0069 14.1516 11.0097 -8.89995 0.000455626
359 1 12.5793 12.5793 9.44097 -8.89865 0.000276001
360 1 14.1516 14.1516 11.0092 -8.90008 0.000213463
361 1 15.7241 12.5793 9.44059 -8.89868 0.000147618
362 1 17.2966 14.1517 11.0088 -8.9001 8.23244e-05
363 1 18.8691 12.5793 9.44037 -8.89867 0.000101122
364 1 20.4417 14.1517 11.0086 -8.9001 6.95351e-05
365 1 0.000215383 15.7241 9.44034 -8.89868 0.000114952
366 1 1.57278 17.2965 11.0087 -8.9001 0.000110765
367 1 3.14515 15.7241 9.44058 -8.89868 0.00017737
368 1 4.71767 17.2964 11.0091 -8.90009 0.000209134
369 1 6.28995 15.724 9.44087 -8.89865 0.000263652
370 1 7.86234 17.2963 11.0093 -8.90006 0.000282915
371 1 9.43461 15.724 9.44097 -8.89864 0.000286165
372 1 11.0069 17.2964 11.0093 -8.90006 0.000247112
373 1 12.5793 15.7241 9.44078 -8.89866 0.000216828
374 1 14.1517 17.2964 11.0089 -8.90009 0.000143106
375 1 15.7242 15.7241 9.44048 -8.89868 0.000132571
376 1 17.2966 17.2965 11.0086 -8.9001 7.15272e-05
377 1 18.8691 15.7241 9.4403 -8.89868 9.84093e-05
378 1 20.4417 17.2965 11.0085 -8.9001 6.38469e-05
379 1 0.000183994 18.869 9.44024 -8.89868 0.000105707
380 1 1.57272 20.4414 11.0086 -8.90011 8.51358e-05
381 1 3.1451 18.869 9.44041 -8.89868 0.000141351
382 1 4.71758 20.4414 11.0088 -8.9001 0.00012546
383 1 6.28989 18.8689 9.44061 -8.89867 0.000177134
384 1 7.86229 20.4414 11.009 -8.90009 0.000144339
385 1 9.4346 18.8689 9.44067 -8.89867 0.000181528
386 1 11.007 20.4414 11.0089 -8.90009 0.000127953
387 1 12.5793 18.8689 9.44055 -8.89867 0.000151435
388 1 14.1517 20.4414 11.0087 -8.9001 9.07434e-05
389 1 15.7242 18.869 9.44035 -8.89868 0.000112593
390 1 17.2966 20.4414 11.0085 -8.90011 6.04282e-05
391 1 18.8691 18.869 9.44021 -8.89868 9.41574e-05
392 1 20.4416 20.4414 11.0084 -8.9001 5.81817e-05
393 1 0.000303265 1.15146e-15 12.5767 -8.89869 4.14443e-05
394 1 3.14527 22.0139 12.577 -8.89871 8.32775e-05
395 1 6.29003 22.0139 12.5772 -8.89869 0.000115484
396 1 9.43465 22.0139 12.5773 -8.89869 0.000110881
397 1 12.5793 -1.49968e-15 12.5772 -8.89869 7.983e-05
398 1 15.7241 22.0139 12.5769 -8.8987 4.25747e-05
399 1 18.8691 22.0139 12.5767 -8.89869 2.55055e-05
400 1 0.000342163 3.14497 12.5768 -8.89869 5.18343e-05
401 1 3.14534 3.14507 12.5771 -8.89872 0.000127376
402 1 6.2901 3.14519 12.5775 -8.8987 0.000221933
403 1 9.43466 3.14522 12.5776 -8.89869 0.000233247
404 1 12.5793 3.14514 12.5774 -8.8987 0.000154841
405 1 15.7241 3.14501 12.577 -8.89871 6.40593e-05
406 1 18.8692 3.14494 12.5767 -8.89869 2.95335e-05
407 1 0.000424189 6.28983 12.577 -8.89869 7.30352e-05
408 1 3.1455 6.28997 12.5775 -8.89871 0.000238653
409 1 6.2903 6.29017 12.5782 -8.89868 0.000570565
410 1 9.43471 6.29022 12.5784 -8.89865 0.000676771
411 1 12.5792 6.29009 12.5779 -8.89869 0.000390352
412 1 15.7241 6.28989 12.5772 -8.8987 0.000111983
413 1 18.8692 6.2898 12.5769 -8.89868 3.51551e-05
414 1 0.000486844 9.43459 12.5771 -8.89869 8.90385e-05
415 1 3.14562 9.43465 12.5777 -8.89871 0.000331287
416 1 6.29046 9.43475 12.5787 -8.89868 0.000903184
417 1 9.43475 9.43477 12.5791 -8.89838 0.00118343
418 1 12.5791 9.43471 12.5784 -8.89869 0.000628004
419 1 15.724 9.43462 12.5774 -8.89871 0.000144588
420 1 18.8692 9.43458 12.577 -8.89868 3.74933e-05
421 1 0.000486844 12.5793 12.5771 -8.89869 8.90385e-05
422 1 3.14562 12.5792 12.5777 -8.89871 0.000331287
423 1 6.29046 12.5792 12.5787 -8.89868 0.000903184
424 1 9.43475 12.5791 12.5791 -8.89838 0.00118343
425 1 12.5791 12.5792 12.5784 -8.89869 0.000628004
426 1 15.724 12.5793 12.5774 -8.89871 0.000144588
427 1 18.8692 12.5793 12.577 -8.89868 3.74933e-05
428 1 0.000424189 15.7241 12.577 -8.89869 7.30352e-05
429 1 3.1455 15.7239 12.5775 -8.89871 0.000238653
430 1 6.2903 15.7237 12.5782 -8.89868 0.000570565
431 1 9.43471 15.7237 12.5784 -8.89865 0.000676771
432 1 12.5792 15.7238 12.5779 -8.89869 0.000390352
433 1 15.7241 15.724 12.5772 -8.8987 0.000111983
434 1 18.8692 15.7241 12.5769 -8.89868 3.51551e-05
435 1 0.000342163 18.8689 12.5768 -8.89869 5.18343e-05
436 1 3.14534 18.8688 12.5771 -8.89872 0.000127376
437 1 6.2901 18.8687 12.5775 -8.8987 0.000221933
438 1 9.43466 18.8687 12.5776 -8.89869 0.000233247
439 1 12.5793 18.8688 12.5774 -8.8987 0.000154841
440 1 15.7241 18.8689 12.577 -8.89871 6.40593e-05
441 1 18.8692 18.869 12.5767 -8.89869 2.95335e-05
442 1 1.57294 1.57255 14.1453 -8.90469 5.99021e-05
443 1 4.71785 1.57266 14.1457 -8.90469 0.00014026
444 1 7.86245 1.57273 14.146 -8.90467 0.000170354
445 1 11.0069 1.5727 14.146 -8.90467 0.000131155
446 1 14.1516 1.5726 14.1456 -8.90469 6.22143e-05
447 1 17.2966 1.57251 14.1452 -8.90469 1.29702e-05
448 1 20.4417 1.57249 14.1451 -8.90468 1.37598e-05
449 1 1.5731 4.71755 14.1456 -8.90469 0.00012993
450 1 4.71812 4.71785 14.1463 -8.90475 0.000425687
451 1 7.86263 4.71807 14.1469 -8.90466 0.000723939
452 1 11.0069 4.718 14.1468 -8.90468 0.000580147
453 1 14.1515 4.71771 14.146 -8.90474 0.000212747
454 1 17.2966 4.71746 14.1454 -8.90468 3.23201e-05
455 1 20.4418 4.71741 14.1452 -8.90467 2.30376e-05
456 1 1.57328 7.86233 14.1459 -8.90468 0.000214537
457 1 4.71844 7.86259 14.147 -8.90471 0.000867835
458 1 7.86294 7.86288 14.1484 -8.90426 0.00196859
459 1 11.0068 7.86281 14.1481 -8.90442 0.00156926
460 1 14.1514 7.86246 14.1466 -8.90473 0.000436626
461 1 17.2966 7.86225 14.1456 -8.90468 4.41452e-05
462 1 20.4419 7.86222 14.1454 -8.90466 3.14856e-05
463 1 1.57336 11.007 14.146 -8.90468 0.000253563
464 1 4.71858 11.007 14.1473 -8.90474 0.00108539
465 1 7.8631 11.007 14.1491 -8.90448 0.00251903
466 1 11.0068 11.007 14.1487 -8.9045 0.00213144
467 1 14.1514 11.007 14.1468 -8.90475 0.00053365
468 1 17.2966 11.007 14.1457 -8.90468 4.61332e-05
469 1 20.4419 11.007 14.1455 -8.90466 3.50975e-05
470 1 1.57328 14.1516 14.1459 -8.90468 0.000214537
471 1 4.71844 14.1513 14.147 -8.90471 0.000867835
472 1 7.86294 14.151 14.1484 -8.90426 0.00196859
473 1 11.0068 14.1511 14.1481 -8.90442 0.00156926
474 1 14.1514 14.1514 14.1466 -8.90473 0.000436626
475 1 17.2966 14.1517 14.1456 -8.90468 4.41452e-05
476 1 20.4419 14.1517 14.1454 -8.90466 3.14856e-05
477 1 1.5731 17.2964 14.1456 -8.90469 0.00012993
478 1 4.71812 17.296 14.1463 -8.90475 0.000425687
479 1 7.86263 17.2958 14.1469 -8.90466 0.000723939
480 1 11.0069 17.2959 14.1468 -8.90468 0.000580147
481 1 14.1515 17.2962 14.146 -8.90474 0.000212747
482 1 17.2966 17.2964 14.1454 -8.90468 3.23201e-05
483 1 20.4418 17.2965 14.1452 -8.90467 2.30376e-05
484 1 1.57294 20.4414 14.1453 -8.90469 5.99021e-05
485 1 4.71785 20.4412 14.1457 -8.90469 0.00014026
486 1 7.86245 20.4412 14.146 -8.90467 0.000170354
487 1 11.0069 20.4412 14.146 -8.90467 0.000131155
488 1 14.1516 20.4413 14.1456 -8.90469 6.22143e-05
489 1 17.2966 20.4414 14.1452 -8.90469 1.29702e-05
490 1 20.4417 20.4414 14.1451 -8.90468 1.37598e-05
491 1 0.000459464 5.56322e-16 15.7144 -8.88816 2.61659e-05
492 1 1.57316 1.57261 17.2764 -8.903 9.38148e-05
493 1 3.14551 6.59587e-16 15.7148 -8.88821 8.46118e-05
494 1 4.71821 1.57291 17.277 -8.90304 0.000240682
495 1 6.29025 9.24083e-16 15.7152 -8.88815 0.000120217
496 1 7.86268 1.5731 17.2775 -8.90289 0.000272901
497 1 9.43472 22.0139 15.7154 -8.88814 8.81926e-05
498 1 11.0069 1.57303 17.2774 -8.90294 0.000176064
499 1 12.5793 22.0139 15.7151 -8.88815 4.9407e-05
500 1 14.1515 1.57277 17.2768 -8.90305 6.96739e-05
501 1 15.7241 22.0139 15.7146 -8.88819 1.23872e-05
502 1 17.2967 1.57253 17.2763 -8.903 1.31764e-05
503 1 18.8692 22.0139 15.7143 -8.88815 6.4001e-07
504 1 20.4419 1.5725 17.2761 -8.90299 2.45012e-05
505 1 0.00054787 3.14503 15.7145 -8.88817 4.65043e-05
506 1 1.57353 4.71773 17.2768 -8.90304 0.000255403
507 1 3.14569 3.14528 15.715 -8.88823 0.000194447
508 1 4.71894 4.71856 17.2781 -8.90332 0.000929495
509 1 6.29047 3.14564 15.7158 -8.88816 0.00047296
510 1 7.86326 4.71931 17.2794 -8.90294 0.00210586
511 1 9.43478 3.14571 15.716 -8.88816 0.000502925
512 1 11.0068 4.71905 17.2791 -8.90307 0.00155317
513 1 12.5792 3.14548 15.7156 -8.88817 0.000265297
514 1 14.1513 4.71816 17.2777 -8.9033 0.000353336
515 1 15.724 3.14513 15.7148 -8.8882 5.2252e-05
516 1 17.2966 4.71752 17.2765 -8.90303 3.40004e-05
517 1 18.8692 3.14497 15.7144 -8.88815 4.12472e-06
518 1 20.442 4.71743 17.2763 -8.90296 3.88755e-05
519 1 0.000736112 6.2899 15.7148 -8.88814 9.41243e-05
520 1 1.57391 7.86246 17.2773 -8.90298 0.000439674
521 1 3.14611 6.29025 15.7157 -8.88819 0.000524945
522 1 4.71979 7.86323 17.2795 -8.90318 0.002193
523 1 6.29112 6.29093 15.7174 -8.88821 0.00174161
524 1 7.86472 7.86474 17.2839 -8.9045 0.00419657
525 1 9.43494 6.29112 15.718 -8.88787 0.00234417
526 1 11.0064 7.86442 17.283 -8.90502 0.00374365
527 1 12.5789 6.29066 15.7169 -8.88808 0.00103057
528 1 14.1512 7.86282 17.2787 -8.90342 0.000959126
529 1 15.7239 6.29003 15.7153 -8.88813 0.00015033
530 1 17.2967 7.86225 17.2768 -8.90299 2.07661e-05
531 1 18.8693 6.28983 15.7146 -8.88812 5.68174e-06
532 1 20.4422 7.86221 17.2765 -8.90294 5.91221e-05
533 1 0.000871932 9.43462 15.715 -8.88813 0.000130518
534 1 1.57404 11.007 17.2775 -8.90299 0.000509896
535 1 3.14638 9.43477 15.7162 -8.88818 0.000773616
536 1 4.72008 11.007 17.2801 -8.9034 0.00271306
537 1 6.29158 9.43508 15.7186 -8.88793 0.00303994
538 1 7.86534 11.007 17.2853 -8.90659 0.00669336
539 1 9.4352 9.43524 15.7204 -8.88529 0.00474324
540 1 11.0065 11.007 17.2847 -8.90527 0.00880672
541 1 12.5789 9.43498 15.7179 -8.88802 0.00207376
542 1 14.1513 11.007 17.279 -8.90374 0.00114583
543 1 15.724 9.43467 15.7156 -8.88812 0.000186693
544 1 17.2968 11.007 17.2769 -8.90302 7.62544e-06
545 1 18.8693 9.43458 15.7148 -8.88812 4.00761e-06
546 1 20.4423 11.007 17.2766 -8.90295 7.23628e-05
547 1 0.000871932 12.5793 15.715 -8.88813 0.000130518
548 1 1.57391 14.1514 17.2773 -8.90298 0.000439674
549 1 3.14638 12.5791 15.7162 -8.88818 0.000773616
550 1 4.71979 14.1507 17.2795 -8.90318 0.002193
551 1 6.29158 12.5788 15.7186 -8.88793 0.00303994
552 1 7.86472 14.1492 17.2839 -8.9045 0.00419657
553 1 9.4352 12.5787 15.7204 -8.88529 0.00474324
554 1 11.0064 14.1495 17.283 -8.90502 0.00374365
555 1 12.5789 12.5789 15.7179 -8.88802 0.00207376
556 1 14.1512 14.1511 17.2787 -8.90342 0.000959126
557 1 15.724 12.5792 15.7156 -8.88812 0.000186693
558 1 17.2967 14.1517 17.2768 -8.90299 2.07661e-05
559 1 18.8693 12.5793 15.7148 -8.88812 4.00761e-06
560 1 20.4422 14.1517 17.2765 -8.90294 5.91221e-05
561 1 0.000736112 15.724 15.7148 -8.88814 9.41243e-05
562 1 1.57353 17.2962 17.2768 -8.90304 0.000255403
563 1 3.14611 15.7237 15.7157 -8.88819 0.000524945
564 1 4.71894 17.2953 17.2781 -8.90332 0.000929495
565 1 6.29112 15.723 15.7174 -8.88821 0.00174161
566 1 7.86326 17.2946 17.2794 -8.90294 0.00210586
567 1 9.43494 15.7228 15.718 -8.88787 0.00234417
568 1 11.0068 17.2948 17.2791 -8.90307 0.00155317
569 1 12.5789 15.7232 15.7169 -8.88808 0.00103057
570 1 14.1513 17.2957 17.2777 -8.9033 0.000353336
571 1 15.7239 15.7239 15.7153 -8.88813 0.00015033
572 1 17.2966 17.2964 17.2765 -8.90303 3.40004e-05
573 1 18.8693 15.7241 15.7146 -8.88812 5.68174e-06
574 1 20.442 17.2965 17.2763 -8.90296 3.88755e-05
575 1 0.00054787 18.8689 15.7145 -8.88817 4.65043e-05
576 1 1.57316 20.4413 17.2764 -8.903 9.38148e-05
577 1 3.14569 18.8686 15.715 -8.88823 0.000194447
578 1 4.71821 20.441 17.277 -8.90304 0.000240682
579 1 6.29047 18.8683 15.7158 -8.88816 0.00047296
580 1 7.86268 20.4408 17.2775 -8.90289 0.000272901
581 1 9.43478 18.8682 15.716 -8.88816 0.000502925
582 1 11.0069 20.4409 17.2774 -8.90294 0.000176064
583 1 12.5792 18.8684 15.7156 -8.88817 0.000265297
584 1 14.1515 20.4411 17.2768 -8.90305 6.96739e-05
585 1 15.724 18.8688 15.7148 -8.8882 5.2252e-05
586 1 17.2967 20.4414 17.2763 -8.903 1.31764e-05