ITEM: TIMESTEP
118
ITEM: NUMBER OF ATOMS
736
ITEM: BOX BOUNDS pp pp pp
0.0000000000000000e+00 2.2013900999999997e+01
0.0000000000000000e+00 2.2013900999999997e+01
0.0000000000000000e+00 5.3462330999999999e+01
ITEM: ATOMS id type x y z c_pot c_ke
1 1 0.000112061 6.15199e-17 0.0966459 -7.40175 3.90308e-05
2 1 1.57256 1.57245 1.62338 -8.68379 3.47416e-05
3 1 3.14501 4.04849e-16 0.0966538 -7.40175 3.4901e-05
4 1 4.71745 1.57245 1.62342 -8.68379 3.03746e-05
5 1 6.28989 1.07251e-15 0.0967028 -7.40177 3.33245e-05
6 1 7.86231 1.57245 1.6235 -8.6838 3.03965e-05
7 1 9.43472 1.26313e-15 0.0967559 -7.40179 3.55259e-05
8 1 11.0071 1.57245 1.62356 -8.6838 3.48479e-05
9 1 12.5795 5.84306e-16 0.0967731 -7.4018 3.97574e-05
10 1 14.1519 1.57245 1.62355 -8.6838 4.05525e-05
11 1 15.7243 1.00985e-15 0.0967415 -7.40179 4.28303e-05
12 1 17.2967 1.57245 1.62349 -8.6838 4.30702e-05
13 1 18.8691 9.80741e-16 0.0966849 -7.40176 4.25243e-05
14 1 20.4416 1.57245 1.62341 -8.6838 4.04077e-05
15 1 0.000109881 3.1449 0.0966726 -7.40176 3.89698e-05
16 1 1.57255 4.71732 1.62344 -8.6838 3.42302e-05
17 1 3.14502 3.1449 0.0966807 -7.40177 3.45029e-05
18 1 4.71745 4.71732 1.62349 -8.6838 2.84748e-05
19 1 6.28989 3.14491 0.0967343 -7.40179 3.23741e-05
20 1 7.86231 4.71733 1.62359 -8.6838 2.67525e-05
21 1 9.43472 3.14491 0.0967929 -7.40181 3.41843e-05
22 1 11.0071 4.71734 1.62366 -8.68381 3.02186e-05
23 1 12.5795 3.14492 0.0968123 -7.40182 3.84941e-05
24 1 14.1519 4.71734 1.62365 -8.68381 3.67232e-05
25 1 15.7243 3.14491 0.096778 -7.4018 4.20839e-05
26 1 17.2967 4.71734 1.62357 -8.68381 4.13068e-05
27 1 18.8691 3.14491 0.0967158 -7.40178 4.23225e-05
28 1 20.4416 4.71733 1.62348 -8.6838 4.00823e-05
29 1 0.000104986 6.28976 0.0967326 -7.40178 3.89131e-05
30 1 1.57255 7.86215 1.62353 -8.6838 3.36896e-05
31 1 3.14502 6.28976 0.0967415 -7.40179 3.36823e-05
32 1 4.71745 7.86216 1.62358 -8.6838 2.60996e-05
33 1 6.2899 6.28976 0.0968053 -7.40182 3.02321e-05
34 1 7.86231 7.86216 1.6237 -8.68381 2.20175e-05
35 1 9.43472 6.28977 0.0968762 -7.40185 3.1025e-05
36 1 11.0071 7.86217 1.62379 -8.68382 2.40627e-05
37 1 12.5795 6.28978 0.0969007 -7.40186 3.54721e-05
38 1 14.1519 7.86217 1.62378 -8.68382 3.15638e-05
39 1 15.7243 6.28977 0.0968601 -7.40184 4.03495e-05
40 1 17.2967 7.86216 1.62368 -8.68381 3.8994e-05
41 1 18.8691 6.28977 0.0967852 -7.40181 4.19288e-05
42 1 20.4416 7.86216 1.62357 -8.6838 3.97636e-05
43 1 0.000101067 9.43456 0.0967807 -7.4018 3.89434e-05
44 1 1.57255 11.007 1.62356 -8.6838 3.348e-05
45 1 3.14502 9.43456 0.0967904 -7.40181 3.30918e-05
46 1 4.71745 11.007 1.62362 -8.6838 2.50412e-05
47 1 6.2899 9.43456 0.0968625 -7.40184 2.85103e-05
48 1 7.86231 11.007 1.62375 -8.68381 1.98656e-05
49 1 9.43472 9.43457 0.0969431 -7.40188 2.83628e-05
50 1 11.0071 11.007 1.62384 -8.68382 2.12374e-05
51 1 12.5795 9.43457 0.0969717 -7.40189 3.28838e-05
52 1 14.1519 11.007 1.62384 -8.68382 2.91534e-05
53 1 15.7243 9.43457 0.0969261 -7.40187 3.8906e-05
54 1 17.2967 11.007 1.62373 -8.68382 3.79235e-05
55 1 18.8691 9.43456 0.0968409 -7.40183 4.16669e-05
56 1 20.4415 11.007 1.62361 -8.68381 3.96499e-05
57 1 0.000101067 12.5793 0.0967807 -7.4018 3.89434e-05
58 1 1.57255 14.1517 1.62353 -8.6838 3.36896e-05
59 1 3.14502 12.5793 0.0967904 -7.40181 3.30918e-05
60 1 4.71745 14.1517 1.62358 -8.6838 2.60996e-05
61 1 6.2899 12.5793 0.0968625 -7.40184 2.85103e-05
62 1 7.86231 14.1517 1.6237 -8.68381 2.20175e-05
63 1 9.43472 12.5793 0.0969431 -7.40188 2.83628e-05
64 1 11.0071 14.1517 1.62379 -8.68382 2.40627e-05
65 1 12.5795 12.5793 0.0969717 -7.40189 3.28838e-05
66 1 14.1519 14.1517 1.62378 -8.68382 3.15638e-05
67 1 15.7243 12.5793 0.0969261 -7.40187 3.8906e-05
68 1 17.2967 14.1517 1.62368 -8.68381 3.8994e-05
69 1 18.8691 12.5793 0.0968409 -7.40183 4.16669e-05
70 1 20.4416 14.1517 1.62357 -8.6838 3.97636e-05
71 1 0.000104986 15.7241 0.0967326 -7.40178 3.89131e-05
72 1 1.57255 17.2966 1.62344 -8.6838 3.42302e-05
73 1 3.14502 15.7241 0.0967415 -7.40179 3.36823e-05
74 1 4.71745 17.2966 1.62349 -8.6838 2.84748e-05
75 1 6.2899 15.7241 0.0968053 -7.40182 3.02321e-05
76 1 7.86231 17.2966 1.62359 -8.6838 2.67525e-05
77 1 9.43472 15.7241 0.0968762 -7.40185 3.1025e-05
78 1 11.0071 17.2966 1.62366 -8.68381 3.02186e-05
79 1 12.5795 15.7241 0.0969007 -7.40186 3.54721e-05
80 1 14.1519 17.2966 1.62365 -8.68381 3.67232e-05
81 1 15.7243 15.7241 0.0968601 -7.40184 4.03495e-05
82 1 17.2967 17.2966 1.62357 -8.68381 4.13068e-05
83 1 18.8691 15.7241 0.0967852 -7.40181 4.19288e-05
84 1 20.4416 17.2966 1.62348 -8.6838 4.00823e-05
85 1 0.000109881 18.869 0.0966726 -7.40176 3.89698e-05
86 1 1.57256 20.4415 1.62338 -8.68379 3.47416e-05
87 1 3.14502 18.869 0.0966807 -7.40177 3.45029e-05
88 1 4.71745 20.4415 1.62342 -8.68379 3.03746e-05
89 1 6.28989 18.869 0.0967343 -7.40179 3.23741e-05
90 1 7.86231 20.4414 1.6235 -8.6838 3.03965e-05
91 1 9.43472 18.869 0.0967929 -7.40181 3.41843e-05
92 1 11.0071 20.4414 1.62356 -8.6838 3.48479e-05
93 1 12.5795 18.869 0.0968123 -7.40182 3.84941e-05
94 1 14.1519 20.4414 1.62355 -8.6838 4.05525e-05
95 1 15.7243 18.869 0.096778 -7.4018 4.20839e-05
96 1 17.2967 20.4414 1.62349 -8.6838 4.30702e-05
97 1 18.8691 18.869 0.0967158 -7.40178 4.23225e-05
98 1 20.4416 20.4415 1.62341 -8.6838 4.04077e-05
99 1 0.000102039 -1.91176e-16 3.15349 -8.93809 3.71556e-05
100 1 1.57253 1.57245 4.74279 -8.90302 3.42668e-05
101 1 3.145 1.49879e-17 3.15349 -8.93809 3.15881e-05
102 1 4.71744 1.57245 4.74283 -8.90302 2.90047e-05
103 1 6.28988 8.62218e-16 3.15357 -8.93808 2.87866e-05
104 1 7.86231 1.57245 4.74294 -8.90302 2.69915e-05
105 1 9.43472 6.19934e-16 3.15365 -8.93807 3.06679e-05
106 1 11.0071 1.57246 4.74303 -8.90302 2.97088e-05
107 1 12.5795 3.29621e-16 3.15369 -8.93806 3.60979e-05
108 1 14.1519 1.57246 4.74303 -8.90302 3.56883e-05
109 1 15.7243 9.60103e-16 3.15365 -8.93807 4.10392e-05
110 1 17.2967 1.57246 4.74295 -8.90302 4.01798e-05
111 1 18.8691 5.40143e-16 3.15356 -8.93808 4.14763e-05
112 1 20.4415 1.57245 4.74284 -8.90302 3.93605e-05
113 1 9.73369e-05 3.14489 3.15353 -8.93808 3.66811e-05
114 1 1.57252 4.71733 4.74287 -8.90302 3.27786e-05
115 1 3.14499 3.14489 3.15354 -8.93808 3.06519e-05
116 1 4.71743 4.71732 4.74292 -8.90302 2.58406e-05
117 1 6.28988 3.14489 3.15361 -8.93808 2.67073e-05
118 1 7.8623 4.71733 4.74304 -8.90302 2.0755e-05
119 1 9.43472 3.14489 3.15371 -8.93806 2.7375e-05
120 1 11.0071 4.71734 4.74315 -8.90302 2.05854e-05
121 1 12.5795 3.1449 3.15375 -8.93805 3.24486e-05
122 1 14.1519 4.71735 4.74316 -8.90302 2.65404e-05
123 1 15.7243 3.1449 3.15371 -8.93806 3.84095e-05
124 1 17.2967 4.71735 4.74307 -8.90302 3.44345e-05
125 1 18.8691 3.14489 3.15361 -8.93807 4.03415e-05
126 1 20.4415 4.71734 4.74294 -8.90302 3.70917e-05
127 1 8.67611e-05 6.28974 3.15363 -8.93807 3.56497e-05
128 1 1.5725 7.86216 4.74298 -8.90302 3.08172e-05
129 1 3.14499 6.28974 3.15363 -8.93807 2.85553e-05
130 1 4.71742 7.86215 4.74303 -8.90302 2.1814e-05
131 1 6.28987 6.28974 3.15372 -8.93806 2.19739e-05
132 1 7.86229 7.86216 4.74317 -8.90302 1.33798e-05
133 1 9.43471 6.28975 3.15384 -8.93805 1.98445e-05
134 1 11.0071 7.86217 4.74331 -8.90302 9.88446e-06
135 1 12.5795 6.28975 3.15389 -8.93804 2.3961e-05
136 1 14.1519 7.86217 4.74332 -8.90302 1.50683e-05
137 1 15.7243 6.28976 3.15384 -8.93804 3.22059e-05
138 1 17.2967 7.86217 4.74321 -8.90302 2.67957e-05
139 1 18.8691 6.28975 3.15372 -8.93806 3.77103e-05
140 1 20.4415 7.86216 4.74306 -8.90302 3.40356e-05
141 1 7.8262e-05 9.43455 3.1537 -8.93806 3.48483e-05
142 1 1.57249 11.007 4.74302 -8.90302 2.98945e-05
143 1 3.14498 9.43455 3.1537 -8.93806 2.68697e-05
144 1 4.71741 11.007 4.74308 -8.90302 1.99938e-05
145 1 6.28987 9.43455 3.15381 -8.93805 1.81485e-05
146 1 7.86229 11.007 4.74323 -8.90303 1.03507e-05
147 1 9.43471 9.43456 3.15394 -8.93804 1.38322e-05
148 1 11.0071 11.007 4.74337 -8.90302 5.57988e-06
149 1 12.5795 9.43456 3.154 -8.93802 1.70353e-05
150 1 14.1519 11.007 4.74339 -8.90302 1.006e-05
151 1 15.7243 9.43456 3.15394 -8.93803 2.69644e-05
152 1 17.2967 11.007 4.74328 -8.90302 2.32179e-05
153 1 18.8691 9.43456 3.15381 -8.93805 3.54974e-05
154 1 20.4415 11.007 4.74311 -8.90302 3.25818e-05
155 1 7.8262e-05 12.5793 3.1537 -8.93806 3.48483e-05
156 1 1.5725 14.1517 4.74298 -8.90302 3.08172e-05
157 1 3.14498 12.5793 3.1537 -8.93806 2.68697e-05
158 1 4.71742 14.1517 4.74303 -8.90302 2.1814e-05
159 1 6.28987 12.5793 3.15381 -8.93805 1.81485e-05
160 1 7.86229 14.1517 4.74317 -8.90302 1.33798e-05
161 1 9.43471 12.5793 3.15394 -8.93804 1.38322e-05
162 1 11.0071 14.1517 4.74331 -8.90302 9.88446e-06
163 1 12.5795 12.5793 3.154 -8.93802 1.70353e-05
164 1 14.1519 14.1517 4.74332 -8.90302 1.50683e-05
165 1 15.7243 12.5793 3.15394 -8.93803 2.69644e-05
166 1 17.2967 14.1517 4.74321 -8.90302 2.67957e-05
167 1 18.8691 12.5793 3.15381 -8.93805 3.54974e-05
168 1 20.4415 14.1517 4.74306 -8.90302 3.40356e-05
169 1 8.67611e-05 15.7242 3.15363 -8.93807 3.56497e-05
170 1 1.57252 17.2966 4.74287 -8.90302 3.27786e-05
171 1 3.14499 15.7242 3.15363 -8.93807 2.85553e-05
172 1 4.71743 17.2966 4.74292 -8.90302 2.58406e-05
173 1 6.28987 15.7242 3.15372 -8.93806 2.19739e-05
174 1 7.8623 17.2966 4.74304 -8.90302 2.0755e-05
175 1 9.43471 15.7242 3.15384 -8.93805 1.98445e-05
176 1 11.0071 17.2966 4.74315 -8.90302 2.05854e-05
177 1 12.5795 15.7241 3.15389 -8.93804 2.3961e-05
178 1 14.1519 17.2966 4.74316 -8.90302 2.65404e-05
179 1 15.7243 15.7241 3.15384 -8.93804 3.22059e-05
180 1 17.2967 17.2966 4.74307 -8.90302 3.44345e-05
181 1 18.8691 15.7242 3.15372 -8.93806 3.77103e-05
182 1 20.4415 17.2966 4.74294 -8.90302 3.70917e-05
183 1 9.73369e-05 18.869 3.15353 -8.93808 3.66811e-05
184 1 1.57253 20.4415 4.74279 -8.90302 3.42668e-05
185 1 3.14499 18.869 3.15354 -8.93808 3.06519e-05
186 1 4.71744 20.4415 4.74283 -8.90302 2.90047e-05
187 1 6.28988 18.869 3.15361 -8.93808 2.67073e-05
188 1 7.86231 20.4415 4.74294 -8.90302 2.69915e-05
189 1 9.43472 18.869 3.15371 -8.93806 2.7375e-05
190 1 11.0071 20.4414 4.74303 -8.90302 2.97088e-05
191 1 12.5795 18.869 3.15375 -8.93805 3.24486e-05
192 1 14.1519 20.4414 4.74303 -8.90302 3.56883e-05
193 1 15.7243 18.869 3.15371 -8.93806 3.84095e-05
194 1 17.2967 20.4414 4.74295 -8.90302 4.01798e-05
195 1 18.8691 18.869 3.15361 -8.93807 4.03415e-05
196 1 20.4415 20.4414 4.74284 -8.90302 3.93605e-05
197 1 4.02e-05 4.40418e-17 6.30453 -8.88812 4.00272e-05
198 1 1.57244 1.57247 7.8737 -8.90468 4.5419e-05
199 1 3.14497 -1.23645e-17 6.30451 -8.88813 3.49618e-05
200 1 4.71741 1.57246 7.87374 -8.90468 4.1205e-05
201 1 6.28989 1.99715e-16 6.3046 -8.88812 3.0403e-05
202 1 7.86232 1.57247 7.87391 -8.90468 3.54106e-05
203 1 9.43475 -9.73972e-16 6.30474 -8.88812 2.90823e-05
204 1 11.0071 1.57248 7.87407 -8.90467 3.18961e-05
205 1 12.5795 -7.97401e-16 6.30481 -8.88812 3.2751e-05
206 1 14.1519 1.57249 7.87411 -8.90467 3.52952e-05
207 1 15.7243 2.77379e-16 6.30477 -8.88812 3.8991e-05
208 1 17.2966 1.57249 7.874 -8.90467 4.25285e-05
209 1 18.8691 3.62983e-16 6.30465 -8.88812 4.21852e-05
210 1 20.4414 1.57248 7.87382 -8.90468 4.65001e-05
211 1 2.46562e-05 3.14491 6.30459 -8.88812 3.88432e-05
212 1 1.5724 4.71736 7.87382 -8.90468 4.46225e-05
213 1 3.14496 3.1449 6.30456 -8.88812 3.40235e-05
214 1 4.71737 4.71735 7.87387 -8.90468 4.10119e-05
215 1 6.28988 3.1449 6.30466 -8.88812 2.79507e-05
216 1 7.86228 4.71736 7.87406 -8.90467 3.21989e-05
217 1 9.43474 3.14492 6.30482 -8.88812 2.38461e-05
218 1 11.0071 4.71739 7.87425 -8.90466 2.18729e-05
219 1 12.5795 3.14493 6.3049 -8.88811 2.53291e-05
220 1 14.1518 4.71741 7.87431 -8.90465 1.91443e-05
221 1 15.7243 3.14494 6.30486 -8.88811 3.24021e-05
222 1 17.2965 4.71742 7.87418 -8.90466 2.86889e-05
223 1 18.8691 3.14493 6.30472 -8.88812 3.86849e-05
224 1 20.4414 4.71739 7.87396 -8.90467 4.05976e-05
225 1 -1.0293e-05 6.28978 6.30472 -8.88812 3.57733e-05
226 1 1.57234 7.86219 7.87398 -8.90468 4.25008e-05
227 1 3.14493 6.28976 6.30469 -8.88812 3.1702e-05
228 1 4.71731 7.86217 7.87402 -8.90467 4.15741e-05
229 1 6.28986 6.28976 6.3048 -8.88812 2.31713e-05
230 1 7.86222 7.86217 7.87423 -8.90468 3.68537e-05
231 1 9.43471 6.28978 6.30499 -8.88812 1.45422e-05
232 1 11.007 7.86219 7.87446 -8.90467 2.49897e-05
233 1 12.5795 6.28979 6.3051 -8.88811 1.07747e-05
234 1 14.1518 7.86222 7.87455 -8.90465 7.84256e-06
235 1 15.7242 6.2898 6.30506 -8.88811 1.75809e-05
236 1 17.2965 7.86223 7.87441 -8.90465 1.11807e-05
237 1 18.869 6.2898 6.30488 -8.88811 3.01496e-05
238 1 20.4413 7.86221 7.87415 -8.90467 3.14009e-05
239 1 -3.84114e-05 9.43457 6.30483 -8.88812 3.28327e-05
240 1 1.57232 11.007 7.87404 -8.90467 4.10843e-05
241 1 3.14491 9.43456 6.30479 -8.88812 2.95817e-05
242 1 4.71729 11.007 7.87409 -8.90467 4.22209e-05
243 1 6.28983 9.43456 6.30492 -8.88812 2.03503e-05
244 1 7.8622 11.007 7.8743 -8.90468 4.31735e-05
245 1 9.43469 9.43457 6.30512 -8.88812 1.09127e-05
246 1 11.007 11.007 7.87454 -8.90469 3.44189e-05
247 1 12.5795 9.43458 6.30525 -8.88812 2.70095e-06
248 1 14.1517 11.007 7.87465 -8.90465 7.33189e-06
249 1 15.7242 9.43458 6.30521 -8.8881 6.10376e-06
250 1 17.2964 11.007 7.87451 -8.90465 3.41802e-06
251 1 18.869 9.43458 6.30502 -8.88811 2.25183e-05
252 1 20.4413 11.007 7.87423 -8.90467 2.65728e-05
253 1 -3.84114e-05 12.5793 6.30483 -8.88812 3.28327e-05
254 1 1.57234 14.1517 7.87398 -8.90468 4.25008e-05
255 1 3.14491 12.5793 6.30479 -8.88812 2.95817e-05
256 1 4.71731 14.1517 7.87402 -8.90467 4.15741e-05
257 1 6.28983 12.5793 6.30492 -8.88812 2.03503e-05
258 1 7.86222 14.1517 7.87423 -8.90468 3.68537e-05
259 1 9.43469 12.5793 6.30512 -8.88812 1.09127e-05
260 1 11.007 14.1517 7.87446 -8.90467 2.49897e-05
261 1 12.5795 12.5793 6.30525 -8.88812 2.70095e-06
262 1 14.1518 14.1517 7.87455 -8.90465 7.84256e-06
263 1 15.7242 12.5793 6.30521 -8.8881 6.10376e-06
264 1 17.2965 14.1517 7.87441 -8.90465 1.11807e-05
265 1 18.869 12.5793 6.30502 -8.88811 2.25183e-05
266 1 20.4413 14.1517 7.87415 -8.90467 3.14009e-05
267 1 -1.0293e-05 15.7241 6.30472 -8.88812 3.57733e-05
268 1 1.5724 17.2965 7.87382 -8.90468 4.46225e-05
269 1 3.14493 15.7241 6.30469 -8.88812 3.1702e-05
270 1 4.71737 17.2966 7.87387 -8.90468 4.10119e-05
271 1 6.28986 15.7241 6.3048 -8.88812 2.31713e-05
272 1 7.86228 17.2965 7.87406 -8.90467 3.21989e-05
273 1 9.43471 15.7241 6.30499 -8.88812 1.45422e-05
274 1 11.0071 17.2965 7.87425 -8.90466 2.18729e-05
275 1 12.5795 15.7241 6.3051 -8.88811 1.07747e-05
276 1 14.1518 17.2965 7.87431 -8.90465 1.91443e-05
277 1 15.7242 15.7241 6.30506 -8.88811 1.75809e-05
278 1 17.2965 17.2965 7.87418 -8.90466 2.86889e-05
279 1 18.869 15.7241 6.30488 -8.88811 3.01496e-05
280 1 20.4414 17.2965 7.87396 -8.90467 4.05976e-05
281 1 2.46562e-05 18.869 6.30459 -8.88812 3.88432e-05
282 1 1.57244 20.4414 7.8737 -8.90468 4.5419e-05
283 1 3.14496 18.869 6.30456 -8.88812 3.40235e-05
284 1 4.71741 20.4414 7.87374 -8.90468 4.1205e-05
285 1 6.28988 18.869 6.30466 -8.88812 2.79507e-05
286 1 7.86232 20.4414 7.87391 -8.90468 3.54106e-05
287 1 9.43474 18.869 6.30482 -8.88812 2.38461e-05
288 1 11.0071 20.4414 7.87407 -8.90467 3.18961e-05
289 1 12.5795 18.869 6.3049 -8.88811 2.53291e-05
290 1 14.1519 20.4414 7.87411 -8.90467 3.52952e-05
291 1 15.7243 18.869 6.30486 -8.88811 3.24021e-05
292 1 17.2966 20.4414 7.874 -8.90467 4.25285e-05
293 1 18.8691 18.869 6.30472 -8.88812 3.86849e-05
294 1 20.4414 20.4414 7.87382 -8.90468 4.65001e-05
295 1 -0.000121199 -2.15159e-16 9.44198 -8.89867 6.03342e-05
296 1 1.57222 1.57248 11.01 -8.90011 8.70998e-05
297 1 3.14486 -5.03479e-16 9.44192 -8.89867 6.09739e-05
298 1 4.71726 1.57246 11.01 -8.9001 9.2617e-05
299 1 6.28985 -7.41178e-16 9.44205 -8.89866 5.72097e-05
300 1 7.86224 1.57247 11.0103 -8.9001 8.54745e-05
301 1 9.43473 -6.25788e-16 9.44228 -8.89866 4.88413e-05
302 1 11.007 1.5725 11.0106 -8.90009 6.73486e-05
303 1 12.5795 -7.5886e-16 9.44243 -8.89866 4.41747e-05
304 1 14.1517 1.57254 11.0107 -8.90009 5.8031e-05
305 1 15.7242 -5.76372e-17 9.44239 -8.89866 4.89141e-05
306 1 17.2964 1.57254 11.0105 -8.90009 6.5096e-05
307 1 18.8689 -5.55072e-18 9.44219 -8.89866 5.63188e-05
308 1 20.4412 1.57252 11.0102 -8.90011 7.71272e-05
309 1 -0.00016548 3.14496 9.44208 -8.89866 5.90429e-05
310 1 1.5721 4.7174 11.0102 -8.9001 9.09443e-05
311 1 3.14482 3.14492 9.442 -8.89866 6.31634e-05
312 1 4.71713 4.71734 11.0102 -8.90007 0.000103774
313 1 6.28981 3.14491 9.44215 -8.89866 5.90658e-05
314 1 7.86209 4.71733 11.0105 -8.90007 0.000103947
315 1 9.43469 3.14494 9.4424 -8.89866 4.6164e-05
316 1 11.0069 4.71741 11.0109 -8.90006 8.36953e-05
317 1 12.5794 3.14499 9.44258 -8.89865 3.41992e-05
318 1 14.1516 4.71749 11.011 -8.90005 4.67601e-05
319 1 15.7241 3.14501 9.44255 -8.89865 3.59359e-05
320 1 17.2962 4.71753 11.0108 -8.90006 3.68469e-05
321 1 18.8689 3.145 9.44232 -8.89866 4.82399e-05
322 1 20.441 4.71748 11.0104 -8.9001 6.35201e-05
323 1 -0.000264952 6.28983 9.44228 -8.89866 5.36979e-05
324 1 1.57194 7.86221 11.0104 -8.9001 9.10298e-05
325 1 3.14473 6.28978 9.44218 -8.89866 6.7456e-05
326 1 4.71695 7.86215 11.0104 -8.90008 0.000127679
327 1 6.2897 6.28976 9.44234 -8.89865 7.15867e-05
328 1 7.86187 7.86212 11.0107 -8.9001 0.000198076
329 1 9.43458 6.28978 9.44263 -8.89865 6.81729e-05
330 1 11.0067 7.86216 11.0111 -8.90009 0.000249252
331 1 12.5793 6.28984 9.44288 -8.89864 4.26152e-05
332 1 14.1514 7.86225 11.0114 -8.90005 0.000133812
333 1 15.724 6.28988 9.44286 -8.89863 1.69531e-05
334 1 17.2961 7.86231 11.0112 -8.90005 1.67981e-05
335 1 18.8687 6.28988 9.44259 -8.89865 2.80161e-05
336 1 20.4409 7.86228 11.0108 -8.90009 3.96286e-05
337 1 -0.000345085 9.43459 9.44245 -8.89866 4.6581e-05
338 1 1.57187 11.007 11.0105 -8.9001 8.91174e-05
339 1 3.14465 9.43457 9.44233 -8.89866 7.02222e-05
340 1 4.71686 11.007 11.0105 -8.90008 0.000143624
341 1 6.28961 9.43456 9.44248 -8.89865 9.41434e-05
342 1 7.86177 11.007 11.0107 -8.90012 0.000279293
343 1 9.43449 9.43456 9.44276 -8.8987 0.000127704
344 1 11.0066 11.007 11.0111 -8.90028 0.000403191
345 1 12.5793 9.43458 9.44306 -8.89869 9.61186e-05
346 1 14.1514 11.007 11.0115 -8.90006 0.0002234
347 1 15.7239 9.43461 9.4431 -8.89863 1.69458e-05
348 1 17.296 11.007 11.0114 -8.90004 1.54457e-05
349 1 18.8687 9.43461 9.44281 -8.89865 9.71164e-06
350 1 20.4408 11.007 11.0109 -8.90009 2.63336e-05
351 1 -0.000345085 12.5793 9.44245 -8.89866 4.6581e-05
352 1 1.57194 14.1517 11.0104 -8.9001 9.10298e-05
353 1 3.14465 12.5793 9.44233 -8.89866 7.02222e-05
354 1 4.71695 14.1518 11.0104 -8.90008 0.000127679
355 1 6.28961 12.5793 9.44248 -8.89865 9.41434e-05
356 1 7.86187 14.1518 11.0107 -8.9001 0.000198076
357 1 9.43449 12.5793 9.44276 -8.8987 0.000127704
358 1 11.0067 14.1517 11.0111 -8.90009 0.000249252
359 1 12.5793 12.5793 9.44306 -8.89869 9.61186e-05
360 1 14.1514 14.1517 11.0114 -8.90005 0.000133812
361 1 15.7239 12.5793 9.4431 -8.89863 1.69458e-05
362 1 17.2961 14.1516 11.0112 -8.90005 1.67981e-05
363 1 18.8687 12.5793 9.44281 -8.89865 9.71164e-06
364 1 20.4409 14.1516 11.0108 -8.90009 3.96286e-05
365 1 -0.000264952 15.7241 9.44228 -8.89866 5.36979e-05
366 1 1.5721 17.2965 11.0102 -8.9001 9.09443e-05
367 1 3.14473 15.7241 9.44218 -8.89866 6.7456e-05
368 1 4.71713 17.2966 11.0102 -8.90007 0.000103774
369 1 6.2897 15.7241 9.44234 -8.89865 7.15867e-05
370 1 7.86209 17.2966 11.0105 -8.90007 0.000103947
371 1 9.43458 15.7241 9.44263 -8.89865 6.81729e-05
372 1 11.0069 17.2965 11.0109 -8.90006 8.36953e-05
373 1 12.5793 15.7241 9.44288 -8.89864 4.26152e-05
374 1 14.1516 17.2964 11.011 -8.90005 4.67601e-05
375 1 15.724 15.724 9.44286 -8.89863 1.69531e-05
376 1 17.2962 17.2964 11.0108 -8.90006 3.68469e-05
377 1 18.8687 15.724 9.44259 -8.89865 2.80161e-05
378 1 20.441 17.2964 11.0104 -8.9001 6.35201e-05
379 1 -0.00016548 18.8689 9.44208 -8.89866 5.90429e-05
380 1 1.57222 20.4414 11.01 -8.90011 8.70998e-05
381 1 3.14482 18.869 9.442 -8.89866 6.31634e-05
382 1 4.71726 20.4414 11.01 -8.9001 9.2617e-05
383 1 6.28981 18.869 9.44215 -8.89866 5.90658e-05
384 1 7.86224 20.4414 11.0103 -8.9001 8.54745e-05
385 1 9.43469 18.869 9.4424 -8.89866 4.6164e-05
386 1 11.007 20.4414 11.0106 -8.90009 6.73486e-05
387 1 12.5794 18.8689 9.44258 -8.89865 3.41992e-05
388 1 14.1517 20.4414 11.0107 -8.90009 5.8031e-05
389 1 15.7241 18.8689 9.44255 -8.89865 3.59359e-05
390 1 17.2964 20.4414 11.0105 -8.90009 6.5096e-05
391 1 18.8689 18.8689 9.44232 -8.89866 4.82399e-05
392 1 20.4412 20.4414 11.0102 -8.90011 7.71272e-05
393 1 -0.000436675 -2.21901e-16 12.5781 -8.89868 0.000114349
394 1 3.14462 -9.38467e-16 12.578 -8.89868 0.000128827
395 1 6.28968 -2.12563e-15 12.5782 -8.89868 0.00013952
396 1 9.4346 -2.05067e-15 12.5785 -8.89869 0.000127966
397 1 12.5793 -1.03864e-15 12.5788 -8.89868 0.00010456
398 1 15.7239 5.29727e-16 12.5788 -8.89868 9.67712e-05
399 1 18.8686 5.04914e-16 12.5784 -8.89869 0.000103963
400 1 22.0134 3.14501 12.5782 -8.89868 0.000112863
401 1 3.14451 3.14493 12.5781 -8.89867 0.000135167
402 1 6.28955 3.14488 12.5783 -8.89865 0.000141888
403 1 9.43447 3.14493 12.5787 -8.89866 0.000123779
404 1 12.5792 3.14504 12.5791 -8.89866 8.75159e-05
405 1 15.7238 3.14512 12.579 -8.89865 6.77743e-05
406 1 18.8684 3.14511 12.5786 -8.89868 8.40252e-05
407 1 22.0131 6.28989 12.5786 -8.89868 0.000101097
408 1 3.14425 6.28976 12.5784 -8.89865 0.00014687
409 1 6.28921 6.28965 12.5785 -8.89856 0.00018771
410 1 9.43413 6.28967 12.579 -8.89861 0.000283439
411 1 12.5789 6.28982 12.5795 -8.8986 0.000266506
412 1 15.7235 6.28997 12.5796 -8.89854 9.18114e-05
413 1 18.8682 6.29 12.5791 -8.89866 3.82627e-05
414 1 22.0129 9.43462 12.5788 -8.89868 8.22136e-05
415 1 3.14403 9.43456 12.5786 -8.89865 0.000156366
416 1 6.28891 9.43449 12.5787 -8.89861 0.000305874
417 1 9.43379 9.43444 12.5789 -8.89875 0.000699548
418 1 12.5787 9.43451 12.5795 -8.89874 0.00077888
419 1 15.7233 9.43464 12.5799 -8.89858 0.000247126
420 1 18.868 9.43466 12.5795 -8.89866 5.07801e-06
421 1 22.0129 12.5793 12.5788 -8.89868 8.22136e-05
422 1 3.14403 12.5793 12.5786 -8.89865 0.000156366
423 1 6.28891 12.5794 12.5787 -8.89861 0.000305874
424 1 9.43379 12.5795 12.5789 -8.89875 0.000699548
425 1 12.5787 12.5794 12.5795 -8.89874 0.00077888
426 1 15.7233 12.5793 12.5799 -8.89858 0.000247126
427 1 18.868 12.5792 12.5795 -8.89866 5.07801e-06
428 1 22.0131 15.724 12.5786 -8.89868 0.000101097
429 1 3.14425 15.7241 12.5784 -8.89865 0.00014687
430 1 6.28921 15.7242 12.5785 -8.89856 0.00018771
431 1 9.43413 15.7242 12.579 -8.89861 0.000283439
432 1 12.5789 15.7241 12.5795 -8.8986 0.000266506
433 1 15.7235 15.7239 12.5796 -8.89854 9.18114e-05
434 1 18.8682 15.7239 12.5791 -8.89866 3.82627e-05
435 1 22.0134 18.8689 12.5782 -8.89868 0.000112863
436 1 3.14451 18.869 12.5781 -8.89867 0.000135167
437 1 6.28955 18.869 12.5783 -8.89865 0.000141888
438 1 9.43447 18.869 12.5787 -8.89866 0.000123779
439 1 12.5792 18.8689 12.5791 -8.89866 8.75159e-05
440 1 15.7238 18.8688 12.579 -8.89865 6.77743e-05
441 1 18.8684 18.8688 12.5786 -8.89868 8.40252e-05
442 1 1.57185 1.5725 14.1462 -8.90469 0.000163394
443 1 4.71695 1.57245 14.1463 -8.90468 0.000190266
444 1 7.86197 1.57245 14.1467 -8.9047 0.000200472
445 1 11.0068 1.57253 14.1472 -8.90469 0.000173891
446 1 14.1514 1.57262 14.1473 -8.90469 0.000140784
447 1 17.2959 1.57264 14.1471 -8.90468 0.000135729
448 1 20.4407 1.57258 14.1465 -8.90469 0.000146518
449 1 1.57155 4.71742 14.1465 -8.90468 0.000169571
450 1 4.71661 4.71727 14.1466 -8.90465 0.000185376
451 1 7.86156 4.71721 14.147 -8.90467 0.00020312
452 1 11.0064 4.71738 14.1476 -8.90466 0.000235411
453 1 14.1511 4.71761 14.148 -8.90465 0.000153117
454 1 17.2956 4.71773 14.1477 -8.90467 7.0297e-05
455 1 20.4404 4.71761 14.147 -8.90469 0.000112977
456 1 1.57117 7.86222 14.1469 -8.90469 0.000160268
457 1 4.7161 7.86204 14.1468 -8.90467 0.000206624
458 1 7.86083 7.86182 14.1469 -8.90446 0.000537298
459 1 11.0059 7.86192 14.1475 -8.90465 0.00115023
460 1 14.1508 7.86216 14.1483 -8.90433 0.000831825
461 1 17.2952 7.86242 14.1483 -8.90465 0.000110179
462 1 20.44 7.86237 14.1475 -8.90469 5.58532e-05
463 1 1.57099 11.007 14.147 -8.90469 0.000150224
464 1 4.71588 11.007 14.1469 -8.90467 0.000244949
465 1 7.86053 11.007 14.1468 -8.9047 0.000910042
466 1 11.0056 11.007 14.1468 -8.90671 0.00208798
467 1 14.1506 11.007 14.1483 -8.90459 0.00149704
468 1 17.295 11.007 14.1486 -8.90465 0.000190008
469 1 20.4398 11.007 14.1477 -8.90469 2.59433e-05
470 1 1.57117 14.1517 14.1469 -8.90469 0.000160268
471 1 4.7161 14.1519 14.1468 -8.90467 0.000206624
472 1 7.86083 14.1521 14.1469 -8.90446 0.000537298
473 1 11.0059 14.152 14.1475 -8.90465 0.00115023
474 1 14.1508 14.1517 14.1483 -8.90433 0.000831825
475 1 17.2952 14.1515 14.1483 -8.90465 0.000110179
476 1 20.44 14.1515 14.1475 -8.90469 5.58532e-05
477 1 1.57155 17.2965 14.1465 -8.90468 0.000169571
478 1 4.71661 17.2966 14.1466 -8.90465 0.000185376
479 1 7.86156 17.2967 14.147 -8.90467 0.00020312
480 1 11.0064 17.2965 14.1476 -8.90466 0.000235411
481 1 14.1511 17.2963 14.148 -8.90465 0.000153117
482 1 17.2956 17.2962 14.1477 -8.90467 7.0297e-05
483 1 20.4404 17.2963 14.147 -8.90469 0.000112977
484 1 1.57185 20.4414 14.1462 -8.90469 0.000163394
485 1 4.71695 20.4415 14.1463 -8.90468 0.000190266
486 1 7.86197 20.4414 14.1467 -8.9047 0.000200472
487 1 11.0068 20.4414 14.1472 -8.90469 0.000173891
488 1 14.1514 20.4413 14.1473 -8.90469 0.000140784
489 1 17.2959 20.4413 14.1471 -8.90468 0.000135729
490 1 20.4407 20.4413 14.1465 -8.90469 0.000146518
491 1 22.013 5.97186e-17 15.7154 -8.88817 0.00018831
492 1 1.57141 1.57252 17.2769 -8.90299 0.000210738
493 1 3.14427 -1.09928e-15 15.7152 -8.88817 0.000209773
494 1 4.71658 1.57249 17.2771 -8.90305 0.000262373
495 1 6.28936 -2.12327e-15 15.7156 -8.88817 0.000266421
496 1 7.86157 1.57251 17.2777 -8.90314 0.000331022
497 1 9.43429 -1.1728e-15 15.7161 -8.88819 0.000295713
498 1 11.0063 1.57267 17.2783 -8.90309 0.000351879
499 1 12.579 -6.32093e-16 15.7165 -8.88818 0.000272148
500 1 14.1508 1.57285 17.2785 -8.90306 0.000325214
501 1 15.7235 1.16188e-15 15.7164 -8.88817 0.000234076
502 1 17.2953 1.57287 17.2781 -8.90302 0.000287097
503 1 18.8681 8.05199e-16 15.7159 -8.8882 0.000207061
504 1 20.4402 1.57267 17.2773 -8.90298 0.000234499
505 1 22.0128 3.14508 15.7156 -8.88819 0.000188829
506 1 1.57092 4.71747 17.2774 -8.90303 0.00023149
507 1 3.14406 3.14493 15.7155 -8.88816 0.000214303
508 1 4.7161 4.71738 17.2777 -8.90324 0.000204152
509 1 6.28909 3.14483 15.7159 -8.88809 0.000219688
510 1 7.86073 4.71715 17.2784 -8.903 0.000124093
511 1 9.43399 3.14491 15.7165 -8.88817 0.000199496
512 1 11.0055 4.71751 17.2792 -8.90288 0.000268303
513 1 12.5787 3.14517 15.717 -8.88817 0.000170588
514 1 14.15 4.71805 17.2798 -8.9029 0.000246682
515 1 15.7232 3.14536 15.7169 -8.8881 0.000139959
516 1 17.2943 4.71832 17.2793 -8.90324 0.000107694
517 1 18.8678 3.1453 15.7163 -8.88819 0.000160159
518 1 20.4395 4.71784 17.278 -8.90304 0.000181009
519 1 22.0123 6.28996 15.7161 -8.88817 0.000166037
520 1 1.57017 7.86222 17.2779 -8.9031 0.000199877
521 1 3.14348 6.28971 15.7159 -8.88808 0.000189781
522 1 4.71492 7.86191 17.278 -8.90299 6.06968e-05
523 1 6.28826 6.28944 15.7162 -8.88768 0.000171672
524 1 7.85868 7.86105 17.2779 -8.90299 0.000649007
525 1 9.4331 6.28936 15.7167 -8.88787 0.000550841
526 1 11.0041 7.8615 17.278 -8.905 0.00330936
527 1 12.578 6.28974 15.7176 -8.88789 0.000866579
528 1 14.1496 7.86192 17.2804 -8.90261 0.00292215
529 1 15.7226 6.29018 15.718 -8.88779 0.000310613
530 1 17.2935 7.86276 17.2804 -8.9029 0.0003212
531 1 18.8672 6.29021 15.7171 -8.88811 5.60316e-05
532 1 20.4387 7.86253 17.2788 -8.90308 8.70481e-05
533 1 22.0118 9.43464 15.7165 -8.88818 0.000125735
534 1 1.56982 11.007 17.2781 -8.9031 0.000167126
535 1 3.14297 9.43452 15.7161 -8.88815 0.000150096
536 1 4.7144 11.007 17.278 -8.90291 4.8549e-05
537 1 6.28742 9.43432 15.7161 -8.88783 0.00039451
538 1 7.85813 11.007 17.2767 -8.90527 0.00182505
539 1 9.43188 9.43388 15.7152 -8.88698 0.00221158
540 1 11.0034 11.007 17.2719 -8.91709 0.00687626
541 1 12.5778 9.43406 15.7164 -8.88699 0.0034845
542 1 14.1489 11.007 17.2795 -8.90474 0.00589369
543 1 15.7222 9.43466 15.7184 -8.88792 0.00121527
544 1 17.2931 11.007 17.2807 -8.90284 0.000713385
545 1 18.8667 9.43475 15.7177 -8.88819 2.16458e-05
546 1 20.4383 11.007 17.2791 -8.90307 4.74241e-05
547 1 22.0118 12.5793 15.7165 -8.88818 0.000125735
548 1 1.57017 14.1517 17.2779 -8.9031 0.000199877
549 1 3.14297 12.5794 15.7161 -8.88815 0.000150096
550 1 4.71492 14.152 17.278 -8.90299 6.06968e-05
551 1 6.28742 12.5796 15.7161 -8.88783 0.00039451
552 1 7.85868 14.1529 17.2779 -8.90299 0.000649007
553 1 9.43188 12.58 15.7152 -8.88698 0.00221158
554 1 11.0041 14.1524 17.278 -8.905 0.00330936
555 1 12.5778 12.5798 15.7164 -8.88699 0.0034845
556 1 14.1496 14.152 17.2804 -8.90261 0.00292215
557 1 15.7222 12.5792 15.7184 -8.88792 0.00121527
558 1 17.2935 14.1511 17.2804 -8.9029 0.0003212
559 1 18.8667 12.5792 15.7177 -8.88819 2.16458e-05
560 1 20.4387 14.1514 17.2788 -8.90308 8.70481e-05
561 1 22.0123 15.7239 15.7161 -8.88817 0.000166037
562 1 1.57092 17.2964 17.2774 -8.90303 0.00023149
563 1 3.14348 15.7242 15.7159 -8.88808 0.000189781
564 1 4.7161 17.2965 17.2777 -8.90324 0.000204152
565 1 6.28826 15.7245 15.7162 -8.88768 0.000171672
566 1 7.86073 17.2967 17.2784 -8.903 0.000124093
567 1 9.4331 15.7245 15.7167 -8.88787 0.000550841
568 1 11.0055 17.2964 17.2792 -8.90288 0.000268303
569 1 12.578 15.7242 15.7176 -8.88789 0.000866579
570 1 14.15 17.2958 17.2798 -8.9029 0.000246682
571 1 15.7226 15.7237 15.718 -8.88779 0.000310613
572 1 17.2943 17.2956 17.2793 -8.90324 0.000107694
573 1 18.8672 15.7237 15.7171 -8.88811 5.60316e-05
574 1 20.4395 17.2961 17.278 -8.90304 0.000181009
575 1 22.0128 18.8688 15.7156 -8.88819 0.000188829
576 1 1.57141 20.4414 17.2769 -8.90299 0.000210738
577 1 3.14406 18.869 15.7155 -8.88816 0.000214303
578 1 4.71658 20.4414 17.2771 -8.90305 0.000262373
579 1 6.28909 18.8691 15.7159 -8.88809 0.000219688
580 1 7.86157 20.4414 17.2777 -8.90314 0.000331022
581 1 9.43399 18.869 15.7165 -8.88817 0.000199496
582 1 11.0063 20.4412 17.2783 -8.90309 0.000351879
583 1 12.5787 18.8687 15.717 -8.88817 0.000170588
584 1 14.1508 20.4411 17.2785 -8.90306 0.000325214