ITEM: TIMESTEP
202
ITEM: NUMBER OF ATOMS
736
ITEM: BOX BOUNDS pp pp pp
0.0000000000000000e+00 2.2013900999999997e+01
0.0000000000000000e+00 2.2013900999999997e+01
0.0000000000000000e+00 5.3462330999999999e+01
ITEM: ATOMS id type x y z c_pot c_ke
1 1 -0.00062044 -5.61438e-18 0.097619 -7.40188 1.33934e-07
2 1 1.57175 1.5724 1.6244 -8.68379 1.25287e-07
3 1 3.14417 5.72076e-17 0.0975913 -7.40187 1.41544e-07
4 1 4.71657 1.5724 1.62433 -8.68379 1.28983e-07
5 1 6.28901 1.61588e-16 0.0975353 -7.40185 1.46656e-07
6 1 7.86142 1.57239 1.62426 -8.68378 1.29668e-07
7 1 9.43389 2.83733e-16 0.0974932 -7.40183 1.45569e-07
8 1 11.0063 1.57239 1.62423 -8.68378 1.27148e-07
9 1 12.5788 3.08948e-16 0.0974966 -7.40183 1.39073e-07
10 1 14.1512 1.57239 1.62426 -8.68378 1.22931e-07
11 1 15.7237 2.75482e-16 0.0975429 -7.40185 1.31922e-07
12 1 17.296 1.5724 1.62434 -8.68379 1.20043e-07
13 1 18.8685 3.78257e-16 0.0975974 -7.40187 1.29592e-07
14 1 20.4409 1.5724 1.6244 -8.68379 1.21116e-07
15 1 -0.000620871 3.14479 0.0975945 -7.40187 1.32663e-07
16 1 1.57175 4.71721 1.62434 -8.68379 1.22705e-07
17 1 3.14417 3.14479 0.097564 -7.40186 1.40238e-07
18 1 4.71656 4.71721 1.62426 -8.68378 1.26491e-07
19 1 6.289 3.14478 0.0975018 -7.40184 1.45437e-07
20 1 7.86142 4.7172 1.62416 -8.68377 1.27532e-07
21 1 9.43388 3.14478 0.0974545 -7.40182 1.44496e-07
22 1 11.0063 4.71719 1.62412 -8.68377 1.25374e-07
23 1 12.5788 3.14478 0.0974579 -7.40182 1.38095e-07
24 1 14.1512 4.7172 1.62417 -8.68378 1.21248e-07
25 1 15.7237 3.14478 0.0975093 -7.40184 1.30915e-07
26 1 17.2961 4.71721 1.62427 -8.68378 1.18106e-07
27 1 18.8685 3.14479 0.0975701 -7.40186 1.28453e-07
28 1 20.4409 4.71721 1.62434 -8.68379 1.18778e-07
29 1 -0.000621841 6.28962 0.0975396 -7.40185 1.29915e-07
30 1 1.57175 7.86207 1.62426 -8.68378 1.19843e-07
31 1 3.14416 6.28962 0.0975028 -7.40184 1.37411e-07
32 1 4.71655 7.86206 1.62416 -8.68377 1.23741e-07
33 1 6.28899 6.28961 0.097426 -7.40181 1.42807e-07
34 1 7.86141 7.86205 1.62404 -8.68377 1.25233e-07
35 1 9.43388 6.2896 0.0973667 -7.40178 1.42195e-07
36 1 11.0063 7.86205 1.62399 -8.68376 1.23533e-07
37 1 12.5788 6.2896 0.0973701 -7.40178 1.36007e-07
38 1 14.1512 7.86205 1.62405 -8.68377 1.19523e-07
39 1 15.7237 6.28961 0.0974336 -7.40181 1.28761e-07
40 1 17.2961 7.86206 1.62417 -8.68378 1.16062e-07
41 1 18.8685 6.28962 0.0975089 -7.40184 1.26005e-07
42 1 20.4409 7.86207 1.62426 -8.68378 1.16227e-07
43 1 -0.000622618 9.4345 0.0974956 -7.40183 1.27818e-07
44 1 1.57174 11.007 1.62422 -8.68378 1.18698e-07
45 1 3.14415 9.4345 0.0974537 -7.40182 1.3525e-07
46 1 4.71655 11.007 1.62412 -8.68377 1.22644e-07
47 1 6.28898 9.43449 0.0973649 -7.40178 1.40806e-07
48 1 7.86141 11.007 1.62399 -8.68376 1.24339e-07
49 1 9.43387 9.43449 0.0972954 -7.40176 1.40459e-07
50 1 11.0063 11.007 1.62393 -8.68376 1.22846e-07
51 1 12.5788 9.43449 0.0972988 -7.40176 1.34443e-07
52 1 14.1512 11.007 1.62399 -8.68376 1.18888e-07
53 1 15.7237 9.43449 0.0973725 -7.40179 1.27144e-07
54 1 17.2961 11.007 1.62413 -8.68377 1.15285e-07
55 1 18.8685 9.4345 0.0974598 -7.40182 1.24149e-07
56 1 20.4409 11.007 1.62423 -8.68378 1.15222e-07
57 1 -0.000622618 12.5794 0.0974956 -7.40183 1.27818e-07
58 1 1.57175 14.1518 1.62426 -8.68378 1.19843e-07
59 1 3.14415 12.5794 0.0974537 -7.40182 1.3525e-07
60 1 4.71655 14.1518 1.62416 -8.68377 1.23741e-07
61 1 6.28898 12.5794 0.0973649 -7.40178 1.40806e-07
62 1 7.86141 14.1518 1.62404 -8.68377 1.25233e-07
63 1 9.43387 12.5794 0.0972954 -7.40176 1.40459e-07
64 1 11.0063 14.1519 1.62399 -8.68376 1.23533e-07
65 1 12.5788 12.5794 0.0972988 -7.40176 1.34443e-07
66 1 14.1512 14.1518 1.62405 -8.68377 1.19523e-07
67 1 15.7237 12.5794 0.0973725 -7.40179 1.27144e-07
68 1 17.2961 14.1518 1.62417 -8.68378 1.16062e-07
69 1 18.8685 12.5794 0.0974598 -7.40182 1.24149e-07
70 1 20.4409 14.1518 1.62426 -8.68378 1.16227e-07
71 1 -0.000621841 15.7243 0.0975396 -7.40185 1.29915e-07
72 1 1.57175 17.2967 1.62434 -8.68379 1.22705e-07
73 1 3.14416 15.7243 0.0975028 -7.40184 1.37411e-07
74 1 4.71656 17.2967 1.62426 -8.68378 1.26491e-07
75 1 6.28899 15.7243 0.097426 -7.40181 1.42807e-07
76 1 7.86142 17.2967 1.62416 -8.68377 1.27532e-07
77 1 9.43388 15.7243 0.0973667 -7.40178 1.42195e-07
78 1 11.0063 17.2967 1.62412 -8.68377 1.25374e-07
79 1 12.5788 15.7243 0.0973701 -7.40178 1.36007e-07
80 1 14.1512 17.2967 1.62417 -8.68378 1.21248e-07
81 1 15.7237 15.7243 0.0974336 -7.40181 1.28761e-07
82 1 17.2961 17.2967 1.62427 -8.68378 1.18106e-07
83 1 18.8685 15.7243 0.0975089 -7.40184 1.26005e-07
84 1 20.4409 17.2967 1.62434 -8.68379 1.18778e-07
85 1 -0.000620871 18.8691 0.0975945 -7.40187 1.32663e-07
86 1 1.57175 20.4415 1.6244 -8.68379 1.25287e-07
87 1 3.14417 18.8691 0.097564 -7.40186 1.40238e-07
88 1 4.71657 20.4415 1.62433 -8.68379 1.28983e-07
89 1 6.289 18.8691 0.0975018 -7.40184 1.45437e-07
90 1 7.86142 20.4415 1.62426 -8.68378 1.29668e-07
91 1 9.43388 18.8691 0.0974545 -7.40182 1.44496e-07
92 1 11.0063 20.4415 1.62423 -8.68378 1.27148e-07
93 1 12.5788 18.8691 0.0974579 -7.40182 1.38095e-07
94 1 14.1512 20.4415 1.62426 -8.68378 1.22931e-07
95 1 15.7237 18.8691 0.0975093 -7.40184 1.30915e-07
96 1 17.296 20.4415 1.62434 -8.68379 1.20043e-07
97 1 18.8685 18.8691 0.0975701 -7.40186 1.28453e-07
98 1 20.4409 20.4415 1.6244 -8.68379 1.21116e-07
99 1 -0.000676984 4.45388e-16 3.15453 -8.93805 1.07225e-07
100 1 1.57167 1.5724 4.74381 -8.90301 8.40772e-08
101 1 3.14413 -2.67723e-16 3.15449 -8.93805 1.09465e-07
102 1 4.71648 1.57239 4.74373 -8.90301 8.47326e-08
103 1 6.28896 4.73467e-16 3.15441 -8.93806 1.10249e-07
104 1 7.86134 1.57239 4.74363 -8.90301 8.44087e-08
105 1 9.43383 7.68376e-16 3.15434 -8.93807 1.09462e-07
106 1 11.0062 1.57238 4.74359 -8.90301 8.37181e-08
107 1 12.5787 5.33038e-16 3.15435 -8.93807 1.07652e-07
108 1 14.1511 1.57239 4.74364 -8.90301 8.27737e-08
109 1 15.7236 5.80034e-16 3.15441 -8.93806 1.05726e-07
110 1 17.296 1.57239 4.74374 -8.90301 8.20991e-08
111 1 18.8684 7.32287e-16 3.1545 -8.93805 1.05383e-07
112 1 20.4408 1.5724 4.74381 -8.90301 8.26928e-08
113 1 -0.000677408 3.14481 3.15449 -8.93805 1.05857e-07
114 1 1.57166 4.71721 4.74373 -8.90301 8.16984e-08
115 1 3.14413 3.1448 3.15445 -8.93806 1.08053e-07
116 1 4.71647 4.7172 4.74363 -8.90301 8.24336e-08
117 1 6.28896 3.14479 3.15435 -8.93807 1.08964e-07
118 1 7.86133 4.71718 4.7435 -8.90301 8.24385e-08
119 1 9.43383 3.14479 3.15428 -8.93808 1.08383e-07
120 1 11.0062 4.71718 4.74344 -8.90301 8.20846e-08
121 1 12.5787 3.14479 3.15428 -8.93808 1.06703e-07
122 1 14.1511 4.71718 4.74351 -8.90301 8.12276e-08
123 1 15.7236 3.14479 3.15436 -8.93807 1.04731e-07
124 1 17.296 4.7172 4.74364 -8.90301 8.03202e-08
125 1 18.8684 3.1448 3.15445 -8.93806 1.04199e-07
126 1 20.4408 4.71721 4.74373 -8.90301 8.05423e-08
127 1 -0.000678356 6.28964 3.15441 -8.93806 1.03081e-07
128 1 1.57166 7.86206 4.74363 -8.90301 7.91086e-08
129 1 3.14412 6.28964 3.15435 -8.93807 1.05174e-07
130 1 4.71645 7.86205 4.7435 -8.90301 7.99416e-08
131 1 6.28895 6.28962 3.15423 -8.93808 1.06372e-07
132 1 7.86131 7.86204 4.74333 -8.90301 8.03623e-08
133 1 9.43382 6.28962 3.15413 -8.9381 1.06259e-07
134 1 11.0062 7.86203 4.74325 -8.90302 8.04368e-08
135 1 12.5787 6.28962 3.15414 -8.9381 1.04878e-07
136 1 14.1511 7.86204 4.74334 -8.90301 7.96947e-08
137 1 15.7236 6.28962 3.15424 -8.93808 1.02803e-07
138 1 17.296 7.86205 4.74351 -8.90301 7.84957e-08
139 1 18.8684 6.28964 3.15436 -8.93807 1.01844e-07
140 1 20.4408 7.86206 4.74364 -8.90301 7.8246e-08
141 1 -0.000679114 9.43451 3.15434 -8.93807 1.01153e-07
142 1 1.57165 11.007 4.74359 -8.90301 7.80903e-08
143 1 3.14411 9.43451 3.15428 -8.93808 1.0316e-07
144 1 4.71645 11.007 4.74344 -8.90301 7.89665e-08
145 1 6.28894 9.4345 3.15413 -8.9381 1.04591e-07
146 1 7.8613 11.007 4.74325 -8.90302 7.95746e-08
147 1 9.43382 9.4345 3.15401 -8.93812 1.04859e-07
148 1 11.0062 11.007 4.74317 -8.90302 7.98427e-08
149 1 12.5787 9.4345 3.15402 -8.93812 1.03722e-07
150 1 14.1511 11.007 4.74326 -8.90302 7.91532e-08
151 1 15.7236 9.4345 3.15414 -8.9381 1.01565e-07
152 1 17.296 11.007 4.74345 -8.90301 7.78236e-08
153 1 18.8684 9.43451 3.15429 -8.93808 1.0026e-07
154 1 20.4408 11.007 4.74359 -8.90301 7.73611e-08
155 1 -0.000679114 12.5794 3.15434 -8.93807 1.01153e-07
156 1 1.57166 14.1518 4.74363 -8.90301 7.91086e-08
157 1 3.14411 12.5794 3.15428 -8.93808 1.0316e-07
158 1 4.71645 14.1518 4.7435 -8.90301 7.99416e-08
159 1 6.28894 12.5794 3.15413 -8.9381 1.04591e-07
160 1 7.86131 14.1519 4.74333 -8.90301 8.03623e-08
161 1 9.43382 12.5794 3.15401 -8.93812 1.04859e-07
162 1 11.0062 14.1519 4.74325 -8.90302 8.04368e-08
163 1 12.5787 12.5794 3.15402 -8.93812 1.03722e-07
164 1 14.1511 14.1519 4.74334 -8.90301 7.96947e-08
165 1 15.7236 12.5794 3.15414 -8.9381 1.01565e-07
166 1 17.296 14.1518 4.74351 -8.90301 7.84957e-08
167 1 18.8684 12.5794 3.15429 -8.93808 1.0026e-07
168 1 20.4408 14.1518 4.74364 -8.90301 7.8246e-08
169 1 -0.000678356 15.7243 3.15441 -8.93806 1.03081e-07
170 1 1.57166 17.2967 4.74373 -8.90301 8.16984e-08
171 1 3.14412 15.7243 3.15435 -8.93807 1.05174e-07
172 1 4.71647 17.2967 4.74363 -8.90301 8.24336e-08
173 1 6.28895 15.7243 3.15423 -8.93808 1.06372e-07
174 1 7.86133 17.2967 4.7435 -8.90301 8.24385e-08
175 1 9.43382 15.7243 3.15413 -8.9381 1.06259e-07
176 1 11.0062 17.2967 4.74344 -8.90301 8.20846e-08
177 1 12.5787 15.7243 3.15414 -8.9381 1.04878e-07
178 1 14.1511 17.2967 4.74351 -8.90301 8.12276e-08
179 1 15.7236 15.7243 3.15424 -8.93808 1.02803e-07
180 1 17.296 17.2967 4.74364 -8.90301 8.03202e-08
181 1 18.8684 15.7243 3.15436 -8.93807 1.01844e-07
182 1 20.4408 17.2967 4.74373 -8.90301 8.05423e-08
183 1 -0.000677408 18.8691 3.15449 -8.93805 1.05857e-07
184 1 1.57167 20.4415 4.74381 -8.90301 8.40772e-08
185 1 3.14413 18.8691 3.15445 -8.93806 1.08053e-07
186 1 4.71648 20.4415 4.74373 -8.90301 8.47326e-08
187 1 6.28896 18.8691 3.15435 -8.93807 1.08964e-07
188 1 7.86134 20.4415 4.74363 -8.90301 8.44087e-08
189 1 9.43383 18.8691 3.15428 -8.93808 1.08383e-07
190 1 11.0062 20.4415 4.74359 -8.90301 8.37181e-08
191 1 12.5787 18.8691 3.15428 -8.93808 1.06703e-07
192 1 14.1511 20.4415 4.74364 -8.90301 8.27737e-08
193 1 15.7236 18.8691 3.15436 -8.93807 1.04731e-07
194 1 17.296 20.4415 4.74374 -8.90301 8.20991e-08
195 1 18.8684 18.8691 3.15445 -8.93806 1.04199e-07
196 1 20.4408 20.4415 4.74381 -8.90301 8.26928e-08
197 1 -0.000800263 9.12127e-16 6.30559 -8.88811 5.48489e-08
198 1 1.5715 1.57238 7.8748 -8.90467 3.05179e-08
199 1 3.14399 -6.96092e-16 6.30554 -8.88811 5.60001e-08
200 1 4.7163 1.57237 7.87469 -8.90467 3.10358e-08
201 1 6.28882 -3.74445e-16 6.30542 -8.88812 5.61184e-08
202 1 7.86116 1.57235 7.87455 -8.90467 3.07334e-08
203 1 9.4337 -1.32157e-16 6.30534 -8.88812 5.56108e-08
204 1 11.0061 1.57235 7.87449 -8.90467 3.02577e-08
205 1 12.5786 5.25351e-16 6.30534 -8.88812 5.48453e-08
206 1 14.151 1.57235 7.87456 -8.90467 2.95544e-08
207 1 15.7235 1.99449e-16 6.30543 -8.88812 5.3909e-08
208 1 17.2958 1.57237 7.8747 -8.90467 2.89159e-08
209 1 18.8683 -5.95565e-16 6.30554 -8.88811 5.37382e-08
210 1 20.4406 1.57238 7.87481 -8.90467 2.93422e-08
211 1 -0.000800799 3.14479 6.30554 -8.88811 5.35836e-08
212 1 1.57149 4.71717 7.87469 -8.90467 2.84767e-08
213 1 3.14398 3.14478 6.30548 -8.88811 5.46868e-08
214 1 4.71626 4.71714 7.87453 -8.90466 2.90599e-08
215 1 6.2888 3.14476 6.30534 -8.88812 5.49272e-08
216 1 7.86112 4.7171 7.87432 -8.90467 2.90872e-08
217 1 9.43369 3.14474 6.30523 -8.88812 5.46234e-08
218 1 11.0061 4.71708 7.87423 -8.90467 2.89683e-08
219 1 12.5786 3.14474 6.30524 -8.88812 5.39922e-08
220 1 14.151 4.7171 7.87433 -8.90467 2.83761e-08
221 1 15.7235 3.14476 6.30535 -8.88812 5.30144e-08
222 1 17.2959 4.71714 7.87454 -8.90466 2.75088e-08
223 1 18.8683 3.14478 6.30548 -8.88811 5.26578e-08
224 1 20.4407 4.71717 7.8747 -8.90467 2.75497e-08
225 1 -0.000801987 6.28962 6.30543 -8.88812 5.10519e-08
226 1 1.57147 7.86203 7.87455 -8.90467 2.63315e-08
227 1 3.14396 6.2896 6.30534 -8.88812 5.20401e-08
228 1 4.71622 7.862 7.87432 -8.90467 2.69914e-08
229 1 6.28877 6.28957 6.30515 -8.88812 5.25556e-08
230 1 7.86108 7.86196 7.87401 -8.90469 2.74378e-08
231 1 9.43368 6.28955 6.30499 -8.88813 5.27172e-08
232 1 11.0061 7.86194 7.87386 -8.90471 2.77768e-08
233 1 12.5786 6.28955 6.305 -8.88813 5.23964e-08
234 1 14.1511 7.86196 7.87402 -8.90469 2.7334e-08
235 1 15.7235 6.28957 6.30516 -8.88812 5.13299e-08
236 1 17.2959 7.862 7.87433 -8.90467 2.6183e-08
237 1 18.8683 6.2896 6.30535 -8.88812 5.05524e-08
238 1 20.4407 7.86203 7.87456 -8.90467 2.57297e-08
239 1 -0.000802926 9.4345 6.30534 -8.88812 4.93316e-08
240 1 1.57146 11.007 7.87449 -8.90467 2.55191e-08
241 1 3.14394 9.43449 6.30523 -8.88812 5.0222e-08
242 1 4.7162 11.007 7.87423 -8.90467 2.62125e-08
243 1 6.28875 9.43448 6.30499 -8.88813 5.09604e-08
244 1 7.86106 11.007 7.87386 -8.90471 2.68493e-08
245 1 9.43366 9.43447 6.30478 -8.88815 5.15031e-08
246 1 11.0061 11.007 7.87368 -8.90475 2.73965e-08
247 1 12.5786 9.43447 6.30478 -8.88815 5.14378e-08
248 1 14.1511 11.007 7.87387 -8.90471 2.70217e-08
249 1 15.7235 9.43448 6.305 -8.88813 5.03029e-08
250 1 17.2959 11.007 7.87424 -8.90467 2.57438e-08
251 1 18.8684 9.43449 6.30524 -8.88812 4.91831e-08
252 1 20.4407 11.007 7.87449 -8.90467 2.50666e-08
253 1 -0.000802926 12.5794 6.30534 -8.88812 4.93316e-08
254 1 1.57147 14.1519 7.87455 -8.90467 2.63315e-08
255 1 3.14394 12.5794 6.30523 -8.88812 5.0222e-08
256 1 4.71622 14.1519 7.87432 -8.90467 2.69914e-08
257 1 6.28875 12.5794 6.30499 -8.88813 5.09604e-08
258 1 7.86108 14.1519 7.87401 -8.90469 2.74378e-08
259 1 9.43366 12.5794 6.30478 -8.88815 5.15031e-08
260 1 11.0061 14.152 7.87386 -8.90471 2.77768e-08
261 1 12.5786 12.5794 6.30478 -8.88815 5.14378e-08
262 1 14.1511 14.1519 7.87402 -8.90469 2.7334e-08
263 1 15.7235 12.5794 6.305 -8.88813 5.03029e-08
264 1 17.2959 14.1519 7.87433 -8.90467 2.6183e-08
265 1 18.8684 12.5794 6.30524 -8.88812 4.91831e-08
266 1 20.4407 14.1519 7.87456 -8.90467 2.57297e-08
267 1 -0.000801987 15.7243 6.30543 -8.88812 5.10519e-08
268 1 1.57149 17.2967 7.87469 -8.90467 2.84767e-08
269 1 3.14396 15.7243 6.30534 -8.88812 5.20401e-08
270 1 4.71626 17.2968 7.87453 -8.90466 2.90599e-08
271 1 6.28877 15.7243 6.30515 -8.88812 5.25556e-08
272 1 7.86112 17.2968 7.87432 -8.90467 2.90872e-08
273 1 9.43368 15.7244 6.30499 -8.88813 5.27172e-08
274 1 11.0061 17.2968 7.87423 -8.90467 2.89683e-08
275 1 12.5786 15.7244 6.305 -8.88813 5.23964e-08
276 1 14.151 17.2968 7.87433 -8.90467 2.83761e-08
277 1 15.7235 15.7243 6.30516 -8.88812 5.13299e-08
278 1 17.2959 17.2968 7.87454 -8.90466 2.75088e-08
279 1 18.8683 15.7243 6.30535 -8.88812 5.05524e-08
280 1 20.4407 17.2967 7.8747 -8.90467 2.75497e-08
281 1 -0.000800799 18.8691 6.30554 -8.88811 5.35836e-08
282 1 1.5715 20.4415 7.8748 -8.90467 3.05179e-08
283 1 3.14398 18.8691 6.30548 -8.88811 5.46868e-08
284 1 4.7163 20.4415 7.87469 -8.90467 3.10358e-08
285 1 6.2888 18.8691 6.30534 -8.88812 5.49272e-08
286 1 7.86116 20.4415 7.87455 -8.90467 3.07334e-08
287 1 9.43369 18.8692 6.30523 -8.88812 5.46234e-08
288 1 11.0061 20.4416 7.87449 -8.90467 3.02577e-08
289 1 12.5786 18.8692 6.30524 -8.88812 5.39922e-08
290 1 14.151 20.4415 7.87456 -8.90467 2.95544e-08
291 1 15.7235 18.8691 6.30535 -8.88812 5.30144e-08
292 1 17.2958 20.4415 7.8747 -8.90467 2.89159e-08
293 1 18.8683 18.8691 6.30548 -8.88811 5.26578e-08
294 1 20.4406 20.4415 7.87481 -8.90467 2.93422e-08
295 1 -0.000967528 1.78214e-15 9.44318 -8.89866 1.09303e-08
296 1 1.57131 1.57237 11.0113 -8.9001 2.00632e-09
297 1 3.1438 1.15548e-16 9.44311 -8.89865 1.18255e-08
298 1 4.71609 1.57234 11.0112 -8.90009 1.94407e-09
299 1 6.28862 7.72641e-16 9.44295 -8.89865 1.1643e-08
300 1 7.86095 1.57231 11.011 -8.90009 1.15197e-09
301 1 9.43352 8.85875e-16 9.44283 -8.89865 1.1085e-08
302 1 11.0059 1.57229 11.0109 -8.90009 7.94787e-10
303 1 12.5785 -6.58429e-17 9.44283 -8.89865 1.06003e-08
304 1 14.1508 1.57231 11.011 -8.90009 6.54113e-10
305 1 15.7234 2.27282e-16 9.44296 -8.89865 9.97543e-09
306 1 17.2957 1.57234 11.0112 -8.90009 4.82247e-10
307 1 18.8682 -4.49593e-16 9.44312 -8.89865 9.90914e-09
308 1 20.4405 1.57237 11.0113 -8.9001 1.05608e-09
309 1 -0.000968304 3.14476 9.44311 -8.89865 1.0006e-08
310 1 1.57128 4.71715 11.0112 -8.90009 9.90863e-10
311 1 3.14377 3.14474 9.44302 -8.89865 1.08351e-08
312 1 4.716 4.71707 11.0109 -8.90006 9.75379e-10
313 1 6.28858 3.14469 9.44282 -8.89864 1.07769e-08
314 1 7.86087 4.71696 11.0106 -8.90007 5.71111e-10
315 1 9.4335 3.14465 9.44265 -8.89865 1.04465e-08
316 1 11.0059 4.71692 11.0104 -8.90008 6.83021e-10
317 1 12.5785 3.14465 9.44265 -8.89865 1.01278e-08
318 1 14.1509 4.71696 11.0106 -8.90007 7.37752e-10
319 1 15.7234 3.14469 9.44283 -8.89864 9.47208e-09
320 1 17.2958 4.71707 11.0109 -8.90006 3.07259e-10
321 1 18.8682 3.14474 9.44303 -8.89865 9.19959e-09
322 1 20.4405 4.71715 11.0112 -8.90009 3.8183e-10
323 1 -0.000969993 6.28958 9.44296 -8.89865 8.29277e-09
324 1 1.57124 7.86201 11.011 -8.90009 2.27004e-10
325 1 3.14372 6.28955 9.44282 -8.89864 8.95874e-09
326 1 4.7159 7.86193 11.0106 -8.90007 2.5686e-10
327 1 6.28851 6.28947 9.44248 -8.89864 9.17864e-09
328 1 7.86074 7.8618 11.0099 -8.90011 3.49092e-10
329 1 9.43346 6.28941 9.44218 -8.89865 9.37237e-09
330 1 11.0059 7.86175 11.0096 -8.90015 1.07029e-09
331 1 12.5785 6.28941 9.44218 -8.89865 9.44235e-09
332 1 14.151 7.8618 11.0099 -8.90011 1.38565e-09
333 1 15.7235 6.28947 9.44249 -8.89864 8.72678e-09
334 1 17.2959 7.86193 11.0106 -8.90007 6.37304e-10
335 1 18.8682 6.28955 9.44283 -8.89864 7.9874e-09
336 1 20.4405 7.86201 11.011 -8.90009 7.05633e-11
337 1 -0.000971302 9.43448 9.44283 -8.89865 7.27823e-09
338 1 1.57123 11.007 11.0109 -8.90009 6.57758e-11
339 1 3.14368 9.43447 9.44265 -8.89865 7.80263e-09
340 1 4.71585 11.007 11.0104 -8.90008 1.12856e-10
341 1 6.28844 9.43443 9.44217 -8.89865 8.24863e-09
342 1 7.86069 11.007 11.0096 -8.90015 4.3227e-10
343 1 9.43342 9.43439 9.44172 -8.89872 8.87593e-09
344 1 11.0059 11.007 11.0091 -8.90037 1.42955e-09
345 1 12.5785 9.43439 9.44173 -8.89872 9.26759e-09
346 1 14.1511 11.007 11.0096 -8.90015 1.86166e-09
347 1 15.7235 9.43443 9.44219 -8.89865 8.50978e-09
348 1 17.2959 11.007 11.0104 -8.90008 9.7384e-10
349 1 18.8683 9.43447 9.44266 -8.89865 7.38966e-09
350 1 20.4405 11.007 11.0109 -8.90009 1.18075e-10
351 1 -0.000971302 12.5794 9.44283 -8.89865 7.27823e-09
352 1 1.57124 14.1519 11.011 -8.90009 2.27004e-10
353 1 3.14368 12.5794 9.44265 -8.89865 7.80263e-09
354 1 4.7159 14.152 11.0106 -8.90007 2.5686e-10
355 1 6.28844 12.5795 9.44217 -8.89865 8.24863e-09
356 1 7.86074 14.1521 11.0099 -8.90011 3.49092e-10
357 1 9.43342 12.5795 9.44172 -8.89872 8.87593e-09
358 1 11.0059 14.1521 11.0096 -8.90015 1.07029e-09
359 1 12.5785 12.5795 9.44173 -8.89872 9.26759e-09
360 1 14.151 14.1521 11.0099 -8.90011 1.38565e-09
361 1 15.7235 12.5795 9.44219 -8.89865 8.50978e-09
362 1 17.2959 14.152 11.0106 -8.90007 6.37304e-10
363 1 18.8683 12.5794 9.44266 -8.89865 7.38966e-09
364 1 20.4405 14.1519 11.011 -8.90009 7.05633e-11
365 1 -0.000969993 15.7243 9.44296 -8.89865 8.29277e-09
366 1 1.57128 17.2968 11.0112 -8.90009 9.90863e-10
367 1 3.14372 15.7243 9.44282 -8.89864 8.95874e-09
368 1 4.716 17.2968 11.0109 -8.90006 9.75379e-10
369 1 6.28851 15.7244 9.44248 -8.89864 9.17864e-09
370 1 7.86087 17.2969 11.0106 -8.90007 5.71111e-10
371 1 9.43346 15.7245 9.44218 -8.89865 9.37237e-09
372 1 11.0059 17.297 11.0104 -8.90008 6.83021e-10
373 1 12.5785 15.7245 9.44218 -8.89865 9.44235e-09
374 1 14.1509 17.2969 11.0106 -8.90007 7.37752e-10
375 1 15.7235 15.7244 9.44249 -8.89864 8.72678e-09
376 1 17.2958 17.2968 11.0109 -8.90006 3.07259e-10
377 1 18.8682 15.7243 9.44283 -8.89864 7.9874e-09
378 1 20.4405 17.2968 11.0112 -8.90009 3.8183e-10
379 1 -0.000968304 18.8691 9.44311 -8.89865 1.0006e-08
380 1 1.57131 20.4415 11.0113 -8.9001 2.00632e-09
381 1 3.14377 18.8692 9.44302 -8.89865 1.08351e-08
382 1 4.71609 20.4416 11.0112 -8.90009 1.94407e-09
383 1 6.28858 18.8692 9.44282 -8.89864 1.07769e-08
384 1 7.86095 20.4416 11.011 -8.90009 1.15197e-09
385 1 9.4335 18.8692 9.44265 -8.89865 1.04465e-08
386 1 11.0059 20.4416 11.0109 -8.90009 7.94787e-10
387 1 12.5785 18.8692 9.44265 -8.89865 1.01278e-08
388 1 14.1508 20.4416 11.011 -8.90009 6.54113e-10
389 1 15.7234 18.8692 9.44283 -8.89864 9.47208e-09
390 1 17.2957 20.4416 11.0112 -8.90009 4.82247e-10
391 1 18.8682 18.8692 9.44303 -8.89865 9.19959e-09
392 1 20.4405 20.4415 11.0113 -8.9001 1.05608e-09
393 1 -0.00115468 -9.04908e-16 12.5796 -8.89868 4.50158e-09
394 1 3.14362 -1.82889e-16 12.5795 -8.89867 4.58476e-09
395 1 6.28844 -2.27377e-16 12.5793 -8.89867 3.28532e-09
396 1 9.43333 -2.36535e-16 12.5791 -8.89868 2.33472e-09
397 1 12.5783 8.63271e-16 12.5791 -8.89868 2.56382e-09
398 1 15.7232 1.26235e-15 12.5793 -8.89867 2.99523e-09
399 1 18.868 -4.85383e-16 12.5795 -8.89867 3.54911e-09
400 1 22.0127 3.14478 12.5795 -8.89867 4.4761e-09
401 1 3.14359 3.14474 12.5794 -8.89866 4.4519e-09
402 1 6.28837 3.14464 12.5791 -8.89864 3.3035e-09
403 1 9.43329 3.14455 12.5788 -8.89865 2.65593e-09
404 1 12.5783 3.14455 12.5788 -8.89865 3.14305e-09
405 1 15.7232 3.14464 12.5791 -8.89864 3.56974e-09
406 1 18.868 3.14474 12.5794 -8.89866 3.83896e-09
407 1 22.0127 6.28959 12.5793 -8.89867 4.90597e-09
408 1 3.14348 6.28952 12.5791 -8.89864 4.61788e-09
409 1 6.28818 6.28933 12.5785 -8.89854 3.81527e-09
410 1 9.43319 6.28918 12.5779 -8.8986 3.87108e-09
411 1 12.5784 6.28918 12.5779 -8.8986 4.97088e-09
412 1 15.7234 6.28933 12.5785 -8.89854 5.40213e-09
413 1 18.8681 6.28952 12.5791 -8.89864 5.00847e-09
414 1 22.0127 9.43448 12.5791 -8.89868 5.73477e-09
415 1 3.14339 9.43445 12.5788 -8.89865 5.21106e-09
416 1 6.28802 9.43434 12.5779 -8.8986 4.67925e-09
417 1 9.43305 9.43421 12.5768 -8.89878 5.33459e-09
418 1 12.5785 9.43421 12.5768 -8.89878 6.93205e-09
419 1 15.7236 9.43434 12.5779 -8.8986 7.35943e-09
420 1 18.8682 9.43445 12.5788 -8.89865 6.44616e-09
421 1 22.0127 12.5794 12.5791 -8.89868 5.73477e-09
422 1 3.14339 12.5795 12.5788 -8.89865 5.21106e-09
423 1 6.28802 12.5796 12.5779 -8.8986 4.67925e-09
424 1 9.43305 12.5797 12.5768 -8.89878 5.33459e-09
425 1 12.5785 12.5797 12.5768 -8.89878 6.93205e-09
426 1 15.7236 12.5796 12.5779 -8.8986 7.35943e-09
427 1 18.8682 12.5795 12.5788 -8.89865 6.44616e-09
428 1 22.0127 15.7243 12.5793 -8.89867 4.90597e-09
429 1 3.14348 15.7244 12.5791 -8.89864 4.61788e-09
430 1 6.28818 15.7246 12.5785 -8.89854 3.81527e-09
431 1 9.43319 15.7247 12.5779 -8.8986 3.87108e-09
432 1 12.5784 15.7247 12.5779 -8.8986 4.97088e-09
433 1 15.7234 15.7246 12.5785 -8.89854 5.40213e-09
434 1 18.8681 15.7244 12.5791 -8.89864 5.00847e-09
435 1 22.0127 18.8691 12.5795 -8.89867 4.4761e-09
436 1 3.14359 18.8692 12.5794 -8.89866 4.4519e-09
437 1 6.28837 18.8693 12.5791 -8.89864 3.3035e-09
438 1 9.43329 18.8693 12.5788 -8.89865 2.65593e-09
439 1 12.5783 18.8693 12.5788 -8.89865 3.14305e-09
440 1 15.7232 18.8693 12.5791 -8.89864 3.56974e-09
441 1 18.868 18.8692 12.5794 -8.89866 3.83896e-09
442 1 1.57117 1.57242 14.1479 -8.9047 1.96018e-08
443 1 4.71597 1.57237 14.1478 -8.90468 1.81519e-08
444 1 7.8608 1.5723 14.1475 -8.9047 1.6217e-08
445 1 11.0057 1.57227 14.1474 -8.9047 1.61632e-08
446 1 14.1506 1.5723 14.1475 -8.9047 1.73966e-08
447 1 17.2954 1.57237 14.1478 -8.90468 1.83731e-08
448 1 20.4402 1.57242 14.1479 -8.9047 1.92545e-08
449 1 1.57112 4.71722 14.1478 -8.90468 2.09208e-08
450 1 4.71584 4.71708 14.1475 -8.90465 1.9552e-08
451 1 7.86063 4.71685 14.1469 -8.90465 1.81614e-08
452 1 11.0057 4.71676 14.1466 -8.90466 1.88142e-08
453 1 14.1508 4.71685 14.1469 -8.90465 2.04393e-08
454 1 17.2956 4.71709 14.1475 -8.90465 2.10563e-08
455 1 20.4403 4.71722 14.1478 -8.90468 2.11128e-08
456 1 1.57105 7.86204 14.1475 -8.9047 2.32749e-08
457 1 4.7156 7.86188 14.1469 -8.90465 2.19751e-08
458 1 7.86025 7.8615 14.1455 -8.9044 2.13017e-08
459 1 11.0057 7.86138 14.1447 -8.90466 2.29626e-08
460 1 14.1511 7.8615 14.1455 -8.9044 2.51519e-08
461 1 17.2958 7.86188 14.1469 -8.90465 2.51653e-08
462 1 20.4403 7.86204 14.1475 -8.9047 2.41824e-08
463 1 1.57102 11.007 14.1474 -8.9047 2.45755e-08
464 1 4.71551 11.007 14.1466 -8.90466 2.32833e-08
465 1 7.86013 11.007 14.1447 -8.90466 2.2928e-08
466 1 11.0057 11.007 14.1432 -8.90674 2.50791e-08
467 1 14.1513 11.007 14.1447 -8.90466 2.74484e-08
468 1 17.2959 11.007 14.1466 -8.90466 2.72479e-08
469 1 20.4404 11.007 14.1474 -8.9047 2.58108e-08
470 1 1.57105 14.1519 14.1475 -8.9047 2.32749e-08
471 1 4.7156 14.152 14.1469 -8.90465 2.19751e-08
472 1 7.86025 14.1524 14.1455 -8.9044 2.13017e-08
473 1 11.0057 14.1525 14.1447 -8.90466 2.29626e-08
474 1 14.1511 14.1524 14.1455 -8.9044 2.51519e-08
475 1 17.2958 14.152 14.1469 -8.90465 2.51653e-08
476 1 20.4403 14.1519 14.1475 -8.9047 2.41824e-08
477 1 1.57112 17.2967 14.1478 -8.90468 2.09208e-08
478 1 4.71584 17.2968 14.1475 -8.90465 1.9552e-08
479 1 7.86063 17.297 14.1469 -8.90465 1.81614e-08
480 1 11.0057 17.2971 14.1466 -8.90466 1.88142e-08
481 1 14.1508 17.297 14.1469 -8.90465 2.04393e-08
482 1 17.2956 17.2968 14.1475 -8.90465 2.10563e-08
483 1 20.4403 17.2967 14.1478 -8.90468 2.11128e-08
484 1 1.57117 20.4415 14.1479 -8.9047 1.96018e-08
485 1 4.71597 20.4415 14.1478 -8.90468 1.81519e-08
486 1 7.8608 20.4416 14.1475 -8.9047 1.6217e-08
487 1 11.0057 20.4416 14.1474 -8.9047 1.61632e-08
488 1 14.1506 20.4416 14.1475 -8.9047 1.73966e-08
489 1 17.2954 20.4415 14.1478 -8.90468 1.83731e-08
490 1 20.4402 20.4415 14.1479 -8.9047 1.92545e-08
491 1 22.0126 -1.86124e-16 15.7172 -8.88818 4.28636e-08
492 1 1.57115 1.57255 17.279 -8.90297 7.4988e-08
493 1 3.1436 2.58329e-15 15.7172 -8.88819 4.2283e-08
494 1 4.71615 1.5726 17.279 -8.90303 7.32451e-08
495 1 6.28841 1.00652e-15 15.717 -8.88817 3.97429e-08
496 1 7.86087 1.57254 17.2788 -8.9031 7.06084e-08
497 1 9.43322 1.00823e-16 15.7169 -8.8882 3.82301e-08
498 1 11.0055 1.5725 17.2787 -8.90309 7.04642e-08
499 1 12.578 3.55165e-16 15.7169 -8.8882 3.92009e-08
500 1 14.1502 1.57254 17.2788 -8.9031 7.21501e-08
501 1 15.7228 -7.9432e-17 15.7171 -8.88817 4.06885e-08
502 1 17.295 1.5726 17.279 -8.90302 7.32695e-08
503 1 18.8677 1.74401e-15 15.7172 -8.88819 4.18098e-08
504 1 20.4399 1.57255 17.279 -8.90297 7.43336e-08
505 1 22.0126 3.14492 15.7172 -8.88819 4.449e-08
506 1 1.5712 4.71755 17.279 -8.90303 8.00408e-08
507 1 3.14358 3.14491 15.7171 -8.88818 4.37728e-08
508 1 4.71624 4.71764 17.2789 -8.90324 7.86373e-08
509 1 6.28835 3.14478 15.7169 -8.88809 4.1531e-08
510 1 7.8607 4.71722 17.2782 -8.90292 7.70787e-08
511 1 9.43317 3.14464 15.7165 -8.88817 4.04636e-08
512 1 11.0055 4.71706 17.2777 -8.90284 7.80228e-08
513 1 12.5781 3.14464 15.7165 -8.88817 4.18458e-08
514 1 14.1504 4.71722 17.2782 -8.90292 8.04306e-08
515 1 15.7229 3.14478 15.7169 -8.88809 4.33361e-08
516 1 17.2949 4.71765 17.2789 -8.90324 8.04539e-08
517 1 18.8677 3.14491 15.7171 -8.88818 4.3932e-08
518 1 20.4399 4.71755 17.279 -8.90302 8.01388e-08
519 1 22.0126 6.28974 15.7171 -8.88817 4.89453e-08
520 1 1.57113 7.86227 17.2788 -8.9031 8.75494e-08
521 1 3.14345 6.28967 15.7169 -8.88809 4.79377e-08
522 1 4.71581 7.86211 17.2782 -8.90292 8.65503e-08
523 1 6.28803 6.28936 15.7161 -8.8877 4.63388e-08
524 1 7.85964 7.86105 17.2759 -8.90267 8.61984e-08
525 1 9.43294 6.28897 15.7149 -8.88787 4.63819e-08
526 1 11.0055 7.86102 17.2737 -8.90497 8.93982e-08
527 1 12.5783 6.28897 15.7149 -8.88787 4.89018e-08
528 1 14.1514 7.86105 17.2759 -8.90267 9.35587e-08
529 1 15.7232 6.28936 15.7161 -8.8877 5.05365e-08
530 1 17.2953 7.86211 17.2782 -8.90292 9.1488e-08
531 1 18.8678 6.28968 15.7169 -8.88809 4.96535e-08
532 1 20.4399 7.86227 17.2788 -8.9031 8.86921e-08
533 1 22.0126 9.43454 15.7169 -8.8882 5.32499e-08
534 1 1.57109 11.007 17.2787 -8.90309 9.1283e-08
535 1 3.1433 9.4345 15.7165 -8.88817 5.19453e-08
536 1 4.71565 11.007 17.2777 -8.90284 9.03802e-08
537 1 6.28764 9.43427 15.7149 -8.88787 5.07463e-08
538 1 7.85961 11.007 17.2737 -8.90497 9.14225e-08
539 1 9.43235 9.43369 15.7118 -8.88714 5.19094e-08
540 1 11.0055 11.007 17.2662 -8.91709 9.38651e-08
541 1 12.5789 9.43369 15.7118 -8.88714 5.53119e-08
542 1 14.1515 11.007 17.2738 -8.90497 9.81276e-08
543 1 15.7236 9.43427 15.7149 -8.88788 5.69563e-08
544 1 17.2954 11.007 17.2777 -8.90284 9.66958e-08
545 1 18.8679 9.4345 15.7165 -8.88817 5.49908e-08
546 1 20.44 11.007 17.2787 -8.90309 9.29108e-08
547 1 22.0126 12.5794 15.7169 -8.8882 5.32499e-08
548 1 1.57113 14.1516 17.2788 -8.9031 8.75494e-08
549 1 3.1433 12.5794 15.7165 -8.88817 5.19453e-08
550 1 4.71581 14.1518 17.2782 -8.90292 8.65503e-08
551 1 6.28764 12.5796 15.7149 -8.88787 5.07463e-08
552 1 7.85964 14.1529 17.2759 -8.90267 8.61984e-08
553 1 9.43235 12.5802 15.7118 -8.88714 5.19094e-08
554 1 11.0055 14.1529 17.2737 -8.90497 8.93982e-08
555 1 12.5789 12.5802 15.7118 -8.88714 5.53119e-08
556 1 14.1514 14.1529 17.2759 -8.90267 9.35587e-08
557 1 15.7236 12.5796 15.7149 -8.88788 5.69563e-08
558 1 17.2953 14.1518 17.2782 -8.90292 9.1488e-08
559 1 18.8679 12.5794 15.7165 -8.88817 5.49908e-08
560 1 20.4399 14.1516 17.2788 -8.9031 8.86921e-08
561 1 22.0126 15.7242 15.7171 -8.88817 4.89453e-08
562 1 1.5712 17.2964 17.279 -8.90303 8.00408e-08
563 1 3.14345 15.7242 15.7169 -8.88809 4.79377e-08
564 1 4.71624 17.2963 17.2789 -8.90324 7.86373e-08
565 1 6.28803 15.7245 15.7161 -8.8877 4.63388e-08
566 1 7.8607 17.2967 17.2782 -8.90292 7.70787e-08
567 1 9.43294 15.7249 15.7149 -8.88787 4.63819e-08
568 1 11.0055 17.2968 17.2777 -8.90284 7.80228e-08
569 1 12.5783 15.7249 15.7149 -8.88787 4.89018e-08
570 1 14.1504 17.2967 17.2782 -8.90292 8.04306e-08
571 1 15.7232 15.7245 15.7161 -8.8877 5.05365e-08
572 1 17.2949 17.2963 17.2789 -8.90324 8.04539e-08
573 1 18.8678 15.7242 15.7169 -8.88809 4.96535e-08
574 1 20.4399 17.2964 17.279 -8.90302 8.01388e-08
575 1 22.0126 18.869 15.7172 -8.88819 4.449e-08
576 1 1.57115 20.4413 17.279 -8.90297 7.4988e-08
577 1 3.14358 18.869 15.7171 -8.88818 4.37728e-08
578 1 4.71615 20.4413 17.279 -8.90303 7.32451e-08
579 1 6.28835 18.8691 15.7169 -8.88809 4.1531e-08
580 1 7.86087 20.4414 17.2788 -8.9031 7.06084e-08
581 1 9.43317 18.8693 15.7165 -8.88817 4.04636e-08
582 1 11.0055 20.4414 17.2787 -8.90309 7.04642e-08
583 1 12.5781 18.8693 15.7165 -8.88817 4.18458e-08