ITEM: TIMESTEP
110
ITEM: NUMBER OF ATOMS
736
ITEM: BOX BOUNDS pp pp pp
0.0000000000000000e+00 2.2013900999999997e+01
0.0000000000000000e+00 2.2013900999999997e+01
0.0000000000000000e+00 5.3462330999999999e+01
ITEM: ATOMS id type x y z c_pot c_ke
1 1 0.000120928 6.25606e-16 0.0963789 -7.40176 2.23293e-07
2 1 1.57257 1.57245 1.62313 -8.6838 2.01899e-07
3 1 3.14501 2.32403e-16 0.0964005 -7.40176 2.02505e-07
4 1 4.71745 1.57245 1.62318 -8.6838 1.86443e-07
5 1 6.28987 4.31913e-16 0.0964525 -7.40178 2.06346e-07
6 1 7.86229 1.57245 1.62326 -8.6838 2.06038e-07
7 1 9.43469 4.41938e-16 0.0964954 -7.4018 2.31566e-07
8 1 11.0071 1.57246 1.6233 -8.68381 2.47284e-07
9 1 12.5795 -1.26288e-17 0.0964971 -7.4018 2.58915e-07
10 1 14.1519 1.57246 1.62327 -8.68381 2.79847e-07
11 1 15.7243 1.25308e-16 0.0964564 -7.40178 2.68252e-07
12 1 17.2967 1.57245 1.6232 -8.6838 2.77452e-07
13 1 18.8691 1.31237e-15 0.0964038 -7.40176 2.52599e-07
14 1 20.4416 1.57245 1.62313 -8.6838 2.42055e-07
15 1 0.000120337 3.1449 0.0964042 -7.40176 2.29842e-07
16 1 1.57257 4.71732 1.62319 -8.6838 2.13725e-07
17 1 3.14502 3.1449 0.0964273 -7.40177 2.07273e-07
18 1 4.71746 4.71733 1.62326 -8.6838 1.9409e-07
19 1 6.28988 3.1449 0.0964849 -7.4018 2.11154e-07
20 1 7.8623 4.71734 1.62335 -8.68381 2.13262e-07
21 1 9.43469 3.14491 0.0965337 -7.40181 2.38193e-07
22 1 11.0071 4.71735 1.62341 -8.68382 2.58786e-07
23 1 12.5795 3.14491 0.096537 -7.40181 2.6786e-07
24 1 14.1519 4.71734 1.62338 -8.68382 2.97914e-07
25 1 15.7243 3.14491 0.0964923 -7.40179 2.78198e-07
26 1 17.2967 4.71734 1.62329 -8.68381 2.98633e-07
27 1 18.8691 3.1449 0.0964332 -7.40177 2.61461e-07
28 1 20.4416 4.71733 1.6232 -8.6838 2.59979e-07
29 1 0.000119018 6.28975 0.096461 -7.40178 2.4464e-07
30 1 1.57257 7.86215 1.62327 -8.68381 2.29157e-07
31 1 3.14502 6.28975 0.0964873 -7.4018 2.18003e-07
32 1 4.71746 7.86216 1.62335 -8.68381 2.03507e-07
33 1 6.28989 6.28976 0.0965583 -7.40182 2.21351e-07
34 1 7.86231 7.86217 1.62347 -8.68382 2.18843e-07
35 1 9.4347 6.28977 0.0966209 -7.40185 2.51439e-07
36 1 11.0071 7.86217 1.62354 -8.68383 2.66777e-07
37 1 12.5795 6.28978 0.0966277 -7.40185 2.86178e-07
38 1 14.1519 7.86217 1.62351 -8.68382 3.16376e-07
39 1 15.7243 6.28977 0.0965733 -7.40182 2.99872e-07
40 1 17.2967 7.86217 1.62339 -8.68382 3.25461e-07
41 1 18.8691 6.28976 0.096499 -7.4018 2.81534e-07
42 1 20.4416 7.86216 1.62329 -8.68381 2.83414e-07
43 1 0.000117969 9.43456 0.0965063 -7.4018 2.56533e-07
44 1 1.57257 11.007 1.62331 -8.68381 2.36247e-07
45 1 3.14503 9.43456 0.0965355 -7.40181 2.26592e-07
46 1 4.71747 11.007 1.62339 -8.68381 2.07705e-07
47 1 6.2899 9.43456 0.0966175 -7.40185 2.29096e-07
48 1 7.86231 11.007 1.62353 -8.68382 2.2036e-07
49 1 9.4347 9.43457 0.0966917 -7.40187 2.60583e-07
50 1 11.0071 11.007 1.62361 -8.68383 2.68154e-07
51 1 12.5795 9.43457 0.0967014 -7.40187 2.99269e-07
52 1 14.1519 11.007 1.62357 -8.68383 3.23447e-07
53 1 15.7243 9.43457 0.0966386 -7.40185 3.16818e-07
54 1 17.2967 11.007 1.62344 -8.68382 3.37607e-07
55 1 18.8691 9.43456 0.0965517 -7.40182 2.97735e-07
56 1 20.4416 11.007 1.62333 -8.68381 2.942e-07
57 1 0.000117969 12.5793 0.0965063 -7.4018 2.56533e-07
58 1 1.57257 14.1517 1.62327 -8.68381 2.29157e-07
59 1 3.14503 12.5793 0.0965355 -7.40181 2.26592e-07
60 1 4.71746 14.1517 1.62335 -8.68381 2.03507e-07
61 1 6.2899 12.5793 0.0966175 -7.40185 2.29096e-07
62 1 7.86231 14.1517 1.62347 -8.68382 2.18843e-07
63 1 9.4347 12.5793 0.0966917 -7.40187 2.60583e-07
64 1 11.0071 14.1517 1.62354 -8.68383 2.66777e-07
65 1 12.5795 12.5793 0.0967014 -7.40187 2.99269e-07
66 1 14.1519 14.1517 1.62351 -8.68382 3.16376e-07
67 1 15.7243 12.5793 0.0966386 -7.40185 3.16818e-07
68 1 17.2967 14.1517 1.62339 -8.68382 3.25461e-07
69 1 18.8691 12.5793 0.0965517 -7.40182 2.97735e-07
70 1 20.4416 14.1517 1.62329 -8.68381 2.83414e-07
71 1 0.000119018 15.7241 0.096461 -7.40178 2.4464e-07
72 1 1.57257 17.2966 1.62319 -8.6838 2.13725e-07
73 1 3.14502 15.7241 0.0964873 -7.4018 2.18003e-07
74 1 4.71746 17.2966 1.62326 -8.6838 1.9409e-07
75 1 6.28989 15.7241 0.0965583 -7.40182 2.21351e-07
76 1 7.8623 17.2966 1.62335 -8.68381 2.13262e-07
77 1 9.4347 15.7241 0.0966209 -7.40185 2.51439e-07
78 1 11.0071 17.2966 1.62341 -8.68382 2.58786e-07
79 1 12.5795 15.7241 0.0966277 -7.40185 2.86178e-07
80 1 14.1519 17.2966 1.62338 -8.68382 2.97914e-07
81 1 15.7243 15.7241 0.0965733 -7.40182 2.99872e-07
82 1 17.2967 17.2966 1.62329 -8.68381 2.98633e-07
83 1 18.8691 15.7241 0.096499 -7.4018 2.81534e-07
84 1 20.4416 17.2966 1.6232 -8.6838 2.59979e-07
85 1 0.000120337 18.869 0.0964042 -7.40176 2.29842e-07
86 1 1.57257 20.4415 1.62313 -8.6838 2.01899e-07
87 1 3.14502 18.869 0.0964273 -7.40177 2.07273e-07
88 1 4.71745 20.4415 1.62318 -8.6838 1.86443e-07
89 1 6.28988 18.869 0.0964849 -7.4018 2.11154e-07
90 1 7.86229 20.4414 1.62326 -8.6838 2.06038e-07
91 1 9.43469 18.869 0.0965337 -7.40181 2.38193e-07
92 1 11.0071 20.4414 1.6233 -8.68381 2.47284e-07
93 1 12.5795 18.869 0.096537 -7.40181 2.6786e-07
94 1 14.1519 20.4414 1.62327 -8.68381 2.79847e-07
95 1 15.7243 18.869 0.0964923 -7.40179 2.78198e-07
96 1 17.2967 20.4414 1.6232 -8.6838 2.77452e-07
97 1 18.8691 18.869 0.0964332 -7.40177 2.61461e-07
98 1 20.4416 20.4415 1.62313 -8.6838 2.42055e-07
99 1 0.000121369 -2.49306e-15 3.15323 -8.93809 2.24125e-07
100 1 1.57257 1.57245 4.74254 -8.90303 2.06713e-07
101 1 3.14501 7.89129e-16 3.15325 -8.93809 1.8931e-07
102 1 4.71748 1.57246 4.7426 -8.90303 1.77772e-07
103 1 6.28989 -4.28111e-15 3.15333 -8.93808 1.88372e-07
104 1 7.86234 1.57246 4.74271 -8.90303 1.91634e-07
105 1 9.43472 3.65841e-16 3.15341 -8.93807 2.21973e-07
106 1 11.0071 1.57247 4.74278 -8.90303 2.39701e-07
107 1 12.5795 4.97576e-16 3.15342 -8.93807 2.66918e-07
108 1 14.1519 1.57247 4.74276 -8.90303 2.87017e-07
109 1 15.7243 8.92806e-16 3.15337 -8.93807 2.88311e-07
110 1 17.2967 1.57247 4.74267 -8.90303 2.95356e-07
111 1 18.8691 1.05016e-15 3.15328 -8.93808 2.68476e-07
112 1 20.4416 1.57246 4.74257 -8.90303 2.58739e-07
113 1 0.000118877 3.14489 3.15327 -8.93808 2.31044e-07
114 1 1.57257 4.71734 4.74263 -8.90303 2.13609e-07
115 1 3.14502 3.14489 3.1533 -8.93808 1.9229e-07
116 1 4.71748 4.71734 4.74271 -8.90303 1.71201e-07
117 1 6.28989 3.1449 3.15339 -8.93807 1.8747e-07
118 1 7.86235 4.71736 4.74284 -8.90303 1.69339e-07
119 1 9.43472 3.14491 3.15347 -8.93806 2.19586e-07
120 1 11.0071 4.71738 4.74294 -8.90302 2.0954e-07
121 1 12.5795 3.14491 3.15349 -8.93805 2.67113e-07
122 1 14.1519 4.71738 4.74292 -8.90302 2.6625e-07
123 1 15.7243 3.14491 3.15343 -8.93806 2.93527e-07
124 1 17.2967 4.71737 4.7428 -8.90302 2.94993e-07
125 1 18.8691 3.1449 3.15333 -8.93807 2.76777e-07
126 1 20.4416 4.71735 4.74267 -8.90303 2.70087e-07
127 1 0.000113301 6.28975 3.15336 -8.93807 2.47738e-07
128 1 1.57256 7.86217 4.74274 -8.90303 2.2438e-07
129 1 3.14502 6.28975 3.15339 -8.93807 1.99609e-07
130 1 4.71749 7.86217 4.74284 -8.90303 1.64399e-07
131 1 6.2899 6.28976 3.15351 -8.93806 1.8294e-07
132 1 7.86236 7.86219 4.74302 -8.90302 1.34866e-07
133 1 9.43472 6.28977 3.15362 -8.93804 2.06415e-07
134 1 11.0071 7.8622 4.74315 -8.90302 1.54718e-07
135 1 12.5795 6.28978 3.15365 -8.93803 2.58105e-07
136 1 14.1519 7.8622 4.74312 -8.90301 2.24595e-07
137 1 15.7243 6.28977 3.15357 -8.93804 3.00904e-07
138 1 17.2967 7.86219 4.74296 -8.90302 2.92285e-07
139 1 18.8691 6.28976 3.15344 -8.93806 2.96114e-07
140 1 20.4415 7.86217 4.74279 -8.90302 2.8643e-07
141 1 0.000108842 9.43456 3.15344 -8.93806 2.62129e-07
142 1 1.57256 11.007 4.74279 -8.90303 2.29861e-07
143 1 3.14502 9.43456 3.15347 -8.93806 2.06055e-07
144 1 4.7175 11.007 4.7429 -8.90303 1.61824e-07
145 1 6.28991 9.43456 3.15361 -8.93804 1.77844e-07
146 1 7.86236 11.007 4.7431 -8.90302 1.18566e-07
147 1 9.43473 9.43457 3.15375 -8.93802 1.88633e-07
148 1 11.0071 11.007 4.74324 -8.90301 1.25001e-07
149 1 12.5795 9.43457 3.15378 -8.93801 2.41938e-07
150 1 14.1519 11.007 4.74321 -8.90301 2.0244e-07
151 1 15.7243 9.43457 3.15369 -8.93802 3.04e-07
152 1 17.2967 11.007 4.74303 -8.90302 2.90775e-07
153 1 18.8691 9.43456 3.15353 -8.93805 3.12438e-07
154 1 20.4415 11.007 4.74284 -8.90302 2.94455e-07
155 1 0.000108842 12.5793 3.15344 -8.93806 2.62129e-07
156 1 1.57256 14.1517 4.74274 -8.90303 2.2438e-07
157 1 3.14502 12.5793 3.15347 -8.93806 2.06055e-07
158 1 4.71749 14.1517 4.74284 -8.90303 1.64399e-07
159 1 6.28991 12.5793 3.15361 -8.93804 1.77844e-07
160 1 7.86236 14.1517 4.74302 -8.90302 1.34866e-07
161 1 9.43473 12.5793 3.15375 -8.93802 1.88633e-07
162 1 11.0071 14.1517 4.74315 -8.90302 1.54718e-07
163 1 12.5795 12.5793 3.15378 -8.93801 2.41938e-07
164 1 14.1519 14.1517 4.74312 -8.90301 2.24595e-07
165 1 15.7243 12.5793 3.15369 -8.93802 3.04e-07
166 1 17.2967 14.1517 4.74296 -8.90302 2.92285e-07
167 1 18.8691 12.5793 3.15353 -8.93805 3.12438e-07
168 1 20.4415 14.1517 4.74279 -8.90302 2.8643e-07
169 1 0.000113301 15.7242 3.15336 -8.93807 2.47738e-07
170 1 1.57257 17.2966 4.74263 -8.90303 2.13609e-07
171 1 3.14502 15.7242 3.15339 -8.93807 1.99609e-07
172 1 4.71748 17.2966 4.74271 -8.90303 1.71201e-07
173 1 6.2899 15.7241 3.15351 -8.93806 1.8294e-07
174 1 7.86235 17.2965 4.74284 -8.90303 1.69339e-07
175 1 9.43472 15.7241 3.15362 -8.93804 2.06415e-07
176 1 11.0071 17.2965 4.74294 -8.90302 2.0954e-07
177 1 12.5795 15.7241 3.15365 -8.93803 2.58105e-07
178 1 14.1519 17.2965 4.74292 -8.90302 2.6625e-07
179 1 15.7243 15.7241 3.15357 -8.93804 3.00904e-07
180 1 17.2967 17.2965 4.7428 -8.90302 2.94993e-07
181 1 18.8691 15.7241 3.15344 -8.93806 2.96114e-07
182 1 20.4416 17.2966 4.74267 -8.90303 2.70087e-07
183 1 0.000118877 18.869 3.15327 -8.93808 2.31044e-07
184 1 1.57257 20.4414 4.74254 -8.90303 2.06713e-07
185 1 3.14502 18.869 3.1533 -8.93808 1.9229e-07
186 1 4.71748 20.4414 4.7426 -8.90303 1.77772e-07
187 1 6.28989 18.869 3.15339 -8.93807 1.8747e-07
188 1 7.86234 20.4414 4.74271 -8.90303 1.91634e-07
189 1 9.43472 18.869 3.15347 -8.93806 2.19586e-07
190 1 11.0071 20.4414 4.74278 -8.90303 2.39701e-07
191 1 12.5795 18.869 3.15349 -8.93805 2.67113e-07
192 1 14.1519 20.4414 4.74276 -8.90303 2.87017e-07
193 1 15.7243 18.869 3.15343 -8.93806 2.93527e-07
194 1 17.2967 20.4414 4.74267 -8.90303 2.95356e-07
195 1 18.8691 18.869 3.15333 -8.93807 2.76777e-07
196 1 20.4416 20.4414 4.74257 -8.90303 2.58739e-07
197 1 0.00010695 -2.34385e-16 6.30427 -8.88813 2.45894e-07
198 1 1.57256 1.57248 7.87345 -8.90469 2.32701e-07
199 1 3.14504 3.50983e-15 6.30427 -8.88813 1.89425e-07
200 1 4.71753 1.57249 7.87352 -8.90469 1.78311e-07
201 1 6.28996 -1.49439e-15 6.30438 -8.88813 1.73218e-07
202 1 7.86243 1.57251 7.87369 -8.90469 1.77054e-07
203 1 9.43479 1.78746e-15 6.3045 -8.88812 2.09066e-07
204 1 11.0072 1.57253 7.87384 -8.90468 2.31347e-07
205 1 12.5796 -8.41037e-16 6.30455 -8.88812 2.73039e-07
206 1 14.1519 1.57253 7.87384 -8.90468 3.03547e-07
207 1 15.7243 -1.16845e-15 6.30449 -8.88812 3.15196e-07
208 1 17.2967 1.57252 7.87371 -8.90468 3.35561e-07
209 1 18.8691 -2.3661e-16 6.30436 -8.88813 3.02091e-07
210 1 20.4415 1.5725 7.87353 -8.90469 3.03675e-07
211 1 9.65363e-05 3.14493 6.30433 -8.88813 2.4973e-07
212 1 1.57254 4.7174 7.87359 -8.90469 2.44935e-07
213 1 3.14504 3.14493 6.30434 -8.88813 1.87289e-07
214 1 4.71754 4.71741 7.87369 -8.90468 1.81392e-07
215 1 6.28996 3.14495 6.30446 -8.88813 1.58729e-07
216 1 7.86244 4.71746 7.87393 -8.90467 1.46488e-07
217 1 9.4348 3.14497 6.30462 -8.88812 1.81221e-07
218 1 11.0072 4.71751 7.87414 -8.90466 1.47105e-07
219 1 12.5795 3.14499 6.30468 -8.88812 2.40606e-07
220 1 14.1519 4.71752 7.87414 -8.90466 2.00726e-07
221 1 15.7243 3.14498 6.3046 -8.88812 2.94066e-07
222 1 17.2966 4.71749 7.87394 -8.90467 2.76925e-07
223 1 18.8691 3.14496 6.30444 -8.88812 2.98858e-07
224 1 20.4415 4.71743 7.8737 -8.90468 2.99892e-07
225 1 7.32369e-05 6.2898 6.30447 -8.88812 2.61611e-07
226 1 1.57252 7.86222 7.87376 -8.90468 2.68382e-07
227 1 3.14505 6.28979 6.30448 -8.88813 1.88035e-07
228 1 4.71754 7.86223 7.8739 -8.90468 2.00186e-07
229 1 6.28998 6.28982 6.30466 -8.88812 1.27543e-07
230 1 7.86244 7.86227 7.87424 -8.90466 1.36767e-07
231 1 9.4348 6.28985 6.30487 -8.88811 1.06757e-07
232 1 11.0072 7.86231 7.87452 -8.90463 6.67715e-08
233 1 12.5795 6.28987 6.30496 -8.8881 1.42954e-07
234 1 14.1518 7.86232 7.87453 -8.90463 5.70406e-08
235 1 15.7242 6.28986 6.30485 -8.8881 2.28608e-07
236 1 17.2965 7.86229 7.87424 -8.90465 1.92189e-07
237 1 18.869 6.28983 6.30463 -8.88812 2.90601e-07
238 1 20.4414 7.86224 7.8739 -8.90467 2.98075e-07
239 1 5.4561e-05 9.43458 6.30458 -8.88812 2.74168e-07
240 1 1.57251 11.007 7.87383 -8.90468 2.80955e-07
241 1 3.14505 9.43458 6.3046 -8.88812 1.92583e-07
242 1 4.71754 11.007 7.874 -8.90467 2.10971e-07
243 1 6.28999 9.43459 6.30482 -8.88811 1.08056e-07
244 1 7.86244 11.007 7.87438 -8.90465 1.49962e-07
245 1 9.4348 9.4346 6.30509 -8.8881 4.7897e-08
246 1 11.0071 11.007 7.8747 -8.90464 7.7144e-08
247 1 12.5795 9.43461 6.3052 -8.88809 5.18365e-08
248 1 14.1518 11.007 7.8747 -8.90461 1.88501e-09
249 1 15.7242 9.43461 6.30506 -8.88809 1.66682e-07
250 1 17.2965 11.007 7.87438 -8.90464 1.51585e-07
251 1 18.869 9.43459 6.30478 -8.88811 2.84795e-07
252 1 20.4414 11.007 7.87399 -8.90467 2.98473e-07
253 1 5.4561e-05 12.5793 6.30458 -8.88812 2.74168e-07
254 1 1.57252 14.1517 7.87376 -8.90468 2.68382e-07
255 1 3.14505 12.5793 6.3046 -8.88812 1.92583e-07
256 1 4.71754 14.1517 7.8739 -8.90468 2.00186e-07
257 1 6.28999 12.5793 6.30482 -8.88811 1.08056e-07
258 1 7.86244 14.1516 7.87424 -8.90466 1.36767e-07
259 1 9.4348 12.5793 6.30509 -8.8881 4.7897e-08
260 1 11.0072 14.1516 7.87452 -8.90463 6.67715e-08
261 1 12.5795 12.5793 6.3052 -8.88809 5.18365e-08
262 1 14.1518 14.1516 7.87453 -8.90463 5.70406e-08
263 1 15.7242 12.5793 6.30506 -8.88809 1.66682e-07
264 1 17.2965 14.1516 7.87424 -8.90465 1.92189e-07
265 1 18.869 12.5793 6.30478 -8.88811 2.84795e-07
266 1 20.4414 14.1517 7.8739 -8.90467 2.98075e-07
267 1 7.32369e-05 15.7241 6.30447 -8.88812 2.61611e-07
268 1 1.57254 17.2965 7.87359 -8.90469 2.44935e-07
269 1 3.14505 15.7241 6.30448 -8.88813 1.88035e-07
270 1 4.71754 17.2965 7.87369 -8.90468 1.81392e-07
271 1 6.28998 15.7241 6.30466 -8.88812 1.27543e-07
272 1 7.86244 17.2964 7.87393 -8.90467 1.46488e-07
273 1 9.4348 15.724 6.30487 -8.88811 1.06757e-07
274 1 11.0072 17.2964 7.87414 -8.90466 1.47105e-07
275 1 12.5795 15.724 6.30496 -8.8881 1.42954e-07
276 1 14.1519 17.2964 7.87414 -8.90466 2.00726e-07
277 1 15.7242 15.724 6.30485 -8.8881 2.28608e-07
278 1 17.2966 17.2964 7.87394 -8.90467 2.76925e-07
279 1 18.869 15.7241 6.30463 -8.88812 2.90601e-07
280 1 20.4415 17.2965 7.8737 -8.90468 2.99892e-07
281 1 9.65363e-05 18.869 6.30433 -8.88813 2.4973e-07
282 1 1.57256 20.4414 7.87345 -8.90469 2.32701e-07
283 1 3.14504 18.869 6.30434 -8.88813 1.87289e-07
284 1 4.71753 20.4414 7.87352 -8.90469 1.78311e-07
285 1 6.28996 18.869 6.30446 -8.88813 1.58729e-07
286 1 7.86243 20.4414 7.87369 -8.90469 1.77054e-07
287 1 9.4348 18.8689 6.30462 -8.88812 1.81221e-07
288 1 11.0072 20.4414 7.87384 -8.90468 2.31347e-07
289 1 12.5795 18.8689 6.30468 -8.88812 2.40606e-07
290 1 14.1519 20.4414 7.87384 -8.90468 3.03547e-07
291 1 15.7243 18.8689 6.3046 -8.88812 2.94066e-07
292 1 17.2967 20.4414 7.87371 -8.90468 3.35561e-07
293 1 18.8691 18.8689 6.30444 -8.88812 2.98858e-07
294 1 20.4415 20.4414 7.87353 -8.90469 3.03675e-07
295 1 2.83718e-05 -9.35594e-16 9.4417 -8.89867 3.18025e-07
296 1 1.57245 1.57251 11.0097 -8.90011 3.76244e-07
297 1 3.14504 -1.65855e-15 9.44167 -8.89867 2.38863e-07
298 1 4.71753 1.57251 11.0098 -8.90011 3.34534e-07
299 1 6.29003 -4.10744e-15 9.44182 -8.89867 2.02806e-07
300 1 7.86249 1.57256 11.0101 -8.90011 3.37235e-07
301 1 9.43488 1.14707e-15 9.44204 -8.89867 2.33769e-07
302 1 11.0073 1.57261 11.0103 -8.9001 3.80434e-07
303 1 12.5796 -3.15545e-15 9.44216 -8.89866 3.18738e-07
304 1 14.1519 1.57264 11.0104 -8.90009 4.5071e-07
305 1 15.7243 1.98252e-15 9.44209 -8.89867 3.88812e-07
306 1 17.2965 1.57261 11.0102 -8.9001 4.81113e-07
307 1 18.869 6.87249e-16 9.44188 -8.89867 3.86283e-07
308 1 20.4413 1.57255 11.0099 -8.90011 4.48082e-07
309 1 -5.84185e-06 3.145 9.4418 -8.89867 3.2793e-07
310 1 1.57238 4.71747 11.0099 -8.90011 4.80733e-07
311 1 3.14503 3.14498 9.44177 -8.89867 2.6765e-07
312 1 4.71749 4.71747 11.01 -8.90009 5.44235e-07
313 1 6.29003 3.14501 9.44196 -8.89867 2.32881e-07
314 1 7.86245 4.71756 11.0105 -8.90009 5.86792e-07
315 1 9.43487 3.14508 9.44225 -8.89866 2.27054e-07
316 1 11.0072 4.71769 11.0109 -8.90006 4.64903e-07
317 1 12.5795 3.14513 9.4424 -8.89866 2.58793e-07
318 1 14.1517 4.71776 11.011 -8.90006 3.22747e-07
319 1 15.7242 3.14512 9.4423 -8.89866 3.1947e-07
320 1 17.2963 4.7177 11.0106 -8.90007 3.11505e-07
321 1 18.869 3.14506 9.44203 -8.89867 3.5646e-07
322 1 20.4412 4.71757 11.0102 -8.9001 4.2815e-07
323 1 -8.2432e-05 6.28988 9.44202 -8.89867 3.53842e-07
324 1 1.57229 7.86228 11.0102 -8.9001 6.23417e-07
325 1 3.14501 6.28986 9.442 -8.89867 3.4812e-07
326 1 4.71744 7.86228 11.0104 -8.90009 9.09652e-07
327 1 6.29002 6.2899 9.44229 -8.89866 3.51152e-07
328 1 7.86236 7.86233 11.011 -8.90009 1.47816e-06
329 1 9.43483 6.28998 9.44272 -8.89864 2.99865e-07
330 1 11.007 7.86243 11.0116 -8.90005 1.40832e-06
331 1 12.5795 6.29005 9.44295 -8.89863 1.71144e-07
332 1 14.1515 7.86249 11.0117 -8.90001 4.6472e-07
333 1 15.724 6.29004 9.44279 -8.89863 1.38758e-07
334 1 17.2961 7.86246 11.0112 -8.90005 1.06449e-07
335 1 18.8688 6.28996 9.44237 -8.89866 2.78636e-07
336 1 20.441 7.86235 11.0105 -8.90009 3.88085e-07
337 1 -0.000144116 9.43462 9.44221 -8.89866 3.78982e-07
338 1 1.57225 11.007 11.0103 -8.9001 6.87099e-07
339 1 3.14499 9.43461 9.44219 -8.89866 4.22232e-07
340 1 4.71741 11.007 11.0106 -8.90008 1.10116e-06
341 1 6.29001 9.43463 9.44258 -8.89865 5.14389e-07
342 1 7.86231 11.007 11.0113 -8.90009 2.33808e-06
343 1 9.43479 9.43466 9.44311 -8.89866 6.52851e-07
344 1 11.0069 11.007 11.0119 -8.90024 2.41289e-06
345 1 12.5794 9.43469 9.44339 -8.89864 3.4383e-07
346 1 14.1514 11.007 11.0121 -8.89999 6.8189e-07
347 1 15.7239 9.43469 9.44319 -8.89862 1.91349e-08
348 1 17.296 11.007 11.0115 -8.90004 5.92182e-09
349 1 18.8687 9.43465 9.44264 -8.89865 2.09276e-07
350 1 20.4409 11.007 11.0107 -8.90009 3.64266e-07
351 1 -0.000144116 12.5793 9.44221 -8.89866 3.78982e-07
352 1 1.57229 14.1516 11.0102 -8.9001 6.23417e-07
353 1 3.14499 12.5793 9.44219 -8.89866 4.22232e-07
354 1 4.71744 14.1516 11.0104 -8.90009 9.09652e-07
355 1 6.29001 12.5793 9.44258 -8.89865 5.14389e-07
356 1 7.86236 14.1516 11.011 -8.90009 1.47816e-06
357 1 9.43479 12.5792 9.44311 -8.89866 6.52851e-07
358 1 11.007 14.1515 11.0116 -8.90005 1.40832e-06
359 1 12.5794 12.5792 9.44339 -8.89864 3.4383e-07
360 1 14.1515 14.1514 11.0117 -8.90001 4.6472e-07
361 1 15.7239 12.5792 9.44319 -8.89862 1.91349e-08
362 1 17.2961 14.1514 11.0112 -8.90005 1.06449e-07
363 1 18.8687 12.5792 9.44264 -8.89865 2.09276e-07
364 1 20.441 14.1515 11.0105 -8.90009 3.88085e-07
365 1 -8.2432e-05 15.724 9.44202 -8.89867 3.53842e-07
366 1 1.57238 17.2964 11.0099 -8.90011 4.80733e-07
367 1 3.14501 15.724 9.442 -8.89867 3.4812e-07
368 1 4.71749 17.2964 11.01 -8.90009 5.44235e-07
369 1 6.29002 15.724 9.44229 -8.89866 3.51152e-07
370 1 7.86245 17.2963 11.0105 -8.90009 5.86792e-07
371 1 9.43483 15.7239 9.44272 -8.89864 2.99865e-07
372 1 11.0072 17.2962 11.0109 -8.90006 4.64903e-07
373 1 12.5795 15.7239 9.44295 -8.89863 1.71144e-07
374 1 14.1517 17.2961 11.011 -8.90006 3.22747e-07
375 1 15.724 15.7239 9.44279 -8.89863 1.38758e-07
376 1 17.2963 17.2962 11.0106 -8.90007 3.11505e-07
377 1 18.8688 15.7239 9.44237 -8.89866 2.78636e-07
378 1 20.4412 17.2963 11.0102 -8.9001 4.2815e-07
379 1 -5.84185e-06 18.8689 9.4418 -8.89867 3.2793e-07
380 1 1.57245 20.4414 11.0097 -8.90011 3.76244e-07
381 1 3.14503 18.8689 9.44177 -8.89867 2.6765e-07
382 1 4.71753 20.4414 11.0098 -8.90011 3.34534e-07
383 1 6.29003 18.8689 9.44196 -8.89867 2.32881e-07
384 1 7.86249 20.4413 11.0101 -8.90011 3.37235e-07
385 1 9.43487 18.8688 9.44225 -8.89866 2.27054e-07
386 1 11.0073 20.4413 11.0103 -8.9001 3.80434e-07
387 1 12.5795 18.8688 9.4424 -8.89866 2.58793e-07
388 1 14.1519 20.4413 11.0104 -8.90009 4.5071e-07
389 1 15.7242 18.8688 9.4423 -8.89866 3.1947e-07
390 1 17.2965 20.4413 11.0102 -8.9001 4.81113e-07
391 1 18.869 18.8688 9.44203 -8.89867 3.5646e-07
392 1 20.4413 20.4413 11.0099 -8.90011 4.48082e-07
393 1 -0.000177304 3.47789e-16 12.5777 -8.89868 5.40085e-07
394 1 3.14492 8.49901e-16 12.5776 -8.89867 4.78102e-07
395 1 6.29001 6.83791e-16 12.5778 -8.89868 5.19781e-07
396 1 9.43491 2.40236e-16 12.5782 -8.89868 5.99182e-07
397 1 12.5796 -2.38473e-15 12.5784 -8.89867 6.85016e-07
398 1 15.7241 -3.66479e-16 12.5784 -8.89867 7.15619e-07
399 1 18.8688 -4.59757e-16 12.578 -8.89868 6.53221e-07
400 1 22.0136 3.14507 12.5779 -8.89868 6.0005e-07
401 1 3.14487 3.145 12.5778 -8.89867 6.36543e-07
402 1 6.28996 3.14504 12.5781 -8.89866 7.56461e-07
403 1 9.43484 3.14518 12.5786 -8.89867 7.64648e-07
404 1 12.5794 3.14533 12.5789 -8.89866 6.8063e-07
405 1 15.7239 3.14535 12.5788 -8.89867 6.10956e-07
406 1 18.8686 3.14523 12.5783 -8.89869 5.81113e-07
407 1 22.0134 6.28998 12.5782 -8.89868 7.16461e-07
408 1 3.14473 6.28988 12.5781 -8.89866 1.09421e-06
409 1 6.28981 6.28991 12.5786 -8.89859 1.86808e-06
410 1 9.43463 6.29007 12.5794 -8.89864 2.12106e-06
411 1 12.5791 6.29027 12.58 -8.89861 1.27991e-06
412 1 15.7236 6.29032 12.5797 -8.8986 4.07053e-07
413 1 18.8683 6.29018 12.5789 -8.89868 3.83265e-07
414 1 22.0132 9.43466 12.5785 -8.89867 7.98254e-07
415 1 3.14462 9.43462 12.5784 -8.89866 1.53195e-06
416 1 6.28965 9.43463 12.5791 -8.89864 3.44997e-06
417 1 9.43434 9.43463 12.58 -8.89873 3.48234e-06
418 1 12.5789 9.43472 12.5806 -8.89861 1.95379e-06
419 1 15.7232 9.43481 12.5805 -8.89859 4.89543e-07
420 1 18.868 9.43475 12.5794 -8.89867 1.71222e-07
421 1 22.0132 12.5792 12.5785 -8.89867 7.98254e-07
422 1 3.14462 12.5793 12.5784 -8.89866 1.53195e-06
423 1 6.28965 12.5793 12.5791 -8.89864 3.44997e-06
424 1 9.43434 12.5793 12.58 -8.89873 3.48234e-06
425 1 12.5789 12.5792 12.5806 -8.89861 1.95379e-06
426 1 15.7232 12.5791 12.5805 -8.89859 4.89543e-07
427 1 18.868 12.5791 12.5794 -8.89867 1.71222e-07
428 1 22.0134 15.7239 12.5782 -8.89868 7.16461e-07
429 1 3.14473 15.724 12.5781 -8.89866 1.09421e-06
430 1 6.28981 15.724 12.5786 -8.89859 1.86808e-06
431 1 9.43463 15.7238 12.5794 -8.89864 2.12106e-06
432 1 12.5791 15.7236 12.58 -8.89861 1.27991e-06
433 1 15.7236 15.7236 12.5797 -8.8986 4.07053e-07
434 1 18.8683 15.7237 12.5789 -8.89868 3.83265e-07
435 1 22.0136 18.8688 12.5779 -8.89868 6.0005e-07
436 1 3.14487 18.8689 12.5778 -8.89867 6.36543e-07
437 1 6.28996 18.8689 12.5781 -8.89866 7.56461e-07
438 1 9.43484 18.8687 12.5786 -8.89867 7.64648e-07
439 1 12.5794 18.8686 12.5789 -8.89866 6.8063e-07
440 1 15.7239 18.8685 12.5788 -8.89867 6.10956e-07
441 1 18.8686 18.8687 12.5783 -8.89869 5.81113e-07
442 1 1.57218 1.57252 14.1458 -8.90468 7.04683e-07
443 1 4.71734 1.5725 14.1459 -8.90467 8.30281e-07
444 1 7.86241 1.57256 14.1463 -8.90469 1.06895e-06
445 1 11.0072 1.57269 14.1468 -8.90468 1.20139e-06
446 1 14.1517 1.57279 14.1469 -8.90467 1.20573e-06
447 1 17.2962 1.57276 14.1466 -8.90467 1.02041e-06
448 1 20.441 1.57263 14.1461 -8.90468 8.29438e-07
449 1 1.57196 4.71749 14.1461 -8.90466 1.08106e-06
450 1 4.71716 4.71742 14.1463 -8.90466 1.60679e-06
451 1 7.86216 4.71754 14.147 -8.90472 1.99973e-06
452 1 11.0069 4.71785 14.1479 -8.90468 1.52185e-06
453 1 14.1512 4.71809 14.1481 -8.90467 8.45875e-07
454 1 17.2957 4.71804 14.1475 -8.90471 7.73963e-07
455 1 20.4407 4.71773 14.1466 -8.90468 8.25107e-07
456 1 1.57167 7.86228 14.1465 -8.90467 1.60416e-06
457 1 4.71686 7.8622 14.1469 -8.90471 3.16267e-06
458 1 7.86159 7.86215 14.1477 -8.90451 2.96588e-06
459 1 11.0063 7.86242 14.149 -8.9045 7.51933e-06
460 1 14.1507 7.86266 14.1494 -8.90417 3.0803e-06
461 1 17.2951 7.86272 14.1485 -8.90467 2.96563e-07
462 1 20.4402 7.86249 14.1471 -8.90469 7.73176e-07
463 1 1.57154 11.007 14.1467 -8.90466 1.82564e-06
464 1 4.71671 11.007 14.1471 -8.90469 3.84107e-06
465 1 7.86136 11.007 14.1481 -8.90459 5.52717e-06
466 1 11.006 11.007 14.1489 -8.9059 8.38217e-07
467 1 14.1504 11.007 14.15 -8.90438 1.04437e-05
468 1 17.2948 11.007 14.149 -8.90465 8.53029e-08
469 1 20.44 11.007 14.1474 -8.90468 7.12176e-07
470 1 1.57167 14.1516 14.1465 -8.90467 1.60416e-06
471 1 4.71686 14.1517 14.1469 -8.90471 3.16267e-06
472 1 7.86159 14.1518 14.1477 -8.90451 2.96588e-06
473 1 11.0063 14.1515 14.149 -8.9045 7.51933e-06
474 1 14.1507 14.1512 14.1494 -8.90417 3.0803e-06
475 1 17.2951 14.1512 14.1485 -8.90467 2.96563e-07
476 1 20.4402 14.1514 14.1471 -8.90469 7.73176e-07
477 1 1.57196 17.2964 14.1461 -8.90466 1.08106e-06
478 1 4.71716 17.2965 14.1463 -8.90466 1.60679e-06
479 1 7.86216 17.2964 14.147 -8.90472 1.99973e-06
480 1 11.0069 17.296 14.1479 -8.90468 1.52185e-06
481 1 14.1512 17.2958 14.1481 -8.90467 8.45875e-07
482 1 17.2957 17.2959 14.1475 -8.90471 7.73963e-07
483 1 20.4407 17.2962 14.1466 -8.90468 8.25107e-07
484 1 1.57218 20.4414 14.1458 -8.90468 7.04683e-07
485 1 4.71734 20.4414 14.1459 -8.90467 8.30281e-07
486 1 7.86241 20.4413 14.1463 -8.90469 1.06895e-06
487 1 11.0072 20.4412 14.1468 -8.90468 1.20139e-06
488 1 14.1517 20.4411 14.1469 -8.90467 1.20573e-06
489 1 17.2962 20.4411 14.1466 -8.90467 1.02041e-06
490 1 20.441 20.4413 14.1461 -8.90468 8.29438e-07
491 1 22.0134 9.21063e-16 15.7149 -8.88815 8.50279e-07
492 1 1.57178 1.57247 17.2765 -8.90299 8.31831e-07
493 1 3.14463 1.04494e-15 15.7148 -8.88814 7.75529e-07
494 1 4.71695 1.57242 17.2766 -8.90304 1.15929e-06
495 1 6.28978 -1.06038e-16 15.7151 -8.88814 1.23703e-06
496 1 7.86208 1.57249 17.2771 -8.90314 2.17797e-06
497 1 9.43479 1.61758e-15 15.7156 -8.88815 1.81466e-06
498 1 11.007 1.57276 17.2777 -8.90306 3.20738e-06
499 1 12.5795 4.40998e-15 15.7159 -8.88814 2.12479e-06
500 1 14.1514 1.573 17.2779 -8.903 3.44646e-06
501 1 15.7239 8.81595e-16 15.7159 -8.88814 1.85689e-06
502 1 17.2958 1.57296 17.2775 -8.90301 2.47026e-06
503 1 18.8685 -8.23652e-16 15.7154 -8.88819 1.31572e-06
504 1 20.4406 1.57268 17.2768 -8.90299 1.40206e-06
505 1 22.0132 3.1451 15.7151 -8.88817 1.04726e-06
506 1 1.57131 4.71738 17.2768 -8.903 1.6356e-06
507 1 3.14448 3.14493 15.715 -8.88813 1.17521e-06
508 1 4.71653 4.71724 17.2772 -8.90323 2.13762e-06
509 1 6.2896 3.14492 15.7154 -8.8881 1.66734e-06
510 1 7.8613 4.71717 17.2782 -8.90305 1.93317e-06
511 1 9.43455 3.14515 15.7162 -8.88819 1.68443e-06
512 1 11.006 4.71792 17.2796 -8.90286 2.87294e-06
513 1 12.5791 3.14553 15.7168 -8.88817 1.60164e-06
514 1 14.1503 4.71864 17.28 -8.90282 1.22008e-06
515 1 15.7235 3.14567 15.7166 -8.88814 1.67978e-06
516 1 17.2946 4.71864 17.2789 -8.90328 2.22981e-06
517 1 18.8681 3.14544 15.7158 -8.88821 1.33435e-06
518 1 20.4398 4.7179 17.2775 -8.90305 1.79683e-06
519 1 22.0127 6.29001 15.7156 -8.88815 1.47416e-06
520 1 1.5706 7.86216 17.2773 -8.90308 2.6933e-06
521 1 3.14405 6.28975 15.7155 -8.88808 2.33247e-06
522 1 4.71543 7.86186 17.2779 -8.90304 1.42589e-06
523 1 6.28897 6.28963 15.7163 -8.88775 2.12579e-06
524 1 7.85927 7.86128 17.2791 -8.90308 7.6125e-05
525 1 9.43373 6.28979 15.7175 -8.88795 3.04317e-06
526 1 11.0043 7.86228 17.281 -8.90526 0.00014887
527 1 12.5783 6.29042 15.7187 -8.88797 8.27532e-06
528 1 14.1487 7.86303 17.2829 -8.9027 0.000171986
529 1 15.7226 6.29073 15.7184 -8.88794 5.78897e-07
530 1 17.2933 7.8632 17.2808 -8.90281 1.10507e-06
531 1 18.8674 6.29045 15.7168 -8.88817 1.15534e-06
532 1 20.4389 7.86262 17.2783 -8.90304 2.1449e-06
533 1 22.0122 9.43467 15.716 -8.88815 1.80675e-06
534 1 1.57026 11.007 17.2775 -8.90307 2.87688e-06
535 1 3.14364 9.43455 15.7159 -8.88814 3.10722e-06
536 1 4.71495 11.007 17.2782 -8.9029 1.43613e-06
537 1 6.28823 9.43445 15.7169 -8.88785 3.32384e-06
538 1 7.85873 11.007 17.2792 -8.90547 0.000180307
539 1 9.43247 9.43416 15.7176 -8.88662 5.52938e-05
540 1 11.0029 11.007 17.2779 -8.9211 0.00269948
541 1 12.5777 9.43447 15.7194 -8.88687 0.000122676
542 1 14.1478 11.007 17.2831 -8.90506 0.000116278
543 1 15.7218 9.43497 15.7197 -8.888 8.35503e-06
544 1 17.2926 11.007 17.2816 -8.90276 3.09841e-06
545 1 18.8667 9.43487 15.7176 -8.88822 5.06961e-07
546 1 20.4385 11.007 17.2787 -8.90301 2.20129e-06
547 1 22.0122 12.5792 15.716 -8.88815 1.80675e-06
548 1 1.5706 14.1517 17.2773 -8.90308 2.6933e-06
549 1 3.14364 12.5794 15.7159 -8.88814 3.10722e-06
550 1 4.71543 14.152 17.2779 -8.90304 1.42589e-06
551 1 6.28823 12.5795 15.7169 -8.88785 3.32384e-06
552 1 7.85927 14.1526 17.2791 -8.90308 7.6125e-05
553 1 9.43247 12.5797 15.7176 -8.88662 5.52938e-05
554 1 11.0043 14.1516 17.281 -8.90526 0.00014887
555 1 12.5777 12.5794 15.7194 -8.88687 0.000122676
556 1 14.1487 14.1509 17.2829 -8.9027 0.000171986
557 1 15.7218 12.5789 15.7197 -8.888 8.35503e-06
558 1 17.2933 14.1507 17.2808 -8.90281 1.10507e-06
559 1 18.8667 12.579 15.7176 -8.88822 5.06961e-07
560 1 20.4389 14.1513 17.2783 -8.90304 2.1449e-06
561 1 22.0127 15.7239 15.7156 -8.88815 1.47416e-06
562 1 1.57131 17.2965 17.2768 -8.903 1.6356e-06
563 1 3.14405 15.7242 15.7155 -8.88808 2.33247e-06
564 1 4.71653 17.2967 17.2772 -8.90323 2.13762e-06
565 1 6.28897 15.7243 15.7163 -8.88775 2.12579e-06
566 1 7.8613 17.2967 17.2782 -8.90305 1.93317e-06
567 1 9.43373 15.7241 15.7175 -8.88795 3.04317e-06
568 1 11.006 17.296 17.2796 -8.90286 2.87294e-06
569 1 12.5783 15.7235 15.7187 -8.88797 8.27532e-06
570 1 14.1503 17.2953 17.28 -8.90282 1.22008e-06
571 1 15.7226 15.7232 15.7184 -8.88794 5.78897e-07
572 1 17.2946 17.2953 17.2789 -8.90328 2.22981e-06
573 1 18.8674 15.7235 15.7168 -8.88817 1.15534e-06
574 1 20.4398 17.296 17.2775 -8.90305 1.79683e-06
575 1 22.0132 18.8688 15.7151 -8.88817 1.04726e-06
576 1 1.57178 20.4414 17.2765 -8.90299 8.31831e-07
577 1 3.14448 18.869 15.715 -8.88813 1.17521e-06
578 1 4.71695 20.4415 17.2766 -8.90304 1.15929e-06
579 1 6.2896 18.869 15.7154 -8.8881 1.66734e-06
580 1 7.86208 20.4414 17.2771 -8.90314 2.17797e-06
581 1 9.43455 18.8687 15.7162 -8.88819 1.68443e-06
582 1 11.007 20.4411 17.2777 -8.90306 3.20738e-06
583 1 12.5791 18.8684 15.7168 -8.88817 1.60164e-06
584 1 14.1514 20.4409 17.2779 -8.903 3.44646e-06