ITEM: TIMESTEP
229
ITEM: NUMBER OF ATOMS
736
ITEM: BOX BOUNDS pp pp pp
0.0000000000000000e+00 2.2013900999999997e+01
0.0000000000000000e+00 2.2013900999999997e+01
0.0000000000000000e+00 5.3462330999999999e+01
ITEM: ATOMS id type x y z c_pot c_ke
1 1 -0.000729563 -2.59501e-16 0.0976286 -7.40188 1.76412e-07
2 1 1.57165 1.5724 1.62441 -8.68379 1.61081e-07
3 1 3.14406 9.44133e-16 0.0976015 -7.40187 1.81867e-07
4 1 4.71646 1.57239 1.62434 -8.68379 1.63878e-07
5 1 6.28889 1.11357e-15 0.0975435 -7.40185 1.85966e-07
6 1 7.86132 1.57239 1.62426 -8.68378 1.6483e-07
7 1 9.43377 2.25798e-16 0.0974982 -7.40183 1.85686e-07
8 1 11.0062 1.57239 1.62423 -8.68378 1.63368e-07
9 1 12.5787 3.07091e-16 0.0974997 -7.40183 1.81234e-07
10 1 14.1511 1.57239 1.62427 -8.68378 1.60441e-07
11 1 15.7236 7.99076e-17 0.0975469 -7.40185 1.75898e-07
12 1 17.2959 1.57239 1.62435 -8.68379 1.58172e-07
13 1 18.8684 -2.53495e-17 0.0976042 -7.40187 1.73731e-07
14 1 20.4408 1.5724 1.62441 -8.68379 1.58458e-07
15 1 -0.000729716 3.14479 0.0976029 -7.40187 1.75641e-07
16 1 1.57165 4.71721 1.62434 -8.68379 1.59626e-07
17 1 3.14406 3.14479 0.0975731 -7.40186 1.81079e-07
18 1 4.71646 4.7172 1.62426 -8.68378 1.6245e-07
19 1 6.28889 3.14478 0.0975087 -7.40184 1.85208e-07
20 1 7.86131 4.7172 1.62416 -8.68377 1.63538e-07
21 1 9.43377 3.14477 0.0974583 -7.40182 1.84986e-07
22 1 11.0062 4.71719 1.62412 -8.68377 1.62222e-07
23 1 12.5787 3.14477 0.0974598 -7.40182 1.80574e-07
24 1 14.1511 4.7172 1.62417 -8.68377 1.59339e-07
25 1 15.7236 3.14478 0.0975121 -7.40184 1.75231e-07
26 1 17.2959 4.7172 1.62427 -8.68378 1.56979e-07
27 1 18.8684 3.14479 0.0975758 -7.40186 1.73015e-07
28 1 20.4408 4.71721 1.62435 -8.68379 1.57108e-07
29 1 -0.000730061 6.28962 0.0975453 -7.40185 1.73954e-07
30 1 1.57164 7.86206 1.62426 -8.68378 1.57954e-07
31 1 3.14405 6.28962 0.0975092 -7.40184 1.7935e-07
32 1 4.71645 7.86206 1.62416 -8.68377 1.60809e-07
33 1 6.28888 6.28961 0.0974303 -7.40181 1.8355e-07
34 1 7.8613 7.86205 1.62404 -8.68377 1.62069e-07
35 1 9.43377 6.2896 0.0973678 -7.40178 1.83456e-07
36 1 11.0062 7.86205 1.62399 -8.68376 1.60936e-07
37 1 12.5787 6.2896 0.0973693 -7.40178 1.79134e-07
38 1 14.1511 7.86205 1.62404 -8.68377 1.58109e-07
39 1 15.7236 6.28961 0.0974336 -7.40181 1.73776e-07
40 1 17.296 7.86206 1.62417 -8.68377 1.55635e-07
41 1 18.8684 6.28962 0.0975119 -7.40184 1.71449e-07
42 1 20.4408 7.86206 1.62427 -8.68378 1.55567e-07
43 1 -0.000730336 9.4345 0.0974992 -7.40183 1.72645e-07
44 1 1.57164 11.007 1.62423 -8.68378 1.5726e-07
45 1 3.14404 9.4345 0.097458 -7.40182 1.78008e-07
46 1 4.71644 11.007 1.62412 -8.68377 1.6013e-07
47 1 6.28887 9.43449 0.097367 -7.40178 1.82264e-07
48 1 7.8613 11.007 1.62398 -8.68376 1.61466e-07
49 1 9.43376 9.43449 0.0972944 -7.40175 1.82272e-07
50 1 11.0062 11.007 1.62392 -8.68376 1.60414e-07
51 1 12.5787 9.43449 0.0972958 -7.40176 1.78023e-07
52 1 14.1511 11.007 1.62399 -8.68376 1.57613e-07
53 1 15.7236 9.43449 0.0973703 -7.40178 1.72652e-07
54 1 17.296 11.007 1.62412 -8.68377 1.55088e-07
55 1 18.8684 9.4345 0.0974606 -7.40182 1.70237e-07
56 1 20.4408 11.007 1.62423 -8.68378 1.54932e-07
57 1 -0.000730336 12.5794 0.0974992 -7.40183 1.72645e-07
58 1 1.57164 14.1518 1.62426 -8.68378 1.57954e-07
59 1 3.14404 12.5794 0.097458 -7.40182 1.78008e-07
60 1 4.71645 14.1518 1.62416 -8.68377 1.60809e-07
61 1 6.28887 12.5794 0.097367 -7.40178 1.82264e-07
62 1 7.8613 14.1518 1.62404 -8.68377 1.62069e-07
63 1 9.43376 12.5794 0.0972944 -7.40175 1.82272e-07
64 1 11.0062 14.1519 1.62399 -8.68376 1.60936e-07
65 1 12.5787 12.5794 0.0972958 -7.40176 1.78023e-07
66 1 14.1511 14.1518 1.62404 -8.68377 1.58109e-07
67 1 15.7236 12.5794 0.0973703 -7.40178 1.72652e-07
68 1 17.296 14.1518 1.62417 -8.68377 1.55635e-07
69 1 18.8684 12.5794 0.0974606 -7.40182 1.70237e-07
70 1 20.4408 14.1518 1.62427 -8.68378 1.55567e-07
71 1 -0.000730061 15.7243 0.0975453 -7.40185 1.73954e-07
72 1 1.57165 17.2967 1.62434 -8.68379 1.59626e-07
73 1 3.14405 15.7243 0.0975092 -7.40184 1.7935e-07
74 1 4.71646 17.2967 1.62426 -8.68378 1.6245e-07
75 1 6.28888 15.7243 0.0974303 -7.40181 1.8355e-07
76 1 7.86131 17.2967 1.62416 -8.68377 1.63538e-07
77 1 9.43377 15.7243 0.0973678 -7.40178 1.83456e-07
78 1 11.0062 17.2967 1.62412 -8.68377 1.62222e-07
79 1 12.5787 15.7243 0.0973693 -7.40178 1.79134e-07
80 1 14.1511 17.2967 1.62417 -8.68377 1.59339e-07
81 1 15.7236 15.7243 0.0974336 -7.40181 1.73776e-07
82 1 17.2959 17.2967 1.62427 -8.68378 1.56979e-07
83 1 18.8684 15.7243 0.0975119 -7.40184 1.71449e-07
84 1 20.4408 17.2967 1.62435 -8.68379 1.57108e-07
85 1 -0.000729716 18.8691 0.0976029 -7.40187 1.75641e-07
86 1 1.57165 20.4415 1.62441 -8.68379 1.61081e-07
87 1 3.14406 18.8691 0.0975731 -7.40186 1.81079e-07
88 1 4.71646 20.4415 1.62434 -8.68379 1.63878e-07
89 1 6.28889 18.8691 0.0975087 -7.40184 1.85208e-07
90 1 7.86132 20.4415 1.62426 -8.68378 1.6483e-07
91 1 9.43377 18.8691 0.0974583 -7.40182 1.84986e-07
92 1 11.0062 20.4415 1.62423 -8.68378 1.63368e-07
93 1 12.5787 18.8691 0.0974598 -7.40182 1.80574e-07
94 1 14.1511 20.4415 1.62427 -8.68378 1.60441e-07
95 1 15.7236 18.8691 0.0975121 -7.40184 1.75231e-07
96 1 17.2959 20.4415 1.62435 -8.68379 1.58172e-07
97 1 18.8684 18.8691 0.0975758 -7.40186 1.73015e-07
98 1 20.4408 20.4415 1.62441 -8.68379 1.58458e-07
99 1 -0.000773585 4.64415e-16 3.15454 -8.93805 1.36742e-07
100 1 1.57158 1.5724 4.74382 -8.90301 1.04467e-07
101 1 3.14403 1.00772e-15 3.1545 -8.93805 1.38152e-07
102 1 4.7164 1.57239 4.74374 -8.90301 1.04912e-07
103 1 6.28887 1.14934e-15 3.15441 -8.93806 1.3896e-07
104 1 7.86125 1.57239 4.74364 -8.90301 1.04943e-07
105 1 9.43374 4.13045e-16 3.15435 -8.93807 1.38751e-07
106 1 11.0061 1.57238 4.74359 -8.90301 1.04697e-07
107 1 12.5786 2.57265e-16 3.15435 -8.93807 1.37682e-07
108 1 14.151 1.57239 4.74364 -8.90301 1.04207e-07
109 1 15.7235 8.50737e-17 3.15442 -8.93806 1.36366e-07
110 1 17.2959 1.57239 4.74374 -8.90301 1.03748e-07
111 1 18.8683 1.32923e-16 3.1545 -8.93805 1.35878e-07
112 1 20.4407 1.5724 4.74382 -8.90301 1.03861e-07
113 1 -0.000773728 3.14481 3.1545 -8.93805 1.35994e-07
114 1 1.57158 4.71721 4.74374 -8.90301 1.032e-07
115 1 3.14403 3.1448 3.15446 -8.93806 1.37382e-07
116 1 4.71639 4.7172 4.74363 -8.90301 1.03668e-07
117 1 6.28886 3.14479 3.15436 -8.93807 1.38236e-07
118 1 7.86124 4.71718 4.7435 -8.90301 1.03822e-07
119 1 9.43373 3.14479 3.15428 -8.93808 1.38107e-07
120 1 11.0061 4.71718 4.74344 -8.90301 1.03708e-07
121 1 12.5786 3.14479 3.15428 -8.93808 1.37092e-07
122 1 14.151 4.71718 4.74351 -8.90301 1.03258e-07
123 1 15.7235 3.14479 3.15436 -8.93807 1.35763e-07
124 1 17.2959 4.7172 4.74364 -8.90301 1.02717e-07
125 1 18.8683 3.1448 3.15446 -8.93806 1.35204e-07
126 1 20.4407 4.71721 4.74374 -8.90301 1.02688e-07
127 1 -0.000774048 6.28964 3.15442 -8.93806 1.34429e-07
128 1 1.57157 7.86206 4.74364 -8.90301 1.01764e-07
129 1 3.14402 6.28963 3.15436 -8.93807 1.35766e-07
130 1 4.71637 7.86205 4.7435 -8.90301 1.02261e-07
131 1 6.28885 6.28962 3.15423 -8.93808 1.36725e-07
132 1 7.86123 7.86204 4.74333 -8.90301 1.02571e-07
133 1 9.43373 6.28962 3.15413 -8.9381 1.36777e-07
134 1 11.0061 7.86203 4.74325 -8.90302 1.02622e-07
135 1 12.5786 6.28962 3.15414 -8.9381 1.35885e-07
136 1 14.151 7.86204 4.74333 -8.90301 1.02224e-07
137 1 15.7235 6.28962 3.15424 -8.93808 1.34526e-07
138 1 17.2959 7.86205 4.74351 -8.90301 1.0158e-07
139 1 18.8683 6.28963 3.15436 -8.93807 1.33808e-07
140 1 20.4407 7.86206 4.74364 -8.90301 1.01372e-07
141 1 -0.000774303 9.43451 3.15435 -8.93807 1.33289e-07
142 1 1.57157 11.007 4.74359 -8.90301 1.01176e-07
143 1 3.14401 9.43451 3.15428 -8.93808 1.34585e-07
144 1 4.71636 11.007 4.74344 -8.90301 1.01686e-07
145 1 6.28884 9.4345 3.15413 -8.9381 1.35629e-07
146 1 7.86122 11.007 4.74325 -8.90302 1.02066e-07
147 1 9.43372 9.4345 3.15401 -8.93812 1.35828e-07
148 1 11.0061 11.007 4.74316 -8.90302 1.02193e-07
149 1 12.5786 9.4345 3.15401 -8.93812 1.35035e-07
150 1 14.1511 11.007 4.74325 -8.90302 1.01818e-07
151 1 15.7235 9.4345 3.15414 -8.9381 1.33653e-07
152 1 17.2959 11.007 4.74345 -8.90301 1.01128e-07
153 1 18.8683 9.43451 3.15428 -8.93808 1.32805e-07
154 1 20.4407 11.007 4.74359 -8.90301 1.00838e-07
155 1 -0.000774303 12.5794 3.15435 -8.93807 1.33289e-07
156 1 1.57157 14.1518 4.74364 -8.90301 1.01764e-07
157 1 3.14401 12.5794 3.15428 -8.93808 1.34585e-07
158 1 4.71637 14.1518 4.7435 -8.90301 1.02261e-07
159 1 6.28884 12.5794 3.15413 -8.9381 1.35629e-07
160 1 7.86123 14.1519 4.74333 -8.90301 1.02571e-07
161 1 9.43372 12.5794 3.15401 -8.93812 1.35828e-07
162 1 11.0061 14.1519 4.74325 -8.90302 1.02622e-07
163 1 12.5786 12.5794 3.15401 -8.93812 1.35035e-07
164 1 14.151 14.1519 4.74333 -8.90301 1.02224e-07
165 1 15.7235 12.5794 3.15414 -8.9381 1.33653e-07
166 1 17.2959 14.1518 4.74351 -8.90301 1.0158e-07
167 1 18.8683 12.5794 3.15428 -8.93808 1.32805e-07
168 1 20.4407 14.1518 4.74364 -8.90301 1.01372e-07
169 1 -0.000774048 15.7243 3.15442 -8.93806 1.34429e-07
170 1 1.57158 17.2967 4.74374 -8.90301 1.032e-07
171 1 3.14402 15.7243 3.15436 -8.93807 1.35766e-07
172 1 4.71639 17.2967 4.74363 -8.90301 1.03668e-07
173 1 6.28885 15.7243 3.15423 -8.93808 1.36725e-07
174 1 7.86124 17.2967 4.7435 -8.90301 1.03822e-07
175 1 9.43373 15.7243 3.15413 -8.9381 1.36777e-07
176 1 11.0061 17.2967 4.74344 -8.90301 1.03708e-07
177 1 12.5786 15.7243 3.15414 -8.9381 1.35885e-07
178 1 14.151 17.2967 4.74351 -8.90301 1.03258e-07
179 1 15.7235 15.7243 3.15424 -8.93808 1.34526e-07
180 1 17.2959 17.2967 4.74364 -8.90301 1.02717e-07
181 1 18.8683 15.7243 3.15436 -8.93807 1.33808e-07
182 1 20.4407 17.2967 4.74374 -8.90301 1.02688e-07
183 1 -0.000773728 18.8691 3.1545 -8.93805 1.35994e-07
184 1 1.57158 20.4415 4.74382 -8.90301 1.04467e-07
185 1 3.14403 18.8691 3.15446 -8.93806 1.37382e-07
186 1 4.7164 20.4415 4.74374 -8.90301 1.04912e-07
187 1 6.28886 18.8691 3.15436 -8.93807 1.38236e-07
188 1 7.86125 20.4415 4.74364 -8.90301 1.04943e-07
189 1 9.43373 18.8691 3.15428 -8.93808 1.38107e-07
190 1 11.0061 20.4415 4.74359 -8.90301 1.04697e-07
191 1 12.5786 18.8691 3.15428 -8.93808 1.37092e-07
192 1 14.151 20.4415 4.74364 -8.90301 1.04207e-07
193 1 15.7235 18.8691 3.15436 -8.93807 1.35763e-07
194 1 17.2959 20.4415 4.74374 -8.90301 1.03748e-07
195 1 18.8683 18.8691 3.15446 -8.93806 1.35204e-07
196 1 20.4407 20.4415 4.74382 -8.90301 1.03861e-07
197 1 -0.000867957 5.08757e-16 6.3056 -8.88811 6.57911e-08
198 1 1.57145 1.57238 7.87481 -8.90467 3.41142e-08
199 1 3.14392 1.1543e-15 6.30555 -8.88811 6.6352e-08
200 1 4.71625 1.57237 7.8747 -8.90467 3.44272e-08
201 1 6.28875 8.29898e-16 6.30543 -8.88812 6.65741e-08
202 1 7.86111 1.57235 7.87455 -8.90467 3.44327e-08
203 1 9.43363 4.91413e-16 6.30534 -8.88812 6.64819e-08
204 1 11.006 1.57235 7.87449 -8.90467 3.4296e-08
205 1 12.5785 4.62877e-16 6.30534 -8.88812 6.61565e-08
206 1 14.1509 1.57235 7.87456 -8.90467 3.39723e-08
207 1 15.7234 5.52784e-16 6.30543 -8.88812 6.56461e-08
208 1 17.2958 1.57237 7.8747 -8.90467 3.36004e-08
209 1 18.8682 7.39421e-16 6.30555 -8.88811 6.54106e-08
210 1 20.4406 1.57238 7.87481 -8.90467 3.36557e-08
211 1 -0.000868128 3.14479 6.30555 -8.88811 6.51455e-08
212 1 1.57144 4.71717 7.8747 -8.90467 3.31199e-08
213 1 3.14391 3.14478 6.30548 -8.88811 6.56845e-08
214 1 4.71621 4.71714 7.87453 -8.90466 3.34519e-08
215 1 6.28874 3.14476 6.30535 -8.88812 6.59502e-08
216 1 7.86108 4.7171 7.87432 -8.90467 3.35778e-08
217 1 9.43362 3.14474 6.30524 -8.88812 6.59348e-08
218 1 11.006 4.71708 7.87423 -8.90467 3.35734e-08
219 1 12.5785 3.14474 6.30524 -8.88812 6.56617e-08
220 1 14.151 4.7171 7.87433 -8.90467 3.3293e-08
221 1 15.7234 3.14476 6.30535 -8.88812 6.51387e-08
222 1 17.2958 4.71714 7.87454 -8.90466 3.28405e-08
223 1 18.8683 3.14478 6.30549 -8.88811 6.48354e-08
224 1 20.4406 4.71717 7.8747 -8.90467 3.27564e-08
225 1 -0.000868501 6.28962 6.30543 -8.88812 6.38123e-08
226 1 1.57142 7.86203 7.87455 -8.90467 3.20279e-08
227 1 3.14389 6.2896 6.30535 -8.88812 6.43006e-08
228 1 4.71617 7.862 7.87432 -8.90467 3.23842e-08
229 1 6.28871 6.28957 6.30515 -8.88812 6.46646e-08
230 1 7.86103 7.86196 7.87401 -8.90469 3.26632e-08
231 1 9.43361 6.28955 6.30499 -8.88813 6.48234e-08
232 1 11.006 7.86194 7.87386 -8.90471 3.28267e-08
233 1 12.5786 6.28955 6.30499 -8.88813 6.46706e-08
234 1 14.151 7.86196 7.87401 -8.90469 3.26042e-08
235 1 15.7235 6.28957 6.30516 -8.88812 6.41216e-08
236 1 17.2959 7.862 7.87433 -8.90467 3.20524e-08
237 1 18.8683 6.2896 6.30535 -8.88812 6.36652e-08
238 1 20.4406 7.86203 7.87456 -8.90467 3.1788e-08
239 1 -0.00086879 9.4345 6.30534 -8.88812 6.28597e-08
240 1 1.57142 11.007 7.87449 -8.90467 3.15944e-08
241 1 3.14387 9.43449 6.30524 -8.88812 6.33063e-08
242 1 4.71615 11.007 7.87423 -8.90467 3.19622e-08
243 1 6.28868 9.43448 6.30499 -8.88813 6.37512e-08
244 1 7.86101 11.007 7.87386 -8.90471 3.23117e-08
245 1 9.4336 9.43447 6.30478 -8.88815 6.40521e-08
246 1 11.006 11.007 7.87368 -8.90475 3.25508e-08
247 1 12.5786 9.43447 6.30478 -8.88815 6.39969e-08
248 1 14.151 11.007 7.87386 -8.90471 3.2354e-08
249 1 15.7235 9.43448 6.30499 -8.88813 6.34279e-08
250 1 17.2959 11.007 7.87423 -8.90467 3.17573e-08
251 1 18.8683 9.43449 6.30524 -8.88812 6.28466e-08
252 1 20.4406 11.007 7.87449 -8.90467 3.14106e-08
253 1 -0.00086879 12.5794 6.30534 -8.88812 6.28597e-08
254 1 1.57142 14.1519 7.87455 -8.90467 3.20279e-08
255 1 3.14387 12.5794 6.30524 -8.88812 6.33063e-08
256 1 4.71617 14.1519 7.87432 -8.90467 3.23842e-08
257 1 6.28868 12.5794 6.30499 -8.88813 6.37512e-08
258 1 7.86103 14.1519 7.87401 -8.90469 3.26632e-08
259 1 9.4336 12.5794 6.30478 -8.88815 6.40521e-08
260 1 11.006 14.152 7.87386 -8.90471 3.28267e-08
261 1 12.5786 12.5794 6.30478 -8.88815 6.39969e-08
262 1 14.151 14.1519 7.87401 -8.90469 3.26042e-08
263 1 15.7235 12.5794 6.30499 -8.88813 6.34279e-08
264 1 17.2959 14.1519 7.87433 -8.90467 3.20524e-08
265 1 18.8683 12.5794 6.30524 -8.88812 6.28466e-08
266 1 20.4406 14.1519 7.87456 -8.90467 3.1788e-08
267 1 -0.000868501 15.7243 6.30543 -8.88812 6.38123e-08
268 1 1.57144 17.2967 7.8747 -8.90467 3.31199e-08
269 1 3.14389 15.7243 6.30535 -8.88812 6.43006e-08
270 1 4.71621 17.2968 7.87453 -8.90466 3.34519e-08
271 1 6.28871 15.7243 6.30515 -8.88812 6.46646e-08
272 1 7.86108 17.2968 7.87432 -8.90467 3.35778e-08
273 1 9.43361 15.7244 6.30499 -8.88813 6.48234e-08
274 1 11.006 17.2968 7.87423 -8.90467 3.35734e-08
275 1 12.5786 15.7244 6.30499 -8.88813 6.46706e-08
276 1 14.151 17.2968 7.87433 -8.90467 3.3293e-08
277 1 15.7235 15.7243 6.30516 -8.88812 6.41216e-08
278 1 17.2958 17.2968 7.87454 -8.90466 3.28405e-08
279 1 18.8683 15.7243 6.30535 -8.88812 6.36652e-08
280 1 20.4406 17.2967 7.8747 -8.90467 3.27564e-08
281 1 -0.000868128 18.8691 6.30555 -8.88811 6.51455e-08
282 1 1.57145 20.4415 7.87481 -8.90467 3.41142e-08
283 1 3.14391 18.8691 6.30548 -8.88811 6.56845e-08
284 1 4.71625 20.4415 7.8747 -8.90467 3.44272e-08
285 1 6.28874 18.8691 6.30535 -8.88812 6.59502e-08
286 1 7.86111 20.4415 7.87455 -8.90467 3.44327e-08
287 1 9.43362 18.8692 6.30524 -8.88812 6.59348e-08
288 1 11.006 20.4416 7.87449 -8.90467 3.4296e-08
289 1 12.5785 18.8692 6.30524 -8.88812 6.56617e-08
290 1 14.1509 20.4415 7.87456 -8.90467 3.39723e-08
291 1 15.7234 18.8691 6.30535 -8.88812 6.51387e-08
292 1 17.2958 20.4415 7.8747 -8.90467 3.36004e-08
293 1 18.8683 18.8691 6.30549 -8.88811 6.48354e-08
294 1 20.4406 20.4415 7.87481 -8.90467 3.36557e-08
295 1 -0.000994949 1.29282e-16 9.44319 -8.89866 1.03501e-08
296 1 1.57131 1.57237 11.0113 -8.9001 6.59229e-10
297 1 3.14377 -2.70445e-16 9.44312 -8.89865 1.07461e-08
298 1 4.71608 1.57234 11.0112 -8.90009 6.41235e-10
299 1 6.28859 -2.39854e-16 9.44296 -8.89865 1.07788e-08
300 1 7.86094 1.57231 11.011 -8.90009 3.56611e-10
301 1 9.43349 -4.33161e-16 9.44283 -8.89865 1.06281e-08
302 1 11.0059 1.57229 11.0109 -8.90009 2.33123e-10
303 1 12.5784 -3.99197e-16 9.44283 -8.89865 1.04335e-08
304 1 14.1508 1.57231 11.011 -8.90009 2.02201e-10
305 1 15.7233 1.20149e-17 9.44296 -8.89865 1.01244e-08
306 1 17.2957 1.57234 11.0112 -8.90009 1.44809e-10
307 1 18.8681 6.80299e-16 9.44312 -8.89865 1.0004e-08
308 1 20.4405 1.57237 11.0113 -8.9001 3.3016e-10
309 1 -0.000995202 3.14476 9.44312 -8.89865 9.9419e-09
310 1 1.57128 4.71715 11.0112 -8.90009 3.28811e-10
311 1 3.14375 3.14474 9.44303 -8.89865 1.03124e-08
312 1 4.716 4.71707 11.0109 -8.90006 3.24894e-10
313 1 6.28856 3.14469 9.44282 -8.89864 1.03886e-08
314 1 7.86086 4.71696 11.0106 -8.90007 1.73096e-10
315 1 9.43347 3.14465 9.44265 -8.89865 1.03195e-08
316 1 11.0059 4.71692 11.0104 -8.90008 2.11132e-10
317 1 12.5784 3.14465 9.44265 -8.89865 1.01844e-08
318 1 14.1509 4.71696 11.0106 -8.90007 2.48969e-10
319 1 15.7234 3.14469 9.44283 -8.89864 9.86508e-09
320 1 17.2958 4.71707 11.0109 -8.90006 1.05352e-10
321 1 18.8682 3.14474 9.44303 -8.89865 9.67216e-09
322 1 20.4405 4.71715 11.0112 -8.90009 1.1952e-10
323 1 -0.000995729 6.28958 9.44296 -8.89865 9.15365e-09
324 1 1.57124 7.86201 11.011 -8.90009 7.9139e-11
325 1 3.1437 6.28955 9.44282 -8.89864 9.46189e-09
326 1 4.71589 7.86193 11.0106 -8.90007 8.81321e-11
327 1 6.28848 6.28947 9.44248 -8.89864 9.63483e-09
328 1 7.86074 7.8618 11.0099 -8.90011 1.07121e-10
329 1 9.43343 6.28941 9.44218 -8.89865 9.75322e-09
330 1 11.0059 7.86175 11.0096 -8.90015 3.53598e-10
331 1 12.5785 6.28941 9.44218 -8.89865 9.75658e-09
332 1 14.151 7.8618 11.0099 -8.90011 4.79643e-10
333 1 15.7234 6.28947 9.44248 -8.89864 9.41762e-09
334 1 17.2959 7.86193 11.0106 -8.90007 2.30665e-10
335 1 18.8682 6.28955 9.44283 -8.89864 9.06281e-09
336 1 20.4405 7.86201 11.011 -8.90009 2.73537e-11
337 1 -0.000996118 9.43448 9.44283 -8.89865 8.64748e-09
338 1 1.57122 11.007 11.0109 -8.90009 2.58059e-11
339 1 3.14366 9.43447 9.44265 -8.89865 8.9036e-09
340 1 4.71585 11.007 11.0104 -8.90008 3.98757e-11
341 1 6.28842 9.43443 9.44217 -8.89865 9.15792e-09
342 1 7.86069 11.007 11.0096 -8.90015 1.37633e-10
343 1 9.4334 9.43439 9.44172 -8.89872 9.43165e-09
344 1 11.0059 11.007 11.0091 -8.90037 4.77646e-10
345 1 12.5785 9.43439 9.44172 -8.89872 9.54688e-09
346 1 14.1511 11.007 11.0096 -8.90015 6.4011e-10
347 1 15.7235 9.43443 9.44218 -8.89865 9.19347e-09
348 1 17.2959 11.007 11.0104 -8.90008 3.45709e-10
349 1 18.8683 9.43447 9.44265 -8.89865 8.70549e-09
350 1 20.4405 11.007 11.0109 -8.90009 4.57611e-11
351 1 -0.000996118 12.5794 9.44283 -8.89865 8.64748e-09
352 1 1.57124 14.1519 11.011 -8.90009 7.9139e-11
353 1 3.14366 12.5794 9.44265 -8.89865 8.9036e-09
354 1 4.71589 14.152 11.0106 -8.90007 8.81321e-11
355 1 6.28842 12.5795 9.44217 -8.89865 9.15792e-09
356 1 7.86074 14.1521 11.0099 -8.90011 1.07121e-10
357 1 9.4334 12.5795 9.44172 -8.89872 9.43165e-09
358 1 11.0059 14.1522 11.0096 -8.90015 3.53598e-10
359 1 12.5785 12.5795 9.44172 -8.89872 9.54688e-09
360 1 14.151 14.1521 11.0099 -8.90011 4.79643e-10
361 1 15.7235 12.5795 9.44218 -8.89865 9.19347e-09
362 1 17.2959 14.152 11.0106 -8.90007 2.30665e-10
363 1 18.8683 12.5794 9.44265 -8.89865 8.70549e-09
364 1 20.4405 14.1519 11.011 -8.90009 2.73537e-11
365 1 -0.000995729 15.7243 9.44296 -8.89865 9.15365e-09
366 1 1.57128 17.2968 11.0112 -8.90009 3.28811e-10
367 1 3.1437 15.7243 9.44282 -8.89864 9.46189e-09
368 1 4.716 17.2968 11.0109 -8.90006 3.24894e-10
369 1 6.28848 15.7244 9.44248 -8.89864 9.63483e-09
370 1 7.86086 17.2969 11.0106 -8.90007 1.73096e-10
371 1 9.43343 15.7245 9.44218 -8.89865 9.75322e-09
372 1 11.0059 17.297 11.0104 -8.90008 2.11132e-10
373 1 12.5785 15.7245 9.44218 -8.89865 9.75658e-09
374 1 14.1509 17.2969 11.0106 -8.90007 2.48969e-10
375 1 15.7234 15.7244 9.44248 -8.89864 9.41762e-09
376 1 17.2958 17.2968 11.0109 -8.90006 1.05352e-10
377 1 18.8682 15.7243 9.44283 -8.89864 9.06281e-09
378 1 20.4405 17.2968 11.0112 -8.90009 1.1952e-10
379 1 -0.000995202 18.8691 9.44312 -8.89865 9.9419e-09
380 1 1.57131 20.4415 11.0113 -8.9001 6.59229e-10
381 1 3.14375 18.8692 9.44303 -8.89865 1.03124e-08
382 1 4.71608 20.4416 11.0112 -8.90009 6.41235e-10
383 1 6.28856 18.8692 9.44282 -8.89864 1.03886e-08
384 1 7.86094 20.4416 11.011 -8.90009 3.56611e-10
385 1 9.43347 18.8692 9.44265 -8.89865 1.03195e-08
386 1 11.0059 20.4416 11.0109 -8.90009 2.33123e-10
387 1 12.5784 18.8692 9.44265 -8.89865 1.01844e-08
388 1 14.1508 20.4416 11.011 -8.90009 2.02201e-10
389 1 15.7234 18.8692 9.44283 -8.89864 9.86508e-09
390 1 17.2957 20.4416 11.0112 -8.90009 1.44809e-10
391 1 18.8682 18.8692 9.44303 -8.89865 9.67216e-09
392 1 20.4405 20.4415 11.0113 -8.9001 3.3016e-10
393 1 -0.00113591 -3.17638e-18 12.5796 -8.89868 6.34142e-09
394 1 3.14364 -2.23928e-16 12.5795 -8.89867 6.24559e-09
395 1 6.28845 -4.98872e-16 12.5793 -8.89867 5.64312e-09
396 1 9.43335 -9.68733e-16 12.5791 -8.89868 5.24035e-09
397 1 12.5783 -5.36039e-16 12.5791 -8.89868 5.40838e-09
398 1 15.7232 -1.5114e-16 12.5793 -8.89867 5.73972e-09
399 1 18.868 2.09344e-16 12.5795 -8.89867 6.0427e-09
400 1 22.0128 3.14478 12.5795 -8.89867 6.49141e-09
401 1 3.1436 3.14474 12.5794 -8.89866 6.35881e-09
402 1 6.28839 3.14464 12.5791 -8.89864 5.80616e-09
403 1 9.43331 3.14455 12.5788 -8.89865 5.50186e-09
404 1 12.5783 3.14455 12.5788 -8.89865 5.75796e-09
405 1 15.7232 3.14464 12.5791 -8.89864 6.09345e-09
406 1 18.868 3.14474 12.5794 -8.89866 6.30142e-09
407 1 22.0128 6.28959 12.5793 -8.89867 6.96512e-09
408 1 3.1435 6.28952 12.5791 -8.89864 6.74289e-09
409 1 6.2882 6.28933 12.5785 -8.89854 6.3072e-09
410 1 9.43321 6.28917 12.5779 -8.8986 6.23043e-09
411 1 12.5784 6.28917 12.5779 -8.8986 6.69311e-09
412 1 15.7234 6.28933 12.5785 -8.89854 7.04552e-09
413 1 18.8681 6.28952 12.5791 -8.89864 7.02678e-09
414 1 22.0128 9.43448 12.5791 -8.89868 7.48167e-09
415 1 3.14342 9.43445 12.5788 -8.89865 7.17683e-09
416 1 6.28804 9.43434 12.5779 -8.8986 6.82232e-09
417 1 9.43307 9.43421 12.5768 -8.89878 6.93895e-09
418 1 12.5786 9.43421 12.5768 -8.89878 7.55575e-09
419 1 15.7236 9.43434 12.5779 -8.8986 7.91971e-09
420 1 18.8682 9.43445 12.5788 -8.89865 7.74151e-09
421 1 22.0128 12.5794 12.5791 -8.89868 7.48167e-09
422 1 3.14342 12.5795 12.5788 -8.89865 7.17683e-09
423 1 6.28804 12.5796 12.5779 -8.8986 6.82232e-09
424 1 9.43307 12.5797 12.5768 -8.89878 6.93895e-09
425 1 12.5786 12.5797 12.5768 -8.89878 7.55575e-09
426 1 15.7236 12.5796 12.5779 -8.8986 7.91971e-09
427 1 18.8682 12.5795 12.5788 -8.89865 7.74151e-09
428 1 22.0128 15.7243 12.5793 -8.89867 6.96512e-09
429 1 3.1435 15.7244 12.5791 -8.89864 6.74289e-09
430 1 6.2882 15.7246 12.5785 -8.89854 6.3072e-09
431 1 9.43321 15.7247 12.5779 -8.8986 6.23043e-09
432 1 12.5784 15.7247 12.5779 -8.8986 6.69311e-09
433 1 15.7234 15.7246 12.5785 -8.89854 7.04552e-09
434 1 18.8681 15.7244 12.5791 -8.89864 7.02678e-09
435 1 22.0128 18.8691 12.5795 -8.89867 6.49141e-09
436 1 3.1436 18.8692 12.5794 -8.89866 6.35881e-09
437 1 6.28839 18.8693 12.5791 -8.89864 5.80616e-09
438 1 9.43331 18.8693 12.5788 -8.89865 5.50186e-09
439 1 12.5783 18.8693 12.5788 -8.89865 5.75796e-09
440 1 15.7232 18.8693 12.5791 -8.89864 6.09345e-09
441 1 18.868 18.8692 12.5794 -8.89866 6.30142e-09
442 1 1.57121 1.57241 14.1479 -8.9047 2.72983e-08
443 1 4.71601 1.57237 14.1478 -8.90468 2.64828e-08
444 1 7.86084 1.5723 14.1475 -8.9047 2.55531e-08
445 1 11.0057 1.57227 14.1474 -8.9047 2.55499e-08
446 1 14.1507 1.5723 14.1475 -8.9047 2.62982e-08
447 1 17.2955 1.57237 14.1478 -8.90468 2.69882e-08
448 1 20.4403 1.57241 14.1479 -8.9047 2.73712e-08
449 1 1.57117 4.71722 14.1478 -8.90468 2.83744e-08
450 1 4.71588 4.71708 14.1475 -8.90465 2.76006e-08
451 1 7.86067 4.71685 14.1469 -8.90465 2.6839e-08
452 1 11.0057 4.71676 14.1466 -8.90466 2.70589e-08
453 1 14.1508 4.71685 14.1469 -8.90465 2.79614e-08
454 1 17.2956 4.71708 14.1475 -8.90465 2.85512e-08
455 1 20.4403 4.71722 14.1478 -8.90468 2.86317e-08
456 1 1.5711 7.86204 14.1475 -8.9047 2.98839e-08
457 1 4.71565 7.86188 14.1469 -8.90465 2.91295e-08
458 1 7.8603 7.8615 14.1455 -8.9044 2.86245e-08
459 1 11.0057 7.86138 14.1447 -8.90466 2.91211e-08
460 1 14.1512 7.8615 14.1455 -8.9044 3.02447e-08
461 1 17.2958 7.86188 14.1469 -8.90465 3.06411e-08
462 1 20.4404 7.86204 14.1475 -8.9047 3.03787e-08
463 1 1.57107 11.007 14.1474 -8.9047 3.06141e-08
464 1 4.71555 11.007 14.1466 -8.90466 2.98491e-08
465 1 7.86017 11.007 14.1447 -8.90466 2.94194e-08
466 1 11.0057 11.007 14.1432 -8.90674 3.00364e-08
467 1 14.1513 11.007 14.1447 -8.90466 3.12337e-08
468 1 17.2959 11.007 14.1466 -8.90466 3.16056e-08
469 1 20.4404 11.007 14.1474 -8.9047 3.12152e-08
470 1 1.5711 14.1519 14.1475 -8.9047 2.98839e-08
471 1 4.71565 14.152 14.1469 -8.90465 2.91295e-08
472 1 7.8603 14.1524 14.1455 -8.9044 2.86245e-08
473 1 11.0057 14.1525 14.1447 -8.90466 2.91211e-08
474 1 14.1512 14.1524 14.1455 -8.9044 3.02447e-08
475 1 17.2958 14.152 14.1469 -8.90465 3.06411e-08
476 1 20.4404 14.1519 14.1475 -8.9047 3.03787e-08
477 1 1.57117 17.2967 14.1478 -8.90468 2.83744e-08
478 1 4.71588 17.2968 14.1475 -8.90465 2.76006e-08
479 1 7.86067 17.297 14.1469 -8.90465 2.6839e-08
480 1 11.0057 17.2971 14.1466 -8.90466 2.70589e-08
481 1 14.1508 17.297 14.1469 -8.90465 2.79614e-08
482 1 17.2956 17.2968 14.1475 -8.90465 2.85512e-08
483 1 20.4403 17.2967 14.1478 -8.90468 2.86317e-08
484 1 1.57121 20.4415 14.1479 -8.9047 2.72983e-08
485 1 4.71601 20.4415 14.1478 -8.90468 2.64828e-08
486 1 7.86084 20.4416 14.1475 -8.9047 2.55531e-08
487 1 11.0057 20.4416 14.1474 -8.9047 2.55499e-08
488 1 14.1507 20.4416 14.1475 -8.9047 2.62982e-08
489 1 17.2955 20.4415 14.1478 -8.90468 2.69882e-08
490 1 20.4403 20.4415 14.1479 -8.9047 2.73712e-08
491 1 22.0126 -8.63888e-16 15.7172 -8.88818 5.83099e-08
492 1 1.57123 1.57255 17.279 -8.90297 9.87602e-08
493 1 3.14366 -4.49248e-16 15.7172 -8.88819 5.77988e-08
494 1 4.71623 1.5726 17.279 -8.90302 9.7844e-08
495 1 6.28848 -2.50017e-16 15.7171 -8.88817 5.65763e-08
496 1 7.86095 1.57254 17.2788 -8.9031 9.66468e-08
497 1 9.43328 -9.64388e-16 15.7169 -8.8882 5.58762e-08
498 1 11.0056 1.5725 17.2787 -8.90309 9.65482e-08
499 1 12.5781 -7.51854e-16 15.7169 -8.8882 5.6405e-08
500 1 14.1503 1.57254 17.2788 -8.9031 9.74808e-08
501 1 15.7229 -3.60349e-16 15.7171 -8.88817 5.73546e-08
502 1 17.295 1.5726 17.279 -8.90302 9.82582e-08
503 1 18.8677 -5.57513e-16 15.7172 -8.88819 5.80116e-08
504 1 20.44 1.57255 17.279 -8.90297 9.87263e-08
505 1 22.0126 3.14492 15.7172 -8.88819 5.94311e-08
506 1 1.57128 4.71755 17.279 -8.90302 1.0196e-07
507 1 3.14364 3.14491 15.7171 -8.88818 5.88755e-08
508 1 4.71632 4.71764 17.2789 -8.90324 1.01189e-07
509 1 6.28841 3.14478 15.7169 -8.88809 5.77772e-08
510 1 7.86079 4.71722 17.2782 -8.90292 1.00501e-07
511 1 9.43323 3.14464 15.7165 -8.88817 5.72129e-08
512 1 11.0056 4.71706 17.2777 -8.90284 1.00699e-07
513 1 12.5781 3.14464 15.7165 -8.88817 5.7884e-08
514 1 14.1505 4.71722 17.2782 -8.90292 1.0195e-07
515 1 15.723 3.14478 15.7169 -8.88809 5.88566e-08
516 1 17.2949 4.71764 17.2789 -8.90324 1.0222e-07
517 1 18.8677 3.14491 15.7171 -8.88818 5.93024e-08
518 1 20.44 4.71755 17.279 -8.90302 1.02182e-07
519 1 22.0126 6.28974 15.7171 -8.88817 6.21871e-08
520 1 1.57122 7.86227 17.2788 -8.9031 1.06283e-07
521 1 3.14352 6.28967 15.7169 -8.88809 6.15641e-08
522 1 4.7159 7.86211 17.2782 -8.90292 1.05881e-07
523 1 6.28809 6.28936 15.7161 -8.8877 6.08043e-08
524 1 7.85972 7.86105 17.2759 -8.90267 1.0585e-07
525 1 9.43301 6.28897 15.7149 -8.88787 6.05159e-08
526 1 11.0056 7.86102 17.2737 -8.90497 1.06462e-07
527 1 12.5784 6.28897 15.7149 -8.88787 6.1547e-08
528 1 14.1515 7.86105 17.2759 -8.90267 1.08405e-07
529 1 15.7233 6.28936 15.7161 -8.8877 6.2689e-08
530 1 17.2954 7.86211 17.2782 -8.90292 1.0788e-07
531 1 18.8679 6.28967 15.7169 -8.88809 6.25309e-08
532 1 20.44 7.86227 17.2788 -8.9031 1.06867e-07
533 1 22.0126 9.43454 15.7169 -8.8882 6.45572e-08
534 1 1.57118 11.007 17.2787 -8.90309 1.08279e-07
535 1 3.14337 9.4345 15.7165 -8.88817 6.38382e-08
536 1 4.71574 11.007 17.2777 -8.90284 1.07936e-07
537 1 6.2877 9.43427 15.7149 -8.88787 6.32123e-08
538 1 7.8597 11.007 17.2737 -8.90497 1.08029e-07
539 1 9.43242 9.43369 15.7118 -8.88714 6.32189e-08
540 1 11.0056 11.007 17.2662 -8.91709 1.09351e-07
541 1 12.5789 9.43369 15.7118 -8.88714 6.44745e-08
542 1 14.1516 11.007 17.2737 -8.90497 1.1079e-07
543 1 15.7237 9.43427 15.7149 -8.88788 6.56598e-08
544 1 17.2955 11.007 17.2777 -8.90284 1.1033e-07
545 1 18.868 9.4345 15.7165 -8.88817 6.524e-08
546 1 20.4401 11.007 17.2787 -8.90309 1.09029e-07
547 1 22.0126 12.5794 15.7169 -8.8882 6.45572e-08
548 1 1.57122 14.1516 17.2788 -8.9031 1.06283e-07
549 1 3.14337 12.5794 15.7165 -8.88817 6.38382e-08
550 1 4.7159 14.1518 17.2782 -8.90292 1.05881e-07
551 1 6.2877 12.5796 15.7149 -8.88787 6.32123e-08
552 1 7.85972 14.1529 17.2759 -8.90267 1.0585e-07
553 1 9.43242 12.5802 15.7118 -8.88714 6.32189e-08
554 1 11.0056 14.1529 17.2737 -8.90497 1.06462e-07
555 1 12.5789 12.5802 15.7118 -8.88714 6.44745e-08
556 1 14.1515 14.1529 17.2759 -8.90267 1.08405e-07
557 1 15.7237 12.5796 15.7149 -8.88788 6.56598e-08
558 1 17.2954 14.1518 17.2782 -8.90292 1.0788e-07
559 1 18.868 12.5794 15.7165 -8.88817 6.524e-08
560 1 20.44 14.1516 17.2788 -8.9031 1.06867e-07
561 1 22.0126 15.7242 15.7171 -8.88817 6.21871e-08
562 1 1.57128 17.2964 17.279 -8.90302 1.0196e-07
563 1 3.14352 15.7242 15.7169 -8.88809 6.15641e-08
564 1 4.71632 17.2963 17.2789 -8.90324 1.01189e-07
565 1 6.28809 15.7245 15.7161 -8.8877 6.08043e-08
566 1 7.86079 17.2967 17.2782 -8.90292 1.00501e-07
567 1 9.43301 15.7249 15.7149 -8.88787 6.05159e-08
568 1 11.0056 17.2968 17.2777 -8.90284 1.00699e-07
569 1 12.5784 15.7249 15.7149 -8.88787 6.1547e-08
570 1 14.1505 17.2967 17.2782 -8.90292 1.0195e-07
571 1 15.7233 15.7245 15.7161 -8.8877 6.2689e-08
572 1 17.2949 17.2963 17.2789 -8.90324 1.0222e-07
573 1 18.8679 15.7242 15.7169 -8.88809 6.25309e-08
574 1 20.44 17.2964 17.279 -8.90302 1.02182e-07
575 1 22.0126 18.869 15.7172 -8.88819 5.94311e-08
576 1 1.57123 20.4413 17.279 -8.90297 9.87602e-08
577 1 3.14364 18.869 15.7171 -8.88818 5.88755e-08
578 1 4.71623 20.4413 17.279 -8.90302 9.7844e-08
579 1 6.28841 18.8691 15.7169 -8.88809 5.77772e-08
580 1 7.86095 20.4414 17.2788 -8.9031 9.66468e-08
581 1 9.43323 18.8693 15.7165 -8.88817 5.72129e-08
582 1 11.0056 20.4414 17.2787 -8.90309 9.65482e-08
583 1 12.5781 18.8693 15.7165 -8.88817 5.7884e-08