ITEM: TIMESTEP
65
ITEM: NUMBER OF ATOMS
736
ITEM: BOX BOUNDS pp pp pp
0.0000000000000000e+00 2.2013900999999997e+01
0.0000000000000000e+00 2.2013900999999997e+01
0.0000000000000000e+00 5.3462330999999999e+01
ITEM: ATOMS id type x y z c_pot c_ke
1 1 2.11401e-05 1.38428e-15 0.0916683 -7.40173 0.000799938
2 1 1.57246 1.57244 1.61866 -8.68392 0.000692077
3 1 3.14489 1.94174e-15 0.0916954 -7.40174 0.000803066
4 1 4.71731 1.57244 1.61871 -8.68392 0.00069565
5 1 6.28973 22.0139 0.0917305 -7.40175 0.000806408
6 1 7.86213 1.57244 1.61875 -8.68392 0.000697668
7 1 9.43454 22.0139 0.0917472 -7.40176 0.000807455
8 1 11.0069 1.57244 1.61876 -8.68392 0.000696665
9 1 12.5793 22.0139 0.0917329 -7.40175 0.000805409
10 1 14.1518 1.57244 1.61872 -8.68392 0.000693422
11 1 15.7242 8.81364e-16 0.0916984 -7.40174 0.000801843
12 1 17.2966 1.57244 1.61866 -8.68392 0.000690317
13 1 18.869 22.0139 0.0916696 -7.40173 0.000799401
14 1 20.4415 1.57243 1.61864 -8.68392 0.000689635
15 1 2.20017e-05 3.14487 0.0916809 -7.40173 0.00080107
16 1 1.57246 4.7173 1.6187 -8.68392 0.000693801
17 1 3.14489 3.14487 0.0917102 -7.40174 0.000803964
18 1 4.71731 4.7173 1.61875 -8.68392 0.000696179
19 1 6.28973 3.14488 0.0917481 -7.40176 0.000806804
20 1 7.86213 4.7173 1.6188 -8.68393 0.000696689
21 1 9.43454 3.14488 0.0917662 -7.40177 0.00080745
22 1 11.0069 4.7173 1.61881 -8.68393 0.000695103
23 1 12.5793 3.14488 0.0917508 -7.40176 0.000805446
24 1 14.1518 4.7173 1.61876 -8.68392 0.000692644
25 1 15.7242 3.14487 0.0917136 -7.40175 0.000802325
26 1 17.2966 4.7173 1.6187 -8.68392 0.000691008
27 1 18.869 3.14487 0.0916825 -7.40173 0.000800357
28 1 20.4415 4.71729 1.61867 -8.68392 0.00069141
29 1 2.39315e-05 6.28972 0.0917093 -7.40174 0.000803598
30 1 1.57246 7.86213 1.61874 -8.68392 0.000695899
31 1 3.1449 6.28972 0.0917432 -7.40176 0.000805926
32 1 4.71731 7.86213 1.61881 -8.68393 0.000696714
33 1 6.28973 6.28973 0.0917875 -7.40178 0.000807542
34 1 7.86213 7.86214 1.61886 -8.68393 0.000695271
35 1 9.43454 6.28973 0.0918087 -7.40178 0.00080722
36 1 11.0069 7.86214 1.61887 -8.68393 0.000692962
37 1 12.5793 6.28973 0.0917909 -7.40178 0.000805348
38 1 14.1518 7.86213 1.61881 -8.68393 0.00069156
39 1 15.7242 6.28972 0.0917475 -7.40176 0.000803317
40 1 17.2966 7.86213 1.61874 -8.68392 0.000691827
41 1 18.869 6.28972 0.0917113 -7.40174 0.000802481
42 1 20.4415 7.86213 1.61871 -8.68392 0.000693609
43 1 2.54727e-05 9.43454 0.0917321 -7.40175 0.000805611
44 1 1.57246 11.007 1.61876 -8.68392 0.000696815
45 1 3.1449 9.43455 0.0917697 -7.40177 0.000807441
46 1 4.71732 11.007 1.61883 -8.68393 0.000696905
47 1 6.28973 9.43455 0.0918191 -7.40179 0.000807978
48 1 7.86214 11.007 1.61889 -8.68393 0.000694567
49 1 9.43454 9.43455 0.0918429 -7.4018 0.00080681
50 1 11.0069 11.007 1.61889 -8.68393 0.000691938
51 1 12.5793 9.43455 0.0918231 -7.40179 0.000805088
52 1 14.1518 11.007 1.61884 -8.68393 0.000691031
53 1 15.7242 9.43455 0.0917748 -7.40177 0.000804029
54 1 17.2966 11.007 1.61876 -8.68392 0.000692176
55 1 18.869 9.43454 0.0917344 -7.40175 0.000804158
56 1 20.4415 11.007 1.61873 -8.68392 0.000694579
57 1 2.54727e-05 12.5794 0.0917321 -7.40175 0.000805611
58 1 1.57246 14.1518 1.61874 -8.68392 0.000695899
59 1 3.1449 12.5794 0.0917697 -7.40177 0.000807441
60 1 4.71731 14.1518 1.61881 -8.68393 0.000696714
61 1 6.28973 12.5794 0.0918191 -7.40179 0.000807978
62 1 7.86213 14.1518 1.61886 -8.68393 0.000695271
63 1 9.43454 12.5794 0.0918429 -7.4018 0.00080681
64 1 11.0069 14.1518 1.61887 -8.68393 0.000692962
65 1 12.5793 12.5794 0.0918231 -7.40179 0.000805088
66 1 14.1518 14.1518 1.61881 -8.68393 0.00069156
67 1 15.7242 12.5794 0.0917748 -7.40177 0.000804029
68 1 17.2966 14.1518 1.61874 -8.68392 0.000691827
69 1 18.869 12.5794 0.0917344 -7.40175 0.000804158
70 1 20.4415 14.1518 1.61871 -8.68392 0.000693609
71 1 2.39315e-05 15.7242 0.0917093 -7.40174 0.000803598
72 1 1.57246 17.2966 1.6187 -8.68392 0.000693801
73 1 3.1449 15.7242 0.0917432 -7.40176 0.000805926
74 1 4.71731 17.2966 1.61875 -8.68392 0.000696179
75 1 6.28973 15.7242 0.0917875 -7.40178 0.000807542
76 1 7.86213 17.2966 1.6188 -8.68393 0.000696689
77 1 9.43454 15.7242 0.0918087 -7.40178 0.00080722
78 1 11.0069 17.2966 1.61881 -8.68393 0.000695103
79 1 12.5793 15.7242 0.0917909 -7.40178 0.000805348
80 1 14.1518 17.2966 1.61876 -8.68392 0.000692644
81 1 15.7242 15.7242 0.0917475 -7.40176 0.000803317
82 1 17.2966 17.2966 1.6187 -8.68392 0.000691008
83 1 18.869 15.7242 0.0917113 -7.40174 0.000802481
84 1 20.4415 17.2966 1.61867 -8.68392 0.00069141
85 1 2.20017e-05 18.869 0.0916809 -7.40173 0.00080107
86 1 1.57246 20.4415 1.61866 -8.68392 0.000692077
87 1 3.14489 18.869 0.0917102 -7.40174 0.000803964
88 1 4.71731 20.4415 1.61871 -8.68392 0.00069565
89 1 6.28973 18.869 0.0917481 -7.40176 0.000806804
90 1 7.86213 20.4415 1.61875 -8.68392 0.000697668
91 1 9.43454 18.869 0.0917662 -7.40177 0.00080745
92 1 11.0069 20.4415 1.61876 -8.68392 0.000696665
93 1 12.5793 18.869 0.0917508 -7.40176 0.000805446
94 1 14.1518 20.4415 1.61872 -8.68392 0.000693422
95 1 15.7242 18.869 0.0917136 -7.40175 0.000802325
96 1 17.2966 20.4415 1.61866 -8.68392 0.000690317
97 1 18.869 18.869 0.0916825 -7.40173 0.000800357
98 1 20.4415 20.4415 1.61864 -8.68392 0.000689635
99 1 2.25639e-05 -5.7366e-16 3.14899 -8.938 0.000587014
100 1 1.57247 1.57244 4.73865 -8.90307 0.000456303
101 1 3.14489 2.23741e-15 3.14903 -8.93799 0.000589935
102 1 4.71732 1.57244 4.73872 -8.90307 0.000457705
103 1 6.28972 22.0139 3.14909 -8.93799 0.000592194
104 1 7.86214 1.57244 4.73877 -8.90307 0.000457425
105 1 9.43454 22.0139 3.14912 -8.93798 0.00059221
106 1 11.0069 1.57244 4.73878 -8.90307 0.00045565
107 1 12.5794 22.0139 3.14909 -8.93799 0.000590002
108 1 14.1518 1.57244 4.73872 -8.90307 0.000453617
109 1 15.7242 5.00125e-16 3.14904 -8.93799 0.000587154
110 1 17.2966 1.57244 4.73865 -8.90307 0.00045295
111 1 18.869 22.0139 3.14899 -8.938 0.000585769
112 1 20.4415 1.57244 4.73862 -8.90307 0.000454344
113 1 2.35607e-05 3.14487 3.14901 -8.938 0.000587627
114 1 1.57247 4.7173 4.7387 -8.90307 0.000455933
115 1 3.14489 3.14487 3.14906 -8.93799 0.000590012
116 1 4.71732 4.71731 4.73878 -8.90307 0.000455691
117 1 6.28972 3.14487 3.14912 -8.93798 0.00059123
118 1 7.86214 4.71731 4.73884 -8.90307 0.000453873
119 1 9.43454 3.14487 3.14915 -8.93798 0.000590529
120 1 11.0069 4.71731 4.73884 -8.90307 0.000451333
121 1 12.5794 3.14487 3.14912 -8.93798 0.000588377
122 1 14.1518 4.71731 4.73878 -8.90307 0.000449867
123 1 15.7242 3.14487 3.14906 -8.93799 0.000586314
124 1 17.2966 4.7173 4.7387 -8.90307 0.000451142
125 1 18.869 3.14487 3.14901 -8.938 0.000585951
126 1 20.4415 4.7173 4.73866 -8.90307 0.000454188
127 1 2.57786e-05 6.28971 3.14906 -8.93799 0.000589024
128 1 1.57248 7.86214 4.73875 -8.90307 0.000455563
129 1 3.14489 6.28972 3.14911 -8.93798 0.000590227
130 1 4.71733 7.86214 4.73885 -8.90307 0.000453551
131 1 6.28973 6.28972 3.14919 -8.93797 0.00058938
132 1 7.86215 7.86214 4.73893 -8.90307 0.000450201
133 1 9.43454 6.28972 3.14922 -8.93797 0.000587279
134 1 11.0069 7.86214 4.73893 -8.90307 0.000446633
135 1 12.5794 6.28972 3.14919 -8.93797 0.00058515
136 1 14.1518 7.86214 4.73885 -8.90307 0.000445485
137 1 15.7242 6.28972 3.14912 -8.93798 0.000584611
138 1 17.2966 7.86214 4.73876 -8.90307 0.000448982
139 1 18.869 6.28971 3.14906 -8.93799 0.000586436
140 1 20.4415 7.86213 4.73871 -8.90307 0.00045402
141 1 2.75386e-05 9.43454 3.14909 -8.93799 0.000590155
142 1 1.57248 11.007 4.73878 -8.90307 0.00045545
143 1 3.1449 9.43454 3.14916 -8.93798 0.00059049
144 1 4.71733 11.007 4.73888 -8.90307 0.000452767
145 1 6.28973 9.43454 3.14924 -8.93797 0.000588273
146 1 7.86215 11.007 4.73897 -8.90307 0.000448888
147 1 9.43454 9.43455 3.14928 -8.93796 0.000585274
148 1 11.0069 11.007 4.73897 -8.90307 0.000444834
149 1 12.5793 9.43454 3.14924 -8.93797 0.00058299
150 1 14.1518 11.007 4.73889 -8.90307 0.000443665
151 1 15.7242 9.43454 3.14916 -8.93798 0.00058341
152 1 17.2966 11.007 4.73878 -8.90307 0.000448067
153 1 18.869 9.43454 3.1491 -8.93799 0.000586874
154 1 20.4415 11.007 4.73874 -8.90307 0.000453954
155 1 2.75386e-05 12.5794 3.14909 -8.93799 0.000590155
156 1 1.57248 14.1518 4.73875 -8.90307 0.000455563
157 1 3.1449 12.5794 3.14916 -8.93798 0.00059049
158 1 4.71733 14.1518 4.73885 -8.90307 0.000453551
159 1 6.28973 12.5794 3.14924 -8.93797 0.000588273
160 1 7.86215 14.1518 4.73893 -8.90307 0.000450201
161 1 9.43454 12.5794 3.14928 -8.93796 0.000585274
162 1 11.0069 14.1518 4.73893 -8.90307 0.000446633
163 1 12.5793 12.5794 3.14924 -8.93797 0.00058299
164 1 14.1518 14.1518 4.73885 -8.90307 0.000445485
165 1 15.7242 12.5794 3.14916 -8.93798 0.00058341
166 1 17.2966 14.1518 4.73876 -8.90307 0.000448982
167 1 18.869 12.5794 3.1491 -8.93799 0.000586874
168 1 20.4415 14.1518 4.73871 -8.90307 0.00045402
169 1 2.57786e-05 15.7242 3.14906 -8.93799 0.000589024
170 1 1.57247 17.2966 4.7387 -8.90307 0.000455933
171 1 3.14489 15.7242 3.14911 -8.93798 0.000590227
172 1 4.71732 17.2966 4.73878 -8.90307 0.000455691
173 1 6.28973 15.7242 3.14919 -8.93797 0.00058938
174 1 7.86214 17.2966 4.73884 -8.90307 0.000453873
175 1 9.43454 15.7242 3.14922 -8.93797 0.000587279
176 1 11.0069 17.2966 4.73884 -8.90307 0.000451333
177 1 12.5794 15.7242 3.14919 -8.93797 0.00058515
178 1 14.1518 17.2966 4.73878 -8.90307 0.000449867
179 1 15.7242 15.7242 3.14912 -8.93798 0.000584611
180 1 17.2966 17.2966 4.7387 -8.90307 0.000451142
181 1 18.869 15.7242 3.14906 -8.93799 0.000586436
182 1 20.4415 17.2966 4.73866 -8.90307 0.000454188
183 1 2.35607e-05 18.869 3.14901 -8.938 0.000587627
184 1 1.57247 20.4415 4.73865 -8.90307 0.000456303
185 1 3.14489 18.869 3.14906 -8.93799 0.000590012
186 1 4.71732 20.4415 4.73872 -8.90307 0.000457705
187 1 6.28972 18.869 3.14912 -8.93798 0.00059123
188 1 7.86214 20.4415 4.73877 -8.90307 0.000457425
189 1 9.43454 18.869 3.14915 -8.93798 0.000590529
190 1 11.0069 20.4415 4.73878 -8.90307 0.00045565
191 1 12.5794 18.869 3.14912 -8.93798 0.000588377
192 1 14.1518 20.4415 4.73872 -8.90307 0.000453617
193 1 15.7242 18.869 3.14906 -8.93799 0.000586314
194 1 17.2966 20.4415 4.73865 -8.90307 0.00045295
195 1 18.869 18.869 3.14901 -8.938 0.000585951
196 1 20.4415 20.4415 4.73862 -8.90307 0.000454344
197 1 4.40461e-05 -1.13274e-16 6.30082 -8.88811 0.000298829
198 1 1.57251 1.57245 7.87053 -8.90466 0.00017715
199 1 3.14492 22.0139 6.30089 -8.8881 0.000299826
200 1 4.71737 1.57246 7.87064 -8.90465 0.00017644
201 1 6.28975 22.0139 6.30097 -8.8881 0.000299151
202 1 7.86217 1.57246 7.87073 -8.90465 0.000173597
203 1 9.43455 1.07553e-15 6.30101 -8.8881 0.000296901
204 1 11.0069 1.57246 7.87073 -8.90465 0.000170925
205 1 12.5793 22.0139 6.30098 -8.8881 0.000295121
206 1 14.1517 1.57246 7.87064 -8.90465 0.000170601
207 1 15.7242 6.02263e-16 6.30089 -8.8881 0.000294868
208 1 17.2966 1.57245 7.87053 -8.90466 0.000172576
209 1 18.869 22.0139 6.30082 -8.88811 0.000296628
210 1 20.4415 1.57245 7.87048 -8.90466 0.000175527
211 1 4.66773e-05 3.14488 6.30085 -8.8881 0.000298086
212 1 1.57252 4.71733 7.8706 -8.90465 0.000175062
213 1 3.14493 3.14489 6.30093 -8.8881 0.000298805
214 1 4.71739 4.71735 7.87074 -8.90465 0.000173684
215 1 6.28976 3.1449 6.30102 -8.8881 0.000297411
216 1 7.86218 4.71736 7.87085 -8.90464 0.000168896
217 1 9.43455 3.1449 6.30106 -8.8881 0.000294415
218 1 11.0069 4.71736 7.87085 -8.90464 0.000164993
219 1 12.5793 3.1449 6.30102 -8.8881 0.000292447
220 1 14.1517 4.71735 7.87074 -8.90465 0.000165306
221 1 15.7242 3.14489 6.30093 -8.8881 0.000292845
222 1 17.2966 4.71733 7.8706 -8.90465 0.000168699
223 1 18.869 3.14488 6.30085 -8.8881 0.000295479
224 1 20.4415 4.71733 7.87054 -8.90466 0.000172995
225 1 5.24993e-05 6.28973 6.30092 -8.8881 0.000296383
226 1 1.57254 7.86216 7.8707 -8.90465 0.000172313
227 1 3.14494 6.28974 6.30101 -8.8881 0.000296467
228 1 4.71741 7.86218 7.87087 -8.90464 0.000169551
229 1 6.28977 6.28975 6.30113 -8.88809 0.000293151
230 1 7.86219 7.86219 7.87101 -8.90463 0.000161642
231 1 9.43455 6.28976 6.30118 -8.88809 0.000287996
232 1 11.0069 7.86219 7.87101 -8.90463 0.00015608
233 1 12.5793 6.28975 6.30113 -8.88809 0.000285666
234 1 14.1517 7.86217 7.87087 -8.90464 0.000157729
235 1 15.7242 6.28974 6.30101 -8.8881 0.000287849
236 1 17.2966 7.86216 7.8707 -8.90465 0.000163536
237 1 18.869 6.28973 6.30092 -8.8881 0.000292708
238 1 20.4415 7.86216 7.87063 -8.90465 0.000169817
239 1 5.70938e-05 9.43455 6.30097 -8.8881 0.000294977
240 1 1.57254 11.007 7.87074 -8.90465 0.000170985
241 1 3.14495 9.43455 6.30108 -8.8881 0.000294449
242 1 4.71741 11.007 7.87092 -8.90464 0.000167333
243 1 6.28978 9.43456 6.30121 -8.88809 0.000289131
244 1 7.8622 11.007 7.87108 -8.90462 0.000157764
245 1 9.43455 9.43456 6.30128 -8.88809 0.000281871
246 1 11.0069 11.007 7.87108 -8.90462 0.000151466
247 1 12.5793 9.43456 6.30122 -8.88809 0.00027946
248 1 14.1517 11.007 7.87092 -8.90464 0.000154011
249 1 15.7242 9.43455 6.30108 -8.8881 0.000283563
250 1 17.2966 11.007 7.87074 -8.90465 0.000161168
251 1 18.869 9.43455 6.30098 -8.8881 0.000290413
252 1 20.4415 11.007 7.87066 -8.90465 0.000168402
253 1 5.70938e-05 12.5794 6.30097 -8.8881 0.000294977
254 1 1.57254 14.1517 7.8707 -8.90465 0.000172313
255 1 3.14495 12.5793 6.30108 -8.8881 0.000294449
256 1 4.71741 14.1517 7.87087 -8.90464 0.000169551
257 1 6.28978 12.5793 6.30121 -8.88809 0.000289131
258 1 7.86219 14.1517 7.87101 -8.90463 0.000161642
259 1 9.43455 12.5793 6.30128 -8.88809 0.000281871
260 1 11.0069 14.1517 7.87101 -8.90463 0.00015608
261 1 12.5793 12.5793 6.30122 -8.88809 0.00027946
262 1 14.1517 14.1517 7.87087 -8.90464 0.000157729
263 1 15.7242 12.5793 6.30108 -8.8881 0.000283563
264 1 17.2966 14.1517 7.8707 -8.90465 0.000163536
265 1 18.869 12.5794 6.30098 -8.8881 0.000290413
266 1 20.4415 14.1517 7.87063 -8.90465 0.000169817
267 1 5.24993e-05 15.7242 6.30092 -8.8881 0.000296383
268 1 1.57252 17.2966 7.8706 -8.90465 0.000175062
269 1 3.14494 15.7242 6.30101 -8.8881 0.000296467
270 1 4.71739 17.2966 7.87074 -8.90465 0.000173684
271 1 6.28977 15.7241 6.30113 -8.88809 0.000293151
272 1 7.86218 17.2965 7.87085 -8.90464 0.000168896
273 1 9.43455 15.7241 6.30118 -8.88809 0.000287996
274 1 11.0069 17.2965 7.87085 -8.90464 0.000164993
275 1 12.5793 15.7241 6.30113 -8.88809 0.000285666
276 1 14.1517 17.2966 7.87074 -8.90465 0.000165306
277 1 15.7242 15.7242 6.30101 -8.8881 0.000287849
278 1 17.2966 17.2966 7.8706 -8.90465 0.000168699
279 1 18.869 15.7242 6.30092 -8.8881 0.000292708
280 1 20.4415 17.2966 7.87054 -8.90466 0.000172995
281 1 4.66773e-05 18.869 6.30085 -8.8881 0.000298086
282 1 1.57251 20.4414 7.87053 -8.90466 0.00017715
283 1 3.14493 18.869 6.30093 -8.8881 0.000298805
284 1 4.71737 20.4414 7.87064 -8.90465 0.00017644
285 1 6.28976 18.869 6.30102 -8.8881 0.000297411
286 1 7.86217 20.4414 7.87073 -8.90465 0.000173597
287 1 9.43455 18.869 6.30106 -8.8881 0.000294415
288 1 11.0069 20.4414 7.87073 -8.90465 0.000170925
289 1 12.5793 18.869 6.30102 -8.8881 0.000292447
290 1 14.1517 20.4414 7.87064 -8.90465 0.000170601
291 1 15.7242 18.869 6.30093 -8.8881 0.000292845
292 1 17.2966 20.4414 7.87053 -8.90466 0.000172576
293 1 18.869 18.869 6.30085 -8.8881 0.000295479
294 1 20.4415 20.4415 7.87048 -8.90466 0.000175527
295 1 8.50981e-05 -6.09509e-16 9.43931 -8.89867 7.12606e-05
296 1 1.57259 1.57248 11.008 -8.90007 1.34578e-05
297 1 3.14499 22.0139 9.43942 -8.89867 7.15324e-05
298 1 4.71746 1.57249 11.0082 -8.90006 1.25289e-05
299 1 6.28981 1.10928e-15 9.43956 -8.89867 6.95109e-05
300 1 7.86222 1.57251 11.0084 -8.90006 1.08653e-05
301 1 9.43456 8.20783e-16 9.43963 -8.89867 6.69207e-05
302 1 11.0069 1.5725 11.0084 -8.90006 9.63381e-06
303 1 12.5793 1.42298e-15 9.43956 -8.89867 6.56268e-05
304 1 14.1517 1.57249 11.0082 -8.90006 9.74562e-06
305 1 15.7241 -7.978e-16 9.43942 -8.89867 6.67226e-05
306 1 17.2966 1.57247 11.008 -8.90007 1.12286e-05
307 1 18.869 22.0139 9.43931 -8.89867 6.91518e-05
308 1 20.4415 1.57247 11.0079 -8.90007 1.26937e-05
309 1 9.19043e-05 3.14491 9.43936 -8.89867 7.00625e-05
310 1 1.57262 4.71739 11.0081 -8.90006 1.22016e-05
311 1 3.145 3.14493 9.43949 -8.89867 7.02407e-05
312 1 4.7175 4.71743 11.0084 -8.90005 1.06269e-05
313 1 6.28982 3.14495 9.43965 -8.89867 6.72919e-05
314 1 7.86225 4.71746 11.0086 -8.90004 8.33331e-06
315 1 9.43457 3.14496 9.43972 -8.89867 6.37831e-05
316 1 11.0069 4.71746 11.0086 -8.90004 6.75734e-06
317 1 12.5793 3.14494 9.43965 -8.89867 6.23017e-05
318 1 14.1517 4.71742 11.0084 -8.90006 6.96602e-06
319 1 15.7241 3.14492 9.43949 -8.89867 6.39824e-05
320 1 17.2966 4.71738 11.0081 -8.90006 9.13265e-06
321 1 18.869 3.14491 9.43936 -8.89867 6.73265e-05
322 1 20.4415 4.71736 11.008 -8.90007 1.12921e-05
323 1 0.000106702 6.28977 9.43947 -8.89867 6.73641e-05
324 1 1.57265 7.8622 11.0083 -8.90006 1.05051e-05
325 1 3.14503 6.28979 9.43964 -8.89867 6.6966e-05
326 1 4.71755 7.86224 11.0086 -8.90004 8.20368e-06
327 1 6.28985 6.28982 9.43985 -8.89866 6.21443e-05
328 1 7.86228 7.86227 11.0089 -8.9 5.63629e-06
329 1 9.43457 6.28983 9.43995 -8.89866 5.69019e-05
330 1 11.0069 7.86227 11.0089 -8.90001 3.78105e-06
331 1 12.5793 6.28981 9.43985 -8.89866 5.49649e-05
332 1 14.1517 7.86223 11.0086 -8.90005 3.95418e-06
333 1 15.7241 6.28979 9.43963 -8.89867 5.78452e-05
334 1 17.2966 7.8622 11.0083 -8.90006 6.76372e-06
335 1 18.869 6.28977 9.43947 -8.89867 6.34028e-05
336 1 20.4416 7.86219 11.0082 -8.90006 9.56884e-06
337 1 0.000118222 9.43457 9.43956 -8.89867 6.51719e-05
338 1 1.57267 11.007 11.0084 -8.90006 9.77251e-06
339 1 3.14505 9.43458 9.43975 -8.89867 6.41791e-05
340 1 4.71757 11.007 11.0087 -8.90004 7.25301e-06
341 1 6.28987 9.43459 9.44002 -8.89865 5.79741e-05
342 1 7.8623 11.007 11.0091 -8.89998 4.65479e-06
343 1 9.43458 9.43459 9.44014 -8.89864 5.1503e-05
344 1 11.0069 11.007 11.0091 -8.89999 2.6468e-06
345 1 12.5793 9.43459 9.44001 -8.89866 4.89898e-05
346 1 14.1517 11.007 11.0087 -8.90005 2.81107e-06
347 1 15.7241 9.43457 9.43975 -8.89867 5.28224e-05
348 1 17.2966 11.007 11.0084 -8.90006 5.74474e-06
349 1 18.869 9.43456 9.43956 -8.89867 6.0246e-05
350 1 20.4416 11.007 11.0082 -8.90006 8.79454e-06
351 1 0.000118222 12.5793 9.43956 -8.89867 6.51719e-05
352 1 1.57265 14.1517 11.0083 -8.90006 1.05051e-05
353 1 3.14505 12.5793 9.43975 -8.89867 6.41791e-05
354 1 4.71755 14.1517 11.0086 -8.90004 8.20368e-06
355 1 6.28987 12.5793 9.44002 -8.89865 5.79741e-05
356 1 7.86228 14.1516 11.0089 -8.9 5.63629e-06
357 1 9.43458 12.5793 9.44014 -8.89864 5.1503e-05
358 1 11.0069 14.1516 11.0089 -8.90001 3.78105e-06
359 1 12.5793 12.5793 9.44001 -8.89866 4.89898e-05
360 1 14.1517 14.1517 11.0086 -8.90005 3.95418e-06
361 1 15.7241 12.5793 9.43975 -8.89867 5.28224e-05
362 1 17.2966 14.1517 11.0083 -8.90006 6.76372e-06
363 1 18.869 12.5793 9.43956 -8.89867 6.0246e-05
364 1 20.4416 14.1517 11.0082 -8.90006 9.56884e-06
365 1 0.000106702 15.7241 9.43947 -8.89867 6.73641e-05
366 1 1.57262 17.2965 11.0081 -8.90006 1.22016e-05
367 1 3.14503 15.7241 9.43964 -8.89867 6.6966e-05
368 1 4.7175 17.2965 11.0084 -8.90005 1.06269e-05
369 1 6.28985 15.7241 9.43985 -8.89866 6.21443e-05
370 1 7.86225 17.2964 11.0086 -8.90004 8.33331e-06
371 1 9.43457 15.7241 9.43995 -8.89866 5.69019e-05
372 1 11.0069 17.2964 11.0086 -8.90004 6.75734e-06
373 1 12.5793 15.7241 9.43985 -8.89866 5.49649e-05
374 1 14.1517 17.2965 11.0084 -8.90006 6.96602e-06
375 1 15.7241 15.7241 9.43963 -8.89867 5.78452e-05
376 1 17.2966 17.2965 11.0081 -8.90006 9.13265e-06
377 1 18.869 15.7241 9.43947 -8.89867 6.34028e-05
378 1 20.4415 17.2965 11.008 -8.90007 1.12921e-05
379 1 9.19043e-05 18.869 9.43936 -8.89867 7.00625e-05
380 1 1.57259 20.4414 11.008 -8.90007 1.34578e-05
381 1 3.145 18.869 9.43949 -8.89867 7.02407e-05
382 1 4.71746 20.4414 11.0082 -8.90006 1.25289e-05
383 1 6.28982 18.869 9.43965 -8.89867 6.72919e-05
384 1 7.86222 20.4414 11.0084 -8.90006 1.08653e-05
385 1 9.43457 18.8689 9.43972 -8.89867 6.37831e-05
386 1 11.0069 20.4414 11.0084 -8.90006 9.63381e-06
387 1 12.5793 18.869 9.43965 -8.89867 6.23017e-05
388 1 14.1517 20.4414 11.0082 -8.90006 9.74562e-06
389 1 15.7241 18.869 9.43949 -8.89867 6.39824e-05
390 1 17.2966 20.4414 11.008 -8.90007 1.12286e-05
391 1 18.869 18.869 9.43936 -8.89867 6.73265e-05
392 1 20.4415 20.4414 11.0079 -8.90007 1.26937e-05
393 1 0.000147996 -9.62411e-16 12.5765 -8.89868 1.59949e-06
394 1 3.14509 22.0139 12.5767 -8.89868 1.31776e-06
395 1 6.28989 22.0139 12.577 -8.89868 1.8959e-06
396 1 9.43459 22.0139 12.5771 -8.89867 2.90145e-06
397 1 12.5793 1.50383e-15 12.577 -8.89868 3.59624e-06
398 1 15.7241 22.0139 12.5767 -8.89868 3.3818e-06
399 1 18.8691 22.0139 12.5765 -8.89868 2.46039e-06
400 1 0.000164867 3.14495 12.5766 -8.89868 2.12299e-06
401 1 3.14512 3.14499 12.5768 -8.89869 1.75777e-06
402 1 6.28992 3.14505 12.5771 -8.89868 2.63921e-06
403 1 9.4346 3.14506 12.5773 -8.89867 4.22563e-06
404 1 12.5793 3.14503 12.5771 -8.89868 5.43596e-06
405 1 15.7241 3.14497 12.5768 -8.89868 5.02258e-06
406 1 18.8691 3.14494 12.5766 -8.89868 3.44948e-06
407 1 0.000200481 6.28981 12.5768 -8.89867 3.41235e-06
408 1 3.14519 6.28987 12.5771 -8.89868 2.97446e-06
409 1 6.29 6.28995 12.5775 -8.89866 4.60262e-06
410 1 9.43462 6.28997 12.5777 -8.89865 7.8839e-06
411 1 12.5793 6.28993 12.5775 -8.89866 1.09209e-05
412 1 15.7241 6.28985 12.5771 -8.89868 1.00239e-05
413 1 18.8691 6.2898 12.5768 -8.89867 6.01527e-06
414 1 0.000227532 9.43459 12.5769 -8.89867 4.53153e-06
415 1 3.14524 9.43461 12.5773 -8.89868 4.18865e-06
416 1 6.29007 9.43465 12.5779 -8.89866 6.85332e-06
417 1 9.43464 9.43466 12.5781 -8.89856 1.21112e-05
418 1 12.5792 9.43464 12.5778 -8.89867 1.76303e-05
419 1 15.7241 9.4346 12.5773 -8.89868 1.51741e-05
420 1 18.8691 9.43458 12.5769 -8.89867 8.37282e-06
421 1 0.000227532 12.5793 12.5769 -8.89867 4.53153e-06
422 1 3.14524 12.5793 12.5773 -8.89868 4.18865e-06
423 1 6.29007 12.5793 12.5779 -8.89866 6.85332e-06
424 1 9.43464 12.5792 12.5781 -8.89856 1.21112e-05
425 1 12.5792 12.5793 12.5778 -8.89867 1.76303e-05
426 1 15.7241 12.5793 12.5773 -8.89868 1.51741e-05
427 1 18.8691 12.5793 12.5769 -8.89867 8.37282e-06
428 1 0.000200481 15.7241 12.5768 -8.89867 3.41235e-06
429 1 3.14519 15.724 12.5771 -8.89868 2.97446e-06
430 1 6.29 15.7239 12.5775 -8.89866 4.60262e-06
431 1 9.43462 15.7239 12.5777 -8.89865 7.8839e-06
432 1 12.5793 15.724 12.5775 -8.89866 1.09209e-05
433 1 15.7241 15.7241 12.5771 -8.89868 1.00239e-05
434 1 18.8691 15.7241 12.5768 -8.89867 6.01527e-06
435 1 0.000164867 18.869 12.5766 -8.89868 2.12299e-06
436 1 3.14512 18.8689 12.5768 -8.89869 1.75777e-06
437 1 6.28992 18.8689 12.5771 -8.89868 2.63921e-06
438 1 9.4346 18.8688 12.5773 -8.89867 4.22563e-06
439 1 12.5793 18.8689 12.5771 -8.89868 5.43596e-06
440 1 15.7241 18.8689 12.5768 -8.89868 5.02258e-06
441 1 18.8691 18.869 12.5766 -8.89868 3.44948e-06
442 1 1.57269 1.57251 14.1454 -8.90466 3.45557e-05
443 1 4.71758 1.57255 14.1457 -8.90465 3.60967e-05
444 1 7.86229 1.57258 14.146 -8.90465 4.19051e-05
445 1 11.0069 1.57257 14.146 -8.90465 4.70614e-05
446 1 14.1517 1.57253 14.1457 -8.90465 4.71535e-05
447 1 17.2966 1.57249 14.1454 -8.90465 4.30503e-05
448 1 20.4416 1.57248 14.1453 -8.90465 3.68596e-05
449 1 1.57276 4.71745 14.1456 -8.90465 3.91165e-05
450 1 4.71769 4.71757 14.1461 -8.90467 4.02864e-05
451 1 7.86236 4.71765 14.1465 -8.90465 4.89185e-05
452 1 11.0069 4.71763 14.1465 -8.90466 5.89645e-05
453 1 14.1516 4.71752 14.1461 -8.90467 6.10549e-05
454 1 17.2966 4.71742 14.1456 -8.90465 5.4345e-05
455 1 20.4416 4.7174 14.1455 -8.90465 4.29616e-05
456 1 1.57283 7.86226 14.1459 -8.90465 4.55836e-05
457 1 4.71782 7.86236 14.1466 -8.90467 4.78182e-05
458 1 7.86248 7.86246 14.1472 -8.90457 5.78861e-05
459 1 11.0069 7.86243 14.1472 -8.9046 7.77458e-05
460 1 14.1516 7.86231 14.1465 -8.90467 8.70678e-05
461 1 17.2965 7.86223 14.1459 -8.90465 7.15674e-05
462 1 20.4416 7.86221 14.1457 -8.90465 5.12691e-05
463 1 1.57287 11.007 14.146 -8.90465 4.90141e-05
464 1 4.71787 11.007 14.1468 -8.90467 5.26057e-05
465 1 7.86254 11.007 14.1476 -8.90463 6.4975e-05
466 1 11.0069 11.007 14.1475 -8.90469 9.17491e-05
467 1 14.1516 11.007 14.1467 -8.90467 0.000101657
468 1 17.2965 11.007 14.146 -8.90465 7.98078e-05
469 1 20.4416 11.007 14.1458 -8.90465 5.5084e-05
470 1 1.57283 14.1516 14.1459 -8.90465 4.55836e-05
471 1 4.71782 14.1515 14.1466 -8.90467 4.78182e-05
472 1 7.86248 14.1514 14.1472 -8.90457 5.78861e-05
473 1 11.0069 14.1515 14.1472 -8.9046 7.77458e-05
474 1 14.1516 14.1516 14.1465 -8.90467 8.70678e-05
475 1 17.2965 14.1517 14.1459 -8.90465 7.15674e-05
476 1 20.4416 14.1517 14.1457 -8.90465 5.12691e-05
477 1 1.57276 17.2964 14.1456 -8.90465 3.91165e-05
478 1 4.71769 17.2963 14.1461 -8.90467 4.02864e-05
479 1 7.86236 17.2962 14.1465 -8.90465 4.89185e-05
480 1 11.0069 17.2963 14.1465 -8.90466 5.89645e-05
481 1 14.1516 17.2964 14.1461 -8.90467 6.10549e-05
482 1 17.2966 17.2965 14.1456 -8.90465 5.4345e-05
483 1 20.4416 17.2965 14.1455 -8.90465 4.29616e-05
484 1 1.57269 20.4414 14.1454 -8.90466 3.45557e-05
485 1 4.71758 20.4413 14.1457 -8.90465 3.60967e-05
486 1 7.86229 20.4413 14.146 -8.90465 4.19051e-05
487 1 11.0069 20.4413 14.146 -8.90465 4.70614e-05
488 1 14.1517 20.4414 14.1457 -8.90465 4.71535e-05
489 1 17.2966 20.4414 14.1454 -8.90465 4.30503e-05
490 1 20.4416 20.4414 14.1453 -8.90465 3.68596e-05
491 1 0.000211851 5.63913e-16 15.7149 -8.88812 9.29299e-05
492 1 1.57276 1.57252 17.2771 -8.90305 0.000181311
493 1 3.14518 8.72015e-16 15.7151 -8.88813 9.29392e-05
494 1 4.71768 1.57263 17.2776 -8.90306 0.000187705
495 1 6.28997 1.01134e-15 15.7155 -8.88811 9.96199e-05
496 1 7.86236 1.57269 17.2779 -8.90304 0.000202968
497 1 9.43463 22.0139 15.7157 -8.88811 0.000110402
498 1 11.007 1.57266 17.2779 -8.90305 0.000218142
499 1 12.5793 22.0139 15.7155 -8.88811 0.00011457
500 1 14.1517 1.57257 17.2776 -8.90307 0.000219791
501 1 15.7241 22.0139 15.7151 -8.88812 0.000110732
502 1 17.2966 1.57249 17.2771 -8.90305 0.000205162
503 1 18.8691 22.0139 15.7149 -8.88811 0.000100619
504 1 20.4416 1.57247 17.277 -8.90305 0.000188204
505 1 0.000248487 3.14497 15.715 -8.88812 9.79928e-05
506 1 1.5729 4.71749 17.2774 -8.90307 0.000193853
507 1 3.14525 3.14507 15.7153 -8.88814 9.73584e-05
508 1 4.71798 4.71782 17.2782 -8.90321 0.000197857
509 1 6.29005 3.1452 15.7158 -8.88811 0.000104739
510 1 7.86256 4.71801 17.2789 -8.90309 0.000216456
511 1 9.43465 3.14522 15.716 -8.88811 0.000120274
512 1 11.0069 4.71792 17.2788 -8.90311 0.000249836
513 1 12.5793 3.14514 15.7158 -8.88811 0.00012829
514 1 14.1516 4.71764 17.2781 -8.90318 0.000266746
515 1 15.7241 3.14501 15.7153 -8.88813 0.000124387
516 1 17.2966 4.71741 17.2774 -8.90306 0.000243322
517 1 18.8691 3.14495 15.715 -8.88811 0.000109245
518 1 20.4417 4.71738 17.2772 -8.90303 0.000208217
519 1 0.000324186 6.28984 15.7153 -8.88811 0.000110269
520 1 1.57305 7.86229 17.2778 -8.90307 0.000213691
521 1 3.14542 6.28997 15.7158 -8.88812 0.000108671
522 1 4.71826 7.86256 17.279 -8.90317 0.000222428
523 1 6.29028 6.2902 15.7167 -8.88805 0.00011335
524 1 7.86304 7.86299 17.2806 -8.90381 0.000194267
525 1 9.43472 6.29025 15.717 -8.88801 0.000138832
526 1 11.0068 7.86287 17.2804 -8.90389 0.000267568
527 1 12.5792 6.2901 15.7165 -8.88806 0.000163725
528 1 14.1516 7.86238 17.2788 -8.90317 0.000372433
529 1 15.7241 6.28989 15.7157 -8.88811 0.000164162
530 1 17.2966 7.8622 17.2778 -8.90306 0.000303126
531 1 18.8691 6.28981 15.7152 -8.8881 0.00013145
532 1 20.4418 7.86219 17.2774 -8.90304 0.000236494
533 1 0.000378731 9.43459 15.7155 -8.88811 0.000121178
534 1 1.5731 11.007 17.278 -8.90306 0.000223265
535 1 3.14552 9.43465 15.7161 -8.88812 0.000121257
536 1 4.71836 11.007 17.2793 -8.90319 0.000239222
537 1 6.29045 9.43476 15.7173 -8.88801 0.000130039
538 1 7.86327 11.007 17.2813 -8.90465 0.000219762
539 1 9.43481 9.4348 15.718 -8.88699 0.000152219
540 1 11.0068 11.007 17.281 -8.9047 0.000340468
541 1 12.5792 9.43471 15.7171 -8.88803 0.000219412
542 1 14.1516 11.007 17.279 -8.90325 0.000439964
543 1 15.7241 9.43461 15.716 -8.8881 0.000205653
544 1 17.2967 11.007 17.2779 -8.90307 0.000334066
545 1 18.8691 9.43458 15.7154 -8.8881 0.000151509
546 1 20.4418 11.007 17.2776 -8.90304 0.000250196
547 1 0.000378731 12.5793 15.7155 -8.88811 0.000121178
548 1 1.57305 14.1516 17.2778 -8.90307 0.000213691
549 1 3.14552 12.5792 15.7161 -8.88812 0.000121257
550 1 4.71826 14.1513 17.279 -8.90317 0.000222428
551 1 6.29045 12.5791 15.7173 -8.88801 0.000130039
552 1 7.86304 14.1509 17.2806 -8.90381 0.000194267
553 1 9.43481 12.5791 15.718 -8.88699 0.000152219
554 1 11.0068 14.151 17.2804 -8.90389 0.000267568
555 1 12.5792 12.5792 15.7171 -8.88803 0.000219412
556 1 14.1516 14.1515 17.2788 -8.90317 0.000372433
557 1 15.7241 12.5793 15.716 -8.8881 0.000205653
558 1 17.2966 14.1517 17.2778 -8.90306 0.000303126
559 1 18.8691 12.5793 15.7154 -8.8881 0.000151509
560 1 20.4418 14.1517 17.2774 -8.90304 0.000236494
561 1 0.000324186 15.7241 15.7153 -8.88811 0.000110269
562 1 1.5729 17.2964 17.2774 -8.90307 0.000193853
563 1 3.14542 15.7239 15.7158 -8.88812 0.000108671
564 1 4.71798 17.2961 17.2782 -8.90321 0.000197857
565 1 6.29028 15.7237 15.7167 -8.88805 0.00011335
566 1 7.86256 17.2959 17.2789 -8.90309 0.000216456
567 1 9.43472 15.7237 15.717 -8.88801 0.000138832
568 1 11.0069 17.296 17.2788 -8.90311 0.000249836
569 1 12.5792 15.7238 15.7165 -8.88806 0.000163725
570 1 14.1516 17.2963 17.2781 -8.90318 0.000266746
571 1 15.7241 15.724 15.7157 -8.88811 0.000164162
572 1 17.2966 17.2965 17.2774 -8.90306 0.000243322
573 1 18.8691 15.7241 15.7152 -8.8881 0.00013145
574 1 20.4417 17.2965 17.2772 -8.90303 0.000208217
575 1 0.000248487 18.8689 15.715 -8.88812 9.79928e-05
576 1 1.57276 20.4414 17.2771 -8.90305 0.000181311
577 1 3.14525 18.8688 15.7153 -8.88814 9.73584e-05
578 1 4.71768 20.4413 17.2776 -8.90306 0.000187705
579 1 6.29005 18.8687 15.7158 -8.88811 0.000104739
580 1 7.86236 20.4412 17.2779 -8.90304 0.000202968
581 1 9.43465 18.8687 15.716 -8.88811 0.000120274
582 1 11.007 20.4412 17.2779 -8.90305 0.000218142
583 1 12.5793 18.8688 15.7158 -8.88811 0.00012829
584 1 14.1517 20.4413 17.2776 -8.90307 0.000219791
585 1 15.7241 18.8689 15.7153 -8.88813 0.000124387