ITEM: TIMESTEP
37
ITEM: NUMBER OF ATOMS
736
ITEM: BOX BOUNDS pp pp pp
0.0000000000000000e+00 2.2013900999999997e+01
0.0000000000000000e+00 2.2013900999999997e+01
0.0000000000000000e+00 5.3462330999999999e+01
ITEM: ATOMS id type x y z c_pot c_ke
1 1 6.53593e-13 8.09126e-16 0.0262704 -7.38999 0.0473858
2 1 1.57242 1.57242 1.5768 -8.69555 0.00214932
3 1 3.14484 7.26855e-16 0.0262704 -7.38999 0.0473858
4 1 4.71726 1.57242 1.5768 -8.69555 0.00214932
5 1 6.28969 9.48317e-16 0.0262704 -7.38999 0.0473858
6 1 7.86211 1.57242 1.5768 -8.69555 0.00214932
7 1 9.43453 5.72036e-16 0.0262704 -7.38999 0.0473858
8 1 11.007 1.57242 1.5768 -8.69555 0.00214932
9 1 12.5794 1.0685e-15 0.0262704 -7.38999 0.0473858
10 1 14.1518 1.57242 1.5768 -8.69555 0.00214932
11 1 15.7242 8.97726e-16 0.0262704 -7.38999 0.0473858
12 1 17.2966 1.57242 1.5768 -8.69555 0.00214932
13 1 18.8691 6.7221e-16 0.0262704 -7.38999 0.0473858
14 1 20.4415 1.57242 1.5768 -8.69555 0.00214932
15 1 1.03706e-12 3.14484 0.0262704 -7.38999 0.0473858
16 1 1.57242 4.71726 1.5768 -8.69555 0.00214932
17 1 3.14484 3.14484 0.0262704 -7.38999 0.0473858
18 1 4.71726 4.71726 1.5768 -8.69555 0.00214932
19 1 6.28969 3.14484 0.0262704 -7.38999 0.0473858
20 1 7.86211 4.71726 1.5768 -8.69555 0.00214932
21 1 9.43453 3.14484 0.0262704 -7.38999 0.0473858
22 1 11.007 4.71726 1.5768 -8.69555 0.00214932
23 1 12.5794 3.14484 0.0262704 -7.38999 0.0473858
24 1 14.1518 4.71726 1.5768 -8.69555 0.00214932
25 1 15.7242 3.14484 0.0262704 -7.38999 0.0473858
26 1 17.2966 4.71726 1.5768 -8.69555 0.00214932
27 1 18.8691 3.14484 0.0262704 -7.38999 0.0473858
28 1 20.4415 4.71726 1.5768 -8.69555 0.00214932
29 1 1.91505e-12 6.28969 0.0262704 -7.38999 0.0473858
30 1 1.57242 7.86211 1.5768 -8.69555 0.00214932
31 1 3.14484 6.28969 0.0262704 -7.38999 0.0473858
32 1 4.71726 7.86211 1.5768 -8.69555 0.00214932
33 1 6.28969 6.28969 0.0262704 -7.38999 0.0473858
34 1 7.86211 7.86211 1.5768 -8.69555 0.00214932
35 1 9.43453 6.28969 0.0262704 -7.38999 0.0473858
36 1 11.007 7.86211 1.5768 -8.69555 0.00214932
37 1 12.5794 6.28969 0.0262704 -7.38999 0.0473858
38 1 14.1518 7.86211 1.5768 -8.69555 0.00214932
39 1 15.7242 6.28969 0.0262704 -7.38999 0.0473858
40 1 17.2966 7.86211 1.5768 -8.69555 0.00214932
41 1 18.8691 6.28969 0.0262704 -7.38999 0.0473858
42 1 20.4415 7.86211 1.5768 -8.69555 0.00214932
43 1 2.63333e-12 9.43453 0.0262704 -7.38999 0.0473858
44 1 1.57242 11.007 1.5768 -8.69555 0.00214932
45 1 3.14484 9.43453 0.0262704 -7.38999 0.0473858
46 1 4.71726 11.007 1.5768 -8.69555 0.00214932
47 1 6.28969 9.43453 0.0262704 -7.38999 0.0473858
48 1 7.86211 11.007 1.5768 -8.69555 0.00214933
49 1 9.43453 9.43453 0.0262704 -7.38999 0.0473858
50 1 11.007 11.007 1.5768 -8.69555 0.00214933
51 1 12.5794 9.43453 0.0262704 -7.38999 0.0473858
52 1 14.1518 11.007 1.5768 -8.69555 0.00214932
53 1 15.7242 9.43453 0.0262704 -7.38999 0.0473858
54 1 17.2966 11.007 1.5768 -8.69555 0.00214932
55 1 18.8691 9.43453 0.0262704 -7.38999 0.0473858
56 1 20.4415 11.007 1.5768 -8.69555 0.00214932
57 1 2.63337e-12 12.5794 0.0262704 -7.38999 0.0473858
58 1 1.57242 14.1518 1.5768 -8.69555 0.00214932
59 1 3.14484 12.5794 0.0262704 -7.38999 0.0473858
60 1 4.71726 14.1518 1.5768 -8.69555 0.00214932
61 1 6.28969 12.5794 0.0262704 -7.38999 0.0473858
62 1 7.86211 14.1518 1.5768 -8.69555 0.00214932
63 1 9.43453 12.5794 0.0262704 -7.38999 0.0473858
64 1 11.007 14.1518 1.5768 -8.69555 0.00214932
65 1 12.5794 12.5794 0.0262704 -7.38999 0.0473858
66 1 14.1518 14.1518 1.5768 -8.69555 0.00214932
67 1 15.7242 12.5794 0.0262704 -7.38999 0.0473858
68 1 17.2966 14.1518 1.5768 -8.69555 0.00214932
69 1 18.8691 12.5794 0.0262704 -7.38999 0.0473858
70 1 20.4415 14.1518 1.5768 -8.69555 0.00214932
71 1 1.915e-12 15.7242 0.0262704 -7.38999 0.0473858
72 1 1.57242 17.2966 1.5768 -8.69555 0.00214932
73 1 3.14484 15.7242 0.0262704 -7.38999 0.0473858
74 1 4.71726 17.2966 1.5768 -8.69555 0.00214932
75 1 6.28969 15.7242 0.0262704 -7.38999 0.0473858
76 1 7.86211 17.2966 1.5768 -8.69555 0.00214932
77 1 9.43453 15.7242 0.0262704 -7.38999 0.0473858
78 1 11.007 17.2966 1.5768 -8.69555 0.00214932
79 1 12.5794 15.7242 0.0262704 -7.38999 0.0473858
80 1 14.1518 17.2966 1.5768 -8.69555 0.00214932
81 1 15.7242 15.7242 0.0262704 -7.38999 0.0473858
82 1 17.2966 17.2966 1.5768 -8.69555 0.00214932
83 1 18.8691 15.7242 0.0262704 -7.38999 0.0473858
84 1 20.4415 17.2966 1.5768 -8.69555 0.00214932
85 1 1.03704e-12 18.8691 0.0262704 -7.38999 0.0473858
86 1 1.57242 20.4415 1.5768 -8.69555 0.00214932
87 1 3.14484 18.8691 0.0262704 -7.38999 0.0473858
88 1 4.71726 20.4415 1.5768 -8.69555 0.00214932
89 1 6.28969 18.8691 0.0262704 -7.38999 0.0473858
90 1 7.86211 20.4415 1.5768 -8.69555 0.00214932
91 1 9.43453 18.8691 0.0262704 -7.38999 0.0473858
92 1 11.007 20.4415 1.5768 -8.69555 0.00214932
93 1 12.5794 18.8691 0.0262704 -7.38999 0.0473858
94 1 14.1518 20.4415 1.5768 -8.69555 0.00214932
95 1 15.7242 18.8691 0.0262704 -7.38999 0.0473858
96 1 17.2966 20.4415 1.5768 -8.69555 0.00214932
97 1 18.8691 18.8691 0.0262704 -7.38999 0.0473858
98 1 20.4415 20.4415 1.5768 -8.69555 0.00214932
99 1 7.19494e-12 1.79506e-15 3.12483 -8.92966 0.0157878
100 1 1.57242 1.57242 4.71626 -8.90355 0.000185803
101 1 3.14484 1.67652e-15 3.12483 -8.92966 0.0157878
102 1 4.71726 1.57242 4.71626 -8.90355 0.000185802
103 1 6.28969 1.22474e-15 3.12483 -8.92966 0.0157878
104 1 7.86211 1.57242 4.71626 -8.90355 0.000185802
105 1 9.43453 1.19727e-15 3.12483 -8.92966 0.0157878
106 1 11.007 1.57242 4.71626 -8.90355 0.000185802
107 1 12.5794 1.29393e-15 3.12483 -8.92966 0.0157878
108 1 14.1518 1.57242 4.71626 -8.90355 0.000185802
109 1 15.7242 1.54569e-15 3.12483 -8.92966 0.0157878
110 1 17.2966 1.57242 4.71626 -8.90355 0.000185803
111 1 18.8691 1.65854e-15 3.12483 -8.92966 0.0157878
112 1 20.4415 1.57242 4.71626 -8.90355 0.000185803
113 1 1.30826e-11 3.14484 3.12483 -8.92966 0.0157878
114 1 1.57242 4.71726 4.71626 -8.90355 0.000185802
115 1 3.14484 3.14484 3.12483 -8.92966 0.0157878
116 1 4.71726 4.71726 4.71626 -8.90355 0.000185801
117 1 6.28969 3.14484 3.12483 -8.92966 0.0157878
118 1 7.86211 4.71726 4.71626 -8.90355 0.0001858
119 1 9.43453 3.14484 3.12483 -8.92966 0.0157878
120 1 11.007 4.71726 4.71626 -8.90355 0.000185799
121 1 12.5794 3.14484 3.12483 -8.92966 0.0157878
122 1 14.1518 4.71726 4.71626 -8.90355 0.000185801
123 1 15.7242 3.14484 3.12483 -8.92966 0.0157878
124 1 17.2966 4.71726 4.71626 -8.90355 0.000185802
125 1 18.8691 3.14484 3.12483 -8.92966 0.0157878
126 1 20.4415 4.71726 4.71626 -8.90355 0.000185803
127 1 2.66981e-11 6.28969 3.12483 -8.92966 0.0157878
128 1 1.57242 7.86211 4.71626 -8.90355 0.000185802
129 1 3.14484 6.28969 3.12483 -8.92966 0.0157878
130 1 4.71726 7.86211 4.71626 -8.90355 0.000185799
131 1 6.28969 6.28969 3.12483 -8.92966 0.0157878
132 1 7.86211 7.86211 4.71626 -8.90355 0.000185796
133 1 9.43453 6.28969 3.12483 -8.92966 0.0157878
134 1 11.007 7.86211 4.71626 -8.90355 0.000185796
135 1 12.5794 6.28969 3.12483 -8.92966 0.0157878
136 1 14.1518 7.86211 4.71626 -8.90355 0.000185798
137 1 15.7242 6.28969 3.12483 -8.92966 0.0157878
138 1 17.2966 7.86211 4.71626 -8.90355 0.000185801
139 1 18.8691 6.28969 3.12483 -8.92966 0.0157878
140 1 20.4415 7.86211 4.71626 -8.90355 0.000185802
141 1 3.81925e-11 9.43453 3.12483 -8.92966 0.0157878
142 1 1.57242 11.007 4.71626 -8.90355 0.000185802
143 1 3.14484 9.43453 3.12483 -8.92966 0.0157878
144 1 4.71726 11.007 4.71626 -8.90355 0.000185798
145 1 6.28969 9.43453 3.12483 -8.92966 0.0157878
146 1 7.86211 11.007 4.71626 -8.90355 0.000185795
147 1 9.43453 9.43453 3.12483 -8.92966 0.0157878
148 1 11.007 11.007 4.71626 -8.90355 0.000185794
149 1 12.5794 9.43453 3.12483 -8.92966 0.0157878
150 1 14.1518 11.007 4.71626 -8.90355 0.000185797
151 1 15.7242 9.43453 3.12483 -8.92966 0.0157878
152 1 17.2966 11.007 4.71626 -8.90355 0.000185801
153 1 18.8691 9.43453 3.12483 -8.92966 0.0157878
154 1 20.4415 11.007 4.71626 -8.90355 0.000185802
155 1 3.81924e-11 12.5794 3.12483 -8.92966 0.0157878
156 1 1.57242 14.1518 4.71626 -8.90355 0.000185802
157 1 3.14484 12.5794 3.12483 -8.92966 0.0157878
158 1 4.71726 14.1518 4.71626 -8.90355 0.000185799
159 1 6.28969 12.5794 3.12483 -8.92966 0.0157878
160 1 7.86211 14.1518 4.71626 -8.90355 0.000185796
161 1 9.43453 12.5794 3.12483 -8.92966 0.0157878
162 1 11.007 14.1518 4.71626 -8.90355 0.000185796
163 1 12.5794 12.5794 3.12483 -8.92966 0.0157878
164 1 14.1518 14.1518 4.71626 -8.90355 0.000185798
165 1 15.7242 12.5794 3.12483 -8.92966 0.0157878
166 1 17.2966 14.1518 4.71626 -8.90355 0.000185801
167 1 18.8691 12.5794 3.12483 -8.92966 0.0157878
168 1 20.4415 14.1518 4.71626 -8.90355 0.000185802
169 1 2.6698e-11 15.7242 3.12483 -8.92966 0.0157878
170 1 1.57242 17.2966 4.71626 -8.90355 0.000185802
171 1 3.14484 15.7242 3.12483 -8.92966 0.0157878
172 1 4.71726 17.2966 4.71626 -8.90355 0.000185801
173 1 6.28969 15.7242 3.12483 -8.92966 0.0157878
174 1 7.86211 17.2966 4.71626 -8.90355 0.0001858
175 1 9.43453 15.7242 3.12483 -8.92966 0.0157878
176 1 11.007 17.2966 4.71626 -8.90355 0.000185799
177 1 12.5794 15.7242 3.12483 -8.92966 0.0157878
178 1 14.1518 17.2966 4.71626 -8.90355 0.000185801
179 1 15.7242 15.7242 3.12483 -8.92966 0.0157878
180 1 17.2966 17.2966 4.71626 -8.90355 0.000185802
181 1 18.8691 15.7242 3.12483 -8.92966 0.0157878
182 1 20.4415 17.2966 4.71626 -8.90355 0.000185803
183 1 1.30826e-11 18.8691 3.12483 -8.92966 0.0157878
184 1 1.57242 20.4415 4.71626 -8.90355 0.000185803
185 1 3.14484 18.8691 3.12483 -8.92966 0.0157878
186 1 4.71726 20.4415 4.71626 -8.90355 0.000185802
187 1 6.28969 18.8691 3.12483 -8.92966 0.0157878
188 1 7.86211 20.4415 4.71626 -8.90355 0.000185802
189 1 9.43453 18.8691 3.12483 -8.92966 0.0157878
190 1 11.007 20.4415 4.71626 -8.90355 0.000185802
191 1 12.5794 18.8691 3.12483 -8.92966 0.0157878
192 1 14.1518 20.4415 4.71626 -8.90355 0.000185802
193 1 15.7242 18.8691 3.12483 -8.92966 0.0157878
194 1 17.2966 20.4415 4.71626 -8.90355 0.000185803
195 1 18.8691 18.8691 3.12483 -8.92966 0.0157878
196 1 20.4415 20.4415 4.71626 -8.90355 0.000185803
197 1 9.84652e-11 9.32181e-16 6.28801 -8.89081 0.00070786
198 1 1.57242 1.57242 7.86135 -8.90264 0.000174706
199 1 3.14484 1.64784e-15 6.28801 -8.89081 0.000707858
200 1 4.71726 1.57242 7.86135 -8.90264 0.000174702
201 1 6.28969 8.79361e-16 6.28801 -8.89081 0.000707856
202 1 7.86211 1.57242 7.86135 -8.90264 0.000174698
203 1 9.43453 1.6229e-15 6.28801 -8.89081 0.000707855
204 1 11.007 1.57242 7.86135 -8.90264 0.000174698
205 1 12.5794 1.46032e-15 6.28801 -8.89081 0.000707856
206 1 14.1518 1.57242 7.86135 -8.90264 0.000174701
207 1 15.7242 6.80276e-16 6.28801 -8.89081 0.000707858
208 1 17.2966 1.57242 7.86135 -8.90264 0.000174705
209 1 18.8691 9.69993e-16 6.28801 -8.89081 0.00070786
210 1 20.4415 1.57242 7.86135 -8.90264 0.000174707
211 1 1.90961e-10 3.14484 6.28801 -8.89081 0.000707859
212 1 1.57242 4.71726 7.86135 -8.90264 0.000174703
213 1 3.14484 3.14484 6.28801 -8.89081 0.000707856
214 1 4.71726 4.71726 7.86135 -8.90264 0.000174686
215 1 6.28969 3.14484 6.28801 -8.89081 0.00070785
216 1 7.86211 4.71726 7.86135 -8.90264 0.000174669
217 1 9.43453 3.14484 6.28801 -8.89081 0.000707847
218 1 11.007 4.71726 7.86135 -8.90264 0.000174666
219 1 12.5794 3.14484 6.28801 -8.89081 0.000707849
220 1 14.1518 4.71726 7.86135 -8.90264 0.000174682
221 1 15.7242 3.14484 6.28801 -8.89081 0.000707854
222 1 17.2966 4.71726 7.86135 -8.90264 0.000174699
223 1 18.8691 3.14484 6.28801 -8.89081 0.000707858
224 1 20.4415 4.71726 7.86135 -8.90264 0.000174706
225 1 4.01701e-10 6.28969 6.28801 -8.89081 0.000707857
226 1 1.57242 7.86211 7.86135 -8.90264 0.000174698
227 1 3.14484 6.28969 6.28801 -8.89081 0.000707849
228 1 4.71726 7.86211 7.86135 -8.90264 0.000174663
229 1 6.28969 6.28969 6.28801 -8.89081 0.000707832
230 1 7.86211 7.86211 7.86135 -8.90264 0.00017462
231 1 9.43453 6.28969 6.28801 -8.89081 0.000707821
232 1 11.007 7.86211 7.86135 -8.90264 0.000174614
233 1 12.5794 6.28969 6.28801 -8.89081 0.000707828
234 1 14.1518 7.86211 7.86135 -8.90264 0.000174652
235 1 15.7242 6.28969 6.28801 -8.89081 0.000707845
236 1 17.2966 7.86211 7.86135 -8.90264 0.000174689
237 1 18.8691 6.28969 6.28801 -8.89081 0.000707856
238 1 20.4415 7.86211 7.86135 -8.90264 0.000174703
239 1 5.79639e-10 9.43453 6.28801 -8.89081 0.000707856
240 1 1.57242 11.007 7.86135 -8.90264 0.000174696
241 1 3.14484 9.43453 6.28801 -8.89081 0.000707843
242 1 4.71726 11.007 7.86135 -8.90264 0.000174652
243 1 6.28969 9.43453 6.28801 -8.89081 0.000707814
244 1 7.86211 11.007 7.86135 -8.90264 0.000174594
245 1 9.43453 9.43453 6.28801 -8.89081 0.000707795
246 1 11.007 11.007 7.86135 -8.90264 0.000174586
247 1 12.5794 9.43453 6.28801 -8.89081 0.000707807
248 1 14.1518 11.007 7.86135 -8.90264 0.000174637
249 1 15.7242 9.43453 6.28801 -8.89081 0.000707836
250 1 17.2966 11.007 7.86135 -8.90264 0.000174685
251 1 18.8691 9.43453 6.28801 -8.89081 0.000707853
252 1 20.4415 11.007 7.86135 -8.90264 0.000174702
253 1 5.79639e-10 12.5794 6.28801 -8.89081 0.000707856
254 1 1.57242 14.1518 7.86135 -8.90264 0.000174698
255 1 3.14484 12.5794 6.28801 -8.89081 0.000707843
256 1 4.71726 14.1518 7.86135 -8.90264 0.000174663
257 1 6.28969 12.5794 6.28801 -8.89081 0.000707814
258 1 7.86211 14.1518 7.86135 -8.90264 0.00017462
259 1 9.43453 12.5794 6.28801 -8.89081 0.000707795
260 1 11.007 14.1518 7.86135 -8.90264 0.000174614
261 1 12.5794 12.5794 6.28801 -8.89081 0.000707807
262 1 14.1518 14.1518 7.86135 -8.90264 0.000174652
263 1 15.7242 12.5794 6.28801 -8.89081 0.000707836
264 1 17.2966 14.1518 7.86135 -8.90264 0.000174689
265 1 18.8691 12.5794 6.28801 -8.89081 0.000707853
266 1 20.4415 14.1518 7.86135 -8.90264 0.000174703
267 1 4.01701e-10 15.7242 6.28801 -8.89081 0.000707857
268 1 1.57242 17.2966 7.86135 -8.90264 0.000174703
269 1 3.14484 15.7242 6.28801 -8.89081 0.000707849
270 1 4.71726 17.2966 7.86135 -8.90264 0.000174686
271 1 6.28969 15.7242 6.28801 -8.89081 0.000707832
272 1 7.86211 17.2966 7.86135 -8.90264 0.000174669
273 1 9.43453 15.7242 6.28801 -8.89081 0.000707821
274 1 11.007 17.2966 7.86135 -8.90264 0.000174666
275 1 12.5794 15.7242 6.28801 -8.89081 0.000707828
276 1 14.1518 17.2966 7.86135 -8.90264 0.000174682
277 1 15.7242 15.7242 6.28801 -8.89081 0.000707845
278 1 17.2966 17.2966 7.86135 -8.90264 0.000174699
279 1 18.8691 15.7242 6.28801 -8.89081 0.000707856
280 1 20.4415 17.2966 7.86135 -8.90264 0.000174706
281 1 1.90962e-10 18.8691 6.28801 -8.89081 0.000707859
282 1 1.57242 20.4415 7.86135 -8.90264 0.000174706
283 1 3.14484 18.8691 6.28801 -8.89081 0.000707856
284 1 4.71726 20.4415 7.86135 -8.90264 0.000174702
285 1 6.28969 18.8691 6.28801 -8.89081 0.00070785
286 1 7.86211 20.4415 7.86135 -8.90264 0.000174698
287 1 9.43453 18.8691 6.28801 -8.89081 0.000707847
288 1 11.007 20.4415 7.86135 -8.90264 0.000174698
289 1 12.5794 18.8691 6.28801 -8.89081 0.000707849
290 1 14.1518 20.4415 7.86135 -8.90264 0.000174701
291 1 15.7242 18.8691 6.28801 -8.89081 0.000707854
292 1 17.2966 20.4415 7.86135 -8.90264 0.000174705
293 1 18.8691 18.8691 6.28801 -8.89081 0.000707858
294 1 20.4415 20.4415 7.86135 -8.90264 0.000174707
295 1 9.6054e-10 5.35148e-16 9.43439 -8.89942 1.1702e-05
296 1 1.57242 1.57242 11.007 -8.89963 7.1213e-13
297 1 3.14484 5.00867e-16 9.43439 -8.89942 1.17005e-05
298 1 4.71726 1.57242 11.007 -8.89963 5.6064e-12
299 1 6.28969 1.20012e-15 9.43439 -8.89942 1.16983e-05
300 1 7.86211 1.57242 11.007 -8.89963 1.38658e-11
301 1 9.43453 5.02338e-16 9.43439 -8.89942 1.16971e-05
302 1 11.007 1.57242 11.007 -8.89963 1.50069e-11
303 1 12.5794 8.09341e-16 9.43439 -8.89942 1.16979e-05
304 1 14.1518 1.57242 11.007 -8.89963 7.39555e-12
305 1 15.7242 1.13093e-15 9.43439 -8.89942 1.17e-05
306 1 17.2966 1.57242 11.007 -8.89963 1.46843e-12
307 1 18.8691 1.13551e-15 9.43439 -8.89942 1.17017e-05
308 1 20.4415 1.57242 11.007 -8.89963 1.564e-13
309 1 2.01043e-09 3.14484 9.43439 -8.89942 1.17012e-05
310 1 1.57242 4.71726 11.007 -8.89963 5.76614e-12
311 1 3.14484 3.14484 9.43439 -8.89942 1.16966e-05
312 1 4.71726 4.71726 11.007 -8.89963 9.49065e-11
313 1 6.28969 3.14484 9.43439 -8.89942 1.16887e-05
314 1 7.86211 4.71726 11.007 -8.89963 2.86931e-10
315 1 9.43453 3.14484 9.43439 -8.89942 1.16841e-05
316 1 11.007 4.71726 11.007 -8.89963 3.14473e-10
317 1 12.5794 3.14484 9.43439 -8.89942 1.16872e-05
318 1 14.1518 4.71726 11.007 -8.89963 1.31517e-10
319 1 15.7242 3.14484 9.43439 -8.89942 1.16947e-05
320 1 17.2966 4.71726 11.007 -8.89963 1.75936e-11
321 1 18.8691 3.14484 9.43439 -8.89942 1.17002e-05
322 1 20.4415 4.71726 11.007 -8.89963 1.06136e-12
323 1 4.35369e-09 6.28969 9.43439 -8.89942 1.16994e-05
324 1 1.57242 7.86211 11.007 -8.89963 1.7741e-11
325 1 3.14484 6.28969 9.43439 -8.89942 1.16877e-05
326 1 4.71726 7.86211 11.007 -8.89963 3.68246e-10
327 1 6.28969 6.28969 9.43439 -8.89942 1.16545e-05
328 1 7.86211 7.86211 11.007 -8.89963 1.74893e-09
329 1 9.43453 6.28969 9.43439 -8.89942 1.16337e-05
330 1 11.007 7.86211 11.007 -8.89963 1.9697e-09
331 1 12.5794 6.28969 9.43439 -8.89942 1.16479e-05
332 1 14.1518 7.86211 11.007 -8.89963 5.96596e-10
333 1 15.7242 6.28969 9.43439 -8.89942 1.16797e-05
334 1 17.2966 7.86211 11.007 -8.89963 6.19266e-11
335 1 18.8691 6.28969 9.43439 -8.89942 1.16967e-05
336 1 20.4415 7.86211 11.007 -8.89963 3.02289e-12
337 1 6.32298e-09 9.43453 9.43439 -8.89942 1.1698e-05
338 1 1.57242 11.007 11.007 -8.89963 2.53299e-11
339 1 3.14484 9.43453 9.43439 -8.89942 1.16799e-05
340 1 4.71726 11.007 11.007 -8.89963 5.66876e-10
341 1 6.28969 9.43453 9.43439 -8.89942 1.16198e-05
342 1 7.86211 11.007 11.007 -8.89963 3.1223e-09
343 1 9.43453 9.43453 9.43439 -8.89942 1.158e-05
344 1 11.007 11.007 11.007 -8.89963 3.53523e-09
345 1 12.5794 9.43453 9.43439 -8.89942 1.16073e-05
346 1 14.1518 11.007 11.007 -8.89963 9.75209e-10
347 1 15.7242 9.43453 9.43439 -8.89942 1.16655e-05
348 1 17.2966 11.007 11.007 -8.89963 9.21127e-11
349 1 18.8691 9.43453 9.43439 -8.89942 1.16938e-05
350 1 20.4415 11.007 11.007 -8.89963 4.20903e-12
351 1 6.32298e-09 12.5794 9.43439 -8.89942 1.1698e-05
352 1 1.57242 14.1518 11.007 -8.89963 1.7741e-11
353 1 3.14484 12.5794 9.43439 -8.89942 1.16799e-05
354 1 4.71726 14.1518 11.007 -8.89963 3.68246e-10
355 1 6.28969 12.5794 9.43439 -8.89942 1.16198e-05
356 1 7.86211 14.1518 11.007 -8.89963 1.74893e-09
357 1 9.43453 12.5794 9.43439 -8.89942 1.158e-05
358 1 11.007 14.1518 11.007 -8.89963 1.9697e-09
359 1 12.5794 12.5794 9.43439 -8.89942 1.16073e-05
360 1 14.1518 14.1518 11.007 -8.89963 5.96596e-10
361 1 15.7242 12.5794 9.43439 -8.89942 1.16655e-05
362 1 17.2966 14.1518 11.007 -8.89963 6.19266e-11
363 1 18.8691 12.5794 9.43439 -8.89942 1.16938e-05
364 1 20.4415 14.1518 11.007 -8.89963 3.02289e-12
365 1 4.35369e-09 15.7242 9.43439 -8.89942 1.16994e-05
366 1 1.57242 17.2966 11.007 -8.89963 5.76614e-12
367 1 3.14484 15.7242 9.43439 -8.89942 1.16877e-05
368 1 4.71726 17.2966 11.007 -8.89963 9.49065e-11
369 1 6.28969 15.7242 9.43439 -8.89942 1.16545e-05
370 1 7.86211 17.2966 11.007 -8.89963 2.86931e-10
371 1 9.43453 15.7242 9.43439 -8.89942 1.16337e-05
372 1 11.007 17.2966 11.007 -8.89963 3.14473e-10
373 1 12.5794 15.7242 9.43439 -8.89942 1.16479e-05
374 1 14.1518 17.2966 11.007 -8.89963 1.31517e-10
375 1 15.7242 15.7242 9.43439 -8.89942 1.16797e-05
376 1 17.2966 17.2966 11.007 -8.89963 1.75936e-11
377 1 18.8691 15.7242 9.43439 -8.89942 1.16967e-05
378 1 20.4415 17.2966 11.007 -8.89963 1.06136e-12
379 1 2.01043e-09 18.8691 9.43439 -8.89942 1.17012e-05
380 1 1.57242 20.4415 11.007 -8.89963 7.1213e-13
381 1 3.14484 18.8691 9.43439 -8.89942 1.16966e-05
382 1 4.71726 20.4415 11.007 -8.89963 5.6064e-12
383 1 6.28969 18.8691 9.43439 -8.89942 1.16887e-05
384 1 7.86211 20.4415 11.007 -8.89963 1.38658e-11
385 1 9.43453 18.8691 9.43439 -8.89942 1.16841e-05
386 1 11.007 20.4415 11.007 -8.89963 1.50069e-11
387 1 12.5794 18.8691 9.43439 -8.89942 1.16872e-05
388 1 14.1518 20.4415 11.007 -8.89963 7.39555e-12
389 1 15.7242 18.8691 9.43439 -8.89942 1.16947e-05
390 1 17.2966 20.4415 11.007 -8.89963 1.46843e-12
391 1 18.8691 18.8691 9.43439 -8.89942 1.17002e-05
392 1 20.4415 20.4415 11.007 -8.89963 1.564e-13
393 1 6.35148e-09 1.07621e-15 12.5795 -8.89942 1.17067e-05
394 1 3.14484 1.44361e-15 12.5795 -8.89942 1.17161e-05
395 1 6.28969 1.1146e-15 12.5795 -8.89942 1.17319e-05
396 1 9.43453 4.59434e-16 12.5795 -8.89942 1.17404e-05
397 1 12.5794 9.03414e-16 12.5795 -8.89942 1.17346e-05
398 1 15.7242 1.5608e-15 12.5795 -8.89942 1.17199e-05
399 1 18.8691 1.36549e-15 12.5795 -8.89942 1.17087e-05
400 1 1.67684e-08 3.14484 12.5795 -8.89942 1.1712e-05
401 1 3.14484 3.14484 12.5795 -8.89942 1.17428e-05
402 1 6.28969 3.14484 12.5795 -8.89942 1.18013e-05
403 1 9.43453 3.14484 12.5795 -8.89942 1.18317e-05
404 1 12.5794 3.14484 12.5795 -8.89942 1.181e-05
405 1 15.7242 3.14484 12.5795 -8.89942 1.17566e-05
406 1 18.8691 3.14484 12.5795 -8.89942 1.17191e-05
407 1 4.08528e-08 6.28969 12.5795 -8.89942 1.17237e-05
408 1 3.14484 6.28969 12.5795 -8.89942 1.1806e-05
409 1 6.28969 6.28969 12.5795 -8.89943 1.21732e-05
410 1 9.43453 6.28969 12.5795 -8.89943 1.23865e-05
411 1 12.5794 6.28969 12.5795 -8.89943 1.2231e-05
412 1 15.7242 6.28969 12.5795 -8.89943 1.18918e-05
413 1 18.8691 6.28969 12.5795 -8.89942 1.17431e-05
414 1 6.13578e-08 9.43453 12.5795 -8.89942 1.17333e-05
415 1 3.14484 9.43453 12.5795 -8.89942 1.18576e-05
416 1 6.28969 9.43453 12.5795 -8.89944 1.25379e-05
417 1 9.43453 9.43453 12.5795 -8.89943 1.30267e-05
418 1 12.5794 9.43453 12.5795 -8.89944 1.2664e-05
419 1 15.7242 9.43453 12.5795 -8.89943 1.20185e-05
420 1 18.8691 9.43453 12.5795 -8.89942 1.17627e-05
421 1 6.13578e-08 12.5794 12.5795 -8.89942 1.17333e-05
422 1 3.14484 12.5794 12.5795 -8.89942 1.18576e-05
423 1 6.28969 12.5794 12.5795 -8.89944 1.25379e-05
424 1 9.43453 12.5794 12.5795 -8.89943 1.30267e-05
425 1 12.5794 12.5794 12.5795 -8.89944 1.2664e-05
426 1 15.7242 12.5794 12.5795 -8.89943 1.20185e-05
427 1 18.8691 12.5794 12.5795 -8.89942 1.17627e-05
428 1 4.08528e-08 15.7242 12.5795 -8.89942 1.17237e-05
429 1 3.14484 15.7242 12.5795 -8.89942 1.1806e-05
430 1 6.28969 15.7242 12.5795 -8.89943 1.21732e-05
431 1 9.43453 15.7242 12.5795 -8.89943 1.23865e-05
432 1 12.5794 15.7242 12.5795 -8.89943 1.2231e-05
433 1 15.7242 15.7242 12.5795 -8.89943 1.18918e-05
434 1 18.8691 15.7242 12.5795 -8.89942 1.17431e-05
435 1 1.67684e-08 18.8691 12.5795 -8.89942 1.1712e-05
436 1 3.14484 18.8691 12.5795 -8.89942 1.17428e-05
437 1 6.28969 18.8691 12.5795 -8.89942 1.18013e-05
438 1 9.43453 18.8691 12.5795 -8.89942 1.18317e-05
439 1 12.5794 18.8691 12.5795 -8.89942 1.181e-05
440 1 15.7242 18.8691 12.5795 -8.89942 1.17566e-05
441 1 18.8691 18.8691 12.5795 -8.89942 1.17191e-05
442 1 1.57242 1.57242 14.1525 -8.90264 0.000174784
443 1 4.71726 1.57242 14.1525 -8.90264 0.000174982
444 1 7.86211 1.57242 14.1525 -8.90264 0.000175163
445 1 11.007 1.57242 14.1525 -8.90264 0.00017518
446 1 14.1518 1.57242 14.1525 -8.90264 0.000175024
447 1 17.2966 1.57242 14.1525 -8.90264 0.000174831
448 1 20.4415 1.57242 14.1525 -8.90264 0.000174746
449 1 1.57242 4.71726 14.1525 -8.90264 0.000174961
450 1 4.71727 4.71727 14.1525 -8.90265 0.000176388
451 1 7.86211 4.71727 14.1526 -8.90265 0.000178009
452 1 11.0069 4.71727 14.1526 -8.90265 0.000178138
453 1 14.1518 4.71727 14.1525 -8.90265 0.000176752
454 1 17.2966 4.71726 14.1525 -8.90264 0.000175342
455 1 20.4415 4.71726 14.1525 -8.90264 0.000174828
456 1 1.57242 7.86211 14.1525 -8.90264 0.000175171
457 1 4.71727 7.86211 14.1526 -8.90265 0.000178352
458 1 7.86211 7.86211 14.1526 -8.90263 0.000188111
459 1 11.0069 7.86211 14.1526 -8.90264 0.000188952
460 1 14.1518 7.86211 14.1526 -8.90264 0.000180444
461 1 17.2966 7.86211 14.1525 -8.90264 0.00017602
462 1 20.4415 7.86211 14.1525 -8.90264 0.000174928
463 1 1.57242 11.007 14.1525 -8.90264 0.000175265
464 1 4.71727 11.007 14.1526 -8.90265 0.000179288
465 1 7.86211 11.007 14.1526 -8.90264 0.00019427
466 1 11.0069 11.007 14.1526 -8.90266 0.000195582
467 1 14.1518 11.007 14.1526 -8.90265 0.000182535
468 1 17.2966 11.007 14.1525 -8.90265 0.000176335
469 1 20.4415 11.007 14.1525 -8.90264 0.000174973
470 1 1.57242 14.1518 14.1525 -8.90264 0.000175171
471 1 4.71727 14.1518 14.1526 -8.90265 0.000178352
472 1 7.86211 14.1518 14.1526 -8.90263 0.000188111
473 1 11.0069 14.1518 14.1526 -8.90264 0.000188952
474 1 14.1518 14.1518 14.1526 -8.90264 0.000180444
475 1 17.2966 14.1518 14.1525 -8.90264 0.00017602
476 1 20.4415 14.1518 14.1525 -8.90264 0.000174928
477 1 1.57242 17.2966 14.1525 -8.90264 0.000174961
478 1 4.71727 17.2966 14.1525 -8.90265 0.000176388
479 1 7.86211 17.2966 14.1526 -8.90265 0.000178009
480 1 11.0069 17.2966 14.1526 -8.90265 0.000178138
481 1 14.1518 17.2966 14.1525 -8.90265 0.000176752
482 1 17.2966 17.2966 14.1525 -8.90264 0.000175342
483 1 20.4415 17.2966 14.1525 -8.90264 0.000174828
484 1 1.57242 20.4415 14.1525 -8.90264 0.000174784
485 1 4.71726 20.4415 14.1525 -8.90264 0.000174982
486 1 7.86211 20.4415 14.1525 -8.90264 0.000175163
487 1 11.007 20.4415 14.1525 -8.90264 0.00017518
488 1 14.1518 20.4415 14.1525 -8.90264 0.000175024
489 1 17.2966 20.4415 14.1525 -8.90264 0.000174831
490 1 20.4415 20.4415 14.1525 -8.90264 0.000174746
491 1 2.66504e-08 5.02831e-16 15.7259 -8.89081 0.000707927
492 1 1.57242 1.57242 17.2976 -8.90355 0.000185941
493 1 3.14484 1.43746e-15 15.7259 -8.89081 0.000708174
494 1 4.71727 1.57242 17.2976 -8.90356 0.000186713
495 1 6.28969 6.93464e-16 15.7259 -8.89081 0.000708699
496 1 7.86211 1.57242 17.2976 -8.90356 0.00018755
497 1 9.43453 5.90208e-16 15.7259 -8.89081 0.000708949
498 1 11.0069 1.57243 17.2976 -8.90356 0.000187594
499 1 12.5794 1.89497e-15 15.7259 -8.89081 0.000708766
500 1 14.1518 1.57242 17.2976 -8.90356 0.000186896
501 1 15.7242 9.56333e-16 15.7259 -8.89081 0.000708295
502 1 17.2966 1.57242 17.2976 -8.90355 0.000186135
503 1 18.8691 4.53733e-16 15.7259 -8.89081 0.000707985
504 1 20.4415 1.57242 17.2976 -8.90355 0.000185867
505 1 8.70431e-08 3.14484 15.7259 -8.89081 0.000708069
506 1 1.57242 4.71727 17.2976 -8.90356 0.000186595
507 1 3.14484 3.14484 15.7259 -8.89081 0.000708923
508 1 4.71727 4.71727 17.2976 -8.90358 0.000192462
509 1 6.28969 3.14485 15.7259 -8.89081 0.000711915
510 1 7.86211 4.71728 17.2977 -8.90355 0.000199452
511 1 9.43453 3.14485 15.7259 -8.89081 0.000713282
512 1 11.0069 4.71728 17.2977 -8.90356 0.000199412
513 1 12.5794 3.14485 15.7259 -8.89081 0.000712203
514 1 14.1518 4.71728 17.2977 -8.90357 0.000193721
515 1 15.7242 3.14484 15.7259 -8.89081 0.000709665
516 1 17.2966 4.71727 17.2976 -8.90356 0.000188189
517 1 18.8691 3.14484 15.7259 -8.89081 0.000708282
518 1 20.4415 4.71726 17.2976 -8.90355 0.000186154
519 1 2.3903e-07 6.28969 15.7259 -8.89081 0.000708422
520 1 1.57243 7.86211 17.2976 -8.90356 0.000187434
521 1 3.14485 6.28969 15.7259 -8.89081 0.000711798
522 1 4.71729 7.86212 17.2977 -8.90356 0.000200281
523 1 6.28969 6.2897 15.7259 -8.89082 0.000731302
524 1 7.86219 7.86219 17.2978 -8.90434 0.000313038
525 1 9.43453 6.2897 15.7259 -8.89079 0.000741952
526 1 11.0069 7.86219 17.2978 -8.90443 0.000311698
527 1 12.5794 6.2897 15.7259 -8.89082 0.000733035
528 1 14.1518 7.86213 17.2977 -8.90375 0.000222647
529 1 15.7242 6.28969 15.7259 -8.89081 0.000716509
530 1 17.2966 7.86211 17.2976 -8.90356 0.00019083
531 1 18.8691 6.28969 15.7259 -8.89081 0.000709362
532 1 20.4415 7.86211 17.2976 -8.90356 0.000186551
533 1 3.58074e-07 9.43453 15.7259 -8.89081 0.000708697
534 1 1.57243 11.007 17.2976 -8.90356 0.000187756
535 1 3.14485 9.43453 15.7259 -8.89081 0.000713868
536 1 4.71729 11.007 17.2977 -8.90357 0.000203085
537 1 6.2897 9.43453 15.7259 -8.8908 0.000748423
538 1 7.86222 11.007 17.2979 -8.90486 0.000364407
539 1 9.43453 9.43454 15.726 -8.89039 0.000801293
540 1 11.0069 11.007 17.2979 -8.90486 0.000356546
541 1 12.5794 9.43453 15.7259 -8.89072 0.00075941
542 1 14.1517 11.007 17.2977 -8.9039 0.000236412
543 1 15.7242 9.43453 15.7259 -8.89081 0.000721888
544 1 17.2966 11.007 17.2976 -8.90356 0.000191835
545 1 18.8691 9.43453 15.7259 -8.89081 0.000710205
546 1 20.4415 11.007 17.2976 -8.90356 0.000186728
547 1 3.58074e-07 12.5794 15.7259 -8.89081 0.000708697
548 1 1.57243 14.1518 17.2976 -8.90356 0.000187434
549 1 3.14485 12.5794 15.7259 -8.89081 0.000713868
550 1 4.71729 14.1518 17.2977 -8.90356 0.000200281
551 1 6.2897 12.5794 15.7259 -8.8908 0.000748423
552 1 7.86219 14.1517 17.2978 -8.90434 0.000313038
553 1 9.43453 12.5794 15.726 -8.89039 0.000801293
554 1 11.0069 14.1517 17.2978 -8.90443 0.000311698
555 1 12.5794 12.5794 15.7259 -8.89072 0.00075941
556 1 14.1518 14.1518 17.2977 -8.90375 0.000222647
557 1 15.7242 12.5794 15.7259 -8.89081 0.000721888
558 1 17.2966 14.1518 17.2976 -8.90356 0.00019083
559 1 18.8691 12.5794 15.7259 -8.89081 0.000710205
560 1 20.4415 14.1518 17.2976 -8.90356 0.000186551
561 1 2.3903e-07 15.7242 15.7259 -8.89081 0.000708422
562 1 1.57242 17.2966 17.2976 -8.90356 0.000186595
563 1 3.14485 15.7242 15.7259 -8.89081 0.000711798
564 1 4.71727 17.2966 17.2976 -8.90358 0.000192462
565 1 6.28969 15.7242 15.7259 -8.89082 0.000731302
566 1 7.86211 17.2966 17.2977 -8.90355 0.000199452
567 1 9.43453 15.7242 15.7259 -8.89079 0.000741952
568 1 11.0069 17.2966 17.2977 -8.90356 0.000199412
569 1 12.5794 15.7242 15.7259 -8.89082 0.000733035
570 1 14.1518 17.2966 17.2977 -8.90357 0.000193721
571 1 15.7242 15.7242 15.7259 -8.89081 0.000716509
572 1 17.2966 17.2966 17.2976 -8.90356 0.000188189
573 1 18.8691 15.7242 15.7259 -8.89081 0.000709362
574 1 20.4415 17.2966 17.2976 -8.90355 0.000186154
575 1 8.70431e-08 18.8691 15.7259 -8.89081 0.000708069
576 1 1.57242 20.4415 17.2976 -8.90355 0.000185941
577 1 3.14484 18.8691 15.7259 -8.89081 0.000708923
578 1 4.71727 20.4415 17.2976 -8.90356 0.000186713
579 1 6.28969 18.8691 15.7259 -8.89081 0.000711915
580 1 7.86211 20.4415 17.2976 -8.90356 0.00018755
581 1 9.43453 18.8691 15.7259 -8.89081 0.000713282
582 1 11.0069 20.4415 17.2976 -8.90356 0.000187594
583 1 12.5794 18.8691 15.7259 -8.89081 0.000712203
584 1 14.1518 20.4415 17.2976 -8.90356 0.000186896
585 1 15.7242 18.8691 15.7259 -8.89081 0.000709665
586 1 17.2966 20.4415 17.2976 -8.90355 0.000186135