ITEM: TIMESTEP
272
ITEM: NUMBER OF ATOMS
736
ITEM: BOX BOUNDS pp pp pp
0.0000000000000000e+00 2.2013900999999997e+01
0.0000000000000000e+00 2.2013900999999997e+01
0.0000000000000000e+00 5.3462330999999999e+01
ITEM: ATOMS id type x y z c_pot c_ke
1 1 -0.000924889 -7.35715e-17 0.0976347 -7.40188 2.11631e-07
2 1 1.57146 1.5724 1.62442 -8.68379 1.89131e-07
3 1 3.14387 9.34228e-17 0.0976081 -7.40187 2.12623e-07
4 1 4.71628 1.57239 1.62435 -8.68379 1.89695e-07
5 1 6.28869 -4.13534e-16 0.0975488 -7.40185 2.13536e-07
6 1 7.86113 1.57239 1.62427 -8.68378 1.90022e-07
7 1 9.43357 -2.07622e-16 0.0975014 -7.40183 2.13686e-07
8 1 11.006 1.57239 1.62423 -8.68378 1.89872e-07
9 1 12.5785 -4.2232e-16 0.0975015 -7.40183 2.12959e-07
10 1 14.1509 1.57239 1.62427 -8.68378 1.89356e-07
11 1 15.7234 -4.13896e-16 0.0975491 -7.40185 2.11902e-07
12 1 17.2958 1.57239 1.62435 -8.68379 1.88856e-07
13 1 18.8682 -1.06373e-16 0.0976084 -7.40187 2.1131e-07
14 1 20.4406 1.5724 1.62442 -8.68379 1.88755e-07
15 1 -0.000924887 3.14479 0.0976083 -7.40187 2.11568e-07
16 1 1.57146 4.71721 1.62435 -8.68379 1.89029e-07
17 1 3.14386 3.14479 0.0975789 -7.40186 2.12557e-07
18 1 4.71627 4.7172 1.62427 -8.68378 1.89587e-07
19 1 6.28869 3.14478 0.0975133 -7.40184 2.13466e-07
20 1 7.86113 4.71719 1.62417 -8.68377 1.8991e-07
21 1 9.43357 3.14477 0.0974608 -7.40182 2.13612e-07
22 1 11.006 4.71719 1.62412 -8.68377 1.89761e-07
23 1 12.5785 3.14477 0.0974609 -7.40182 2.12886e-07
24 1 14.1509 4.71719 1.62417 -8.68377 1.8925e-07
25 1 15.7234 3.14478 0.0975136 -7.40184 2.11834e-07
26 1 17.2958 4.7172 1.62427 -8.68378 1.88756e-07
27 1 18.8682 3.14479 0.0975792 -7.40186 2.11246e-07
28 1 20.4406 4.71721 1.62435 -8.68379 1.88656e-07
29 1 -0.000924881 6.28962 0.097549 -7.40185 2.11431e-07
30 1 1.57146 7.86206 1.62427 -8.68378 1.88908e-07
31 1 3.14385 6.28962 0.0975133 -7.40184 2.12413e-07
32 1 4.71626 7.86206 1.62417 -8.68377 1.89459e-07
33 1 6.28868 6.28961 0.0974331 -7.40181 2.1331e-07
34 1 7.86112 7.86205 1.62404 -8.68377 1.89777e-07
35 1 9.43357 6.2896 0.0973685 -7.40178 2.13448e-07
36 1 11.006 7.86205 1.62398 -8.68376 1.89628e-07
37 1 12.5785 6.2896 0.0973686 -7.40178 2.12725e-07
38 1 14.1509 7.86205 1.62404 -8.68377 1.89123e-07
39 1 15.7234 6.28961 0.0974334 -7.40181 2.11683e-07
40 1 17.2958 7.86206 1.62417 -8.68377 1.88637e-07
41 1 18.8682 6.28962 0.0975135 -7.40184 2.11106e-07
42 1 20.4406 7.86206 1.62427 -8.68378 1.88539e-07
43 1 -0.000924877 9.4345 0.0975015 -7.40183 2.11322e-07
44 1 1.57146 11.007 1.62423 -8.68378 1.88856e-07
45 1 3.14385 9.4345 0.0974607 -7.40182 2.12299e-07
46 1 4.71626 11.007 1.62412 -8.68377 1.89404e-07
47 1 6.28867 9.43449 0.0973685 -7.40178 2.13187e-07
48 1 7.86111 11.007 1.62398 -8.68376 1.8972e-07
49 1 9.43356 9.43449 0.0972937 -7.40175 2.13318e-07
50 1 11.006 11.007 1.62392 -8.68376 1.89571e-07
51 1 12.5785 9.43449 0.0972938 -7.40175 2.12596e-07
52 1 14.1509 11.007 1.62398 -8.68376 1.89069e-07
53 1 15.7234 9.43449 0.0973687 -7.40178 2.11564e-07
54 1 17.2958 11.007 1.62412 -8.68377 1.88586e-07
55 1 18.8682 9.4345 0.0974609 -7.40182 2.10995e-07
56 1 20.4406 11.007 1.62423 -8.68378 1.88489e-07
57 1 -0.000924877 12.5794 0.0975015 -7.40183 2.11322e-07
58 1 1.57146 14.1518 1.62427 -8.68378 1.88908e-07
59 1 3.14385 12.5794 0.0974607 -7.40182 2.12299e-07
60 1 4.71626 14.1518 1.62417 -8.68377 1.89459e-07
61 1 6.28867 12.5794 0.0973685 -7.40178 2.13187e-07
62 1 7.86112 14.1518 1.62404 -8.68377 1.89777e-07
63 1 9.43356 12.5794 0.0972937 -7.40175 2.13318e-07
64 1 11.006 14.1519 1.62398 -8.68376 1.89628e-07
65 1 12.5785 12.5794 0.0972938 -7.40175 2.12596e-07
66 1 14.1509 14.1518 1.62404 -8.68377 1.89123e-07
67 1 15.7234 12.5794 0.0973687 -7.40178 2.11564e-07
68 1 17.2958 14.1518 1.62417 -8.68377 1.88637e-07
69 1 18.8682 12.5794 0.0974609 -7.40182 2.10995e-07
70 1 20.4406 14.1518 1.62427 -8.68378 1.88539e-07
71 1 -0.000924881 15.7243 0.097549 -7.40185 2.11431e-07
72 1 1.57146 17.2967 1.62435 -8.68379 1.89029e-07
73 1 3.14385 15.7243 0.0975133 -7.40184 2.12413e-07
74 1 4.71627 17.2967 1.62427 -8.68378 1.89587e-07
75 1 6.28868 15.7243 0.0974331 -7.40181 2.1331e-07
76 1 7.86113 17.2967 1.62417 -8.68377 1.8991e-07
77 1 9.43357 15.7243 0.0973685 -7.40178 2.13448e-07
78 1 11.006 17.2967 1.62412 -8.68377 1.89761e-07
79 1 12.5785 15.7243 0.0973686 -7.40178 2.12725e-07
80 1 14.1509 17.2967 1.62417 -8.68377 1.8925e-07
81 1 15.7234 15.7243 0.0974334 -7.40181 2.11683e-07
82 1 17.2958 17.2967 1.62427 -8.68378 1.88756e-07
83 1 18.8682 15.7243 0.0975135 -7.40184 2.11106e-07
84 1 20.4406 17.2967 1.62435 -8.68379 1.88656e-07
85 1 -0.000924887 18.8691 0.0976083 -7.40187 2.11568e-07
86 1 1.57146 20.4415 1.62442 -8.68379 1.89131e-07
87 1 3.14386 18.8691 0.0975789 -7.40186 2.12557e-07
88 1 4.71628 20.4415 1.62435 -8.68379 1.89695e-07
89 1 6.28869 18.8691 0.0975133 -7.40184 2.13466e-07
90 1 7.86113 20.4415 1.62427 -8.68378 1.90022e-07
91 1 9.43357 18.8691 0.0974608 -7.40182 2.13612e-07
92 1 11.006 20.4415 1.62423 -8.68378 1.89872e-07
93 1 12.5785 18.8691 0.0974609 -7.40182 2.12886e-07
94 1 14.1509 20.4415 1.62427 -8.68378 1.89356e-07
95 1 15.7234 18.8691 0.0975136 -7.40184 2.11834e-07
96 1 17.2958 20.4415 1.62435 -8.68379 1.88856e-07
97 1 18.8682 18.8691 0.0975792 -7.40186 2.11246e-07
98 1 20.4406 20.4415 1.62442 -8.68379 1.88755e-07
99 1 -0.00094402 9.36885e-16 3.15455 -8.93805 1.59394e-07
100 1 1.57144 1.5724 4.74382 -8.90301 1.19278e-07
101 1 3.14386 5.82273e-16 3.15451 -8.93805 1.59611e-07
102 1 4.71625 1.57239 4.74374 -8.90301 1.19366e-07
103 1 6.28869 4.67574e-16 3.15442 -8.93806 1.59838e-07
104 1 7.8611 1.57239 4.74364 -8.90301 1.19452e-07
105 1 9.43356 3.05403e-16 3.15435 -8.93807 1.59908e-07
106 1 11.006 1.57238 4.74359 -8.90301 1.19476e-07
107 1 12.5784 -2.18393e-16 3.15435 -8.93807 1.59772e-07
108 1 14.1509 1.57239 4.74364 -8.90301 1.19417e-07
109 1 15.7233 -2.11753e-16 3.15442 -8.93806 1.59525e-07
110 1 17.2957 1.57239 4.74374 -8.90301 1.19315e-07
111 1 18.8682 5.55545e-16 3.15451 -8.93805 1.59355e-07
112 1 20.4405 1.5724 4.74383 -8.90301 1.19252e-07
113 1 -0.000944015 3.14481 3.15451 -8.93805 1.59348e-07
114 1 1.57143 4.71721 4.74374 -8.90301 1.1921e-07
115 1 3.14386 3.1448 3.15446 -8.93806 1.59563e-07
116 1 4.71624 4.7172 4.74364 -8.90301 1.19295e-07
117 1 6.28869 3.14479 3.15436 -8.93807 1.59788e-07
118 1 7.86109 4.71718 4.7435 -8.90301 1.1938e-07
119 1 9.43356 3.14479 3.15428 -8.93808 1.59858e-07
120 1 11.006 4.71718 4.74344 -8.90301 1.19406e-07
121 1 12.5785 3.14479 3.15428 -8.93808 1.59723e-07
122 1 14.1509 4.71718 4.7435 -8.90301 1.19351e-07
123 1 15.7233 3.14479 3.15436 -8.93807 1.59479e-07
124 1 17.2957 4.7172 4.74364 -8.90301 1.19251e-07
125 1 18.8682 3.1448 3.15446 -8.93806 1.59309e-07
126 1 20.4405 4.71721 4.74374 -8.90301 1.19187e-07
127 1 -0.000944004 6.28964 3.15442 -8.93806 1.5925e-07
128 1 1.57143 7.86206 4.74364 -8.90301 1.19134e-07
129 1 3.14385 6.28963 3.15436 -8.93807 1.5946e-07
130 1 4.71622 7.86205 4.7435 -8.90301 1.19217e-07
131 1 6.28868 6.28962 3.15424 -8.93808 1.59682e-07
132 1 7.86108 7.86204 4.74333 -8.90301 1.19302e-07
133 1 9.43356 6.28962 3.15413 -8.9381 1.59751e-07
134 1 11.006 7.86203 4.74325 -8.90302 1.1933e-07
135 1 12.5785 6.28962 3.15413 -8.9381 1.59621e-07
136 1 14.1509 7.86204 4.74333 -8.90301 1.1928e-07
137 1 15.7233 6.28962 3.15424 -8.93808 1.59382e-07
138 1 17.2958 7.86205 4.7435 -8.90301 1.19182e-07
139 1 18.8682 6.28963 3.15436 -8.93807 1.59214e-07
140 1 20.4406 7.86206 4.74364 -8.90301 1.19115e-07
141 1 -0.000943994 9.43451 3.15435 -8.93807 1.59177e-07
142 1 1.57142 11.007 4.74359 -8.90301 1.19103e-07
143 1 3.14384 9.43451 3.15428 -8.93808 1.59384e-07
144 1 4.71622 11.007 4.74344 -8.90301 1.19186e-07
145 1 6.28867 9.4345 3.15413 -8.9381 1.59603e-07
146 1 7.86107 11.007 4.74325 -8.90302 1.19272e-07
147 1 9.43355 9.4345 3.15401 -8.93812 1.59672e-07
148 1 11.006 11.007 4.74316 -8.90302 1.19301e-07
149 1 12.5785 9.4345 3.15401 -8.93812 1.59545e-07
150 1 14.1509 11.007 4.74325 -8.90302 1.19252e-07
151 1 15.7233 9.4345 3.15413 -8.9381 1.5931e-07
152 1 17.2958 11.007 4.74344 -8.90301 1.19155e-07
153 1 18.8682 9.43451 3.15428 -8.93808 1.59143e-07
154 1 20.4406 11.007 4.74359 -8.90301 1.19087e-07
155 1 -0.000943994 12.5794 3.15435 -8.93807 1.59177e-07
156 1 1.57143 14.1518 4.74364 -8.90301 1.19134e-07
157 1 3.14384 12.5794 3.15428 -8.93808 1.59384e-07
158 1 4.71622 14.1518 4.7435 -8.90301 1.19217e-07
159 1 6.28867 12.5794 3.15413 -8.9381 1.59603e-07
160 1 7.86108 14.1519 4.74333 -8.90301 1.19302e-07
161 1 9.43355 12.5794 3.15401 -8.93812 1.59672e-07
162 1 11.006 14.1519 4.74325 -8.90302 1.1933e-07
163 1 12.5785 12.5794 3.15401 -8.93812 1.59545e-07
164 1 14.1509 14.1519 4.74333 -8.90301 1.1928e-07
165 1 15.7233 12.5794 3.15413 -8.9381 1.5931e-07
166 1 17.2958 14.1518 4.7435 -8.90301 1.19182e-07
167 1 18.8682 12.5794 3.15428 -8.93808 1.59143e-07
168 1 20.4406 14.1518 4.74364 -8.90301 1.19115e-07
169 1 -0.000944004 15.7243 3.15442 -8.93806 1.5925e-07
170 1 1.57143 17.2967 4.74374 -8.90301 1.1921e-07
171 1 3.14385 15.7243 3.15436 -8.93807 1.5946e-07
172 1 4.71624 17.2967 4.74364 -8.90301 1.19295e-07
173 1 6.28868 15.7243 3.15424 -8.93808 1.59682e-07
174 1 7.86109 17.2967 4.7435 -8.90301 1.1938e-07
175 1 9.43356 15.7243 3.15413 -8.9381 1.59751e-07
176 1 11.006 17.2967 4.74344 -8.90301 1.19406e-07
177 1 12.5785 15.7243 3.15413 -8.9381 1.59621e-07
178 1 14.1509 17.2967 4.7435 -8.90301 1.19351e-07
179 1 15.7233 15.7243 3.15424 -8.93808 1.59382e-07
180 1 17.2957 17.2967 4.74364 -8.90301 1.19251e-07
181 1 18.8682 15.7243 3.15436 -8.93807 1.59214e-07
182 1 20.4405 17.2967 4.74374 -8.90301 1.19187e-07
183 1 -0.000944015 18.8691 3.15451 -8.93805 1.59348e-07
184 1 1.57144 20.4415 4.74382 -8.90301 1.19278e-07
185 1 3.14386 18.8691 3.15446 -8.93806 1.59563e-07
186 1 4.71625 20.4415 4.74374 -8.90301 1.19366e-07
187 1 6.28869 18.8691 3.15436 -8.93807 1.59788e-07
188 1 7.8611 20.4415 4.74364 -8.90301 1.19452e-07
189 1 9.43356 18.8691 3.15428 -8.93808 1.59858e-07
190 1 11.006 20.4415 4.74359 -8.90301 1.19476e-07
191 1 12.5785 18.8691 3.15428 -8.93808 1.59723e-07
192 1 14.1509 20.4415 4.74364 -8.90301 1.19417e-07
193 1 15.7233 18.8691 3.15436 -8.93807 1.59479e-07
194 1 17.2957 20.4415 4.74374 -8.90301 1.19315e-07
195 1 18.8682 18.8691 3.15446 -8.93806 1.59309e-07
196 1 20.4405 20.4415 4.74383 -8.90301 1.19252e-07
197 1 -0.000984328 -3.08205e-16 6.3056 -8.88811 7.30168e-08
198 1 1.57137 1.57238 7.87482 -8.90467 3.59069e-08
199 1 3.1438 -5.8849e-16 6.30555 -8.88811 7.3072e-08
200 1 4.71616 1.57237 7.8747 -8.90467 3.59651e-08
201 1 6.28863 3.74025e-16 6.30544 -8.88812 7.31631e-08
202 1 7.86102 1.57235 7.87456 -8.90467 3.60323e-08
203 1 9.43351 -1.70716e-16 6.30534 -8.88812 7.32272e-08
204 1 11.0059 1.57235 7.87449 -8.90467 3.60623e-08
205 1 12.5784 -5.9722e-17 6.30534 -8.88812 7.32173e-08
206 1 14.1509 1.57235 7.87456 -8.90467 3.60275e-08
207 1 15.7233 9.46509e-17 6.30544 -8.88812 7.31344e-08
208 1 17.2957 1.57237 7.8747 -8.90467 3.59511e-08
209 1 18.8681 5.3351e-16 6.30555 -8.88811 7.30426e-08
210 1 20.4405 1.57238 7.87482 -8.90467 3.58978e-08
211 1 -0.000984321 3.14479 6.30555 -8.88811 7.29845e-08
212 1 1.57136 4.71717 7.8747 -8.90467 3.58588e-08
213 1 3.14379 3.14478 6.30549 -8.88811 7.30377e-08
214 1 4.71613 4.71714 7.87454 -8.90466 3.59155e-08
215 1 6.28862 3.14476 6.30535 -8.88812 7.31286e-08
216 1 7.86099 4.7171 7.87433 -8.90467 3.59866e-08
217 1 9.43351 3.14474 6.30524 -8.88812 7.31939e-08
218 1 11.0059 4.71708 7.87423 -8.90467 3.60204e-08
219 1 12.5784 3.14474 6.30524 -8.88812 7.31855e-08
220 1 14.1509 4.7171 7.87433 -8.90467 3.59866e-08
221 1 15.7233 3.14476 6.30535 -8.88812 7.31034e-08
222 1 17.2958 4.71714 7.87454 -8.90466 3.59076e-08
223 1 18.8681 3.14478 6.30549 -8.88811 7.3011e-08
224 1 20.4405 4.71717 7.8747 -8.90467 3.58525e-08
225 1 -0.0009843 6.28962 6.30544 -8.88812 7.29226e-08
226 1 1.57134 7.86203 7.87456 -8.90467 3.58148e-08
227 1 3.14377 6.2896 6.30535 -8.88812 7.29728e-08
228 1 4.71609 7.862 7.87433 -8.90467 3.58738e-08
229 1 6.28859 6.28957 6.30515 -8.88812 7.30638e-08
230 1 7.86095 7.86196 7.87401 -8.90469 3.59508e-08
231 1 9.43349 6.28955 6.30499 -8.88813 7.31315e-08
232 1 11.0059 7.86194 7.87386 -8.90471 3.59887e-08
233 1 12.5784 6.28955 6.30499 -8.88813 7.31266e-08
234 1 14.1509 7.86196 7.87401 -8.90469 3.59572e-08
235 1 15.7233 6.28957 6.30515 -8.88812 7.30468e-08
236 1 17.2958 7.862 7.87433 -8.90467 3.58743e-08
237 1 18.8682 6.2896 6.30535 -8.88812 7.29529e-08
238 1 20.4405 7.86203 7.87456 -8.90467 3.58123e-08
239 1 -0.00098428 9.4345 6.30534 -8.88812 7.28827e-08
240 1 1.57134 11.007 7.87449 -8.90467 3.58004e-08
241 1 3.14376 9.43449 6.30524 -8.88812 7.29319e-08
242 1 4.71607 11.007 7.87423 -8.90467 3.58622e-08
243 1 6.28857 9.43448 6.30499 -8.88813 7.30255e-08
244 1 7.86093 11.007 7.87386 -8.90471 3.59436e-08
245 1 9.43348 9.43447 6.30478 -8.88815 7.30953e-08
246 1 11.0059 11.007 7.87367 -8.90475 3.59833e-08
247 1 12.5785 9.43447 6.30478 -8.88815 7.30932e-08
248 1 14.1509 11.007 7.87386 -8.90471 3.59527e-08
249 1 15.7234 9.43448 6.30499 -8.88813 7.3015e-08
250 1 17.2958 11.007 7.87423 -8.90467 3.58664e-08
251 1 18.8682 9.43449 6.30524 -8.88812 7.29175e-08
252 1 20.4405 11.007 7.87449 -8.90467 3.57997e-08
253 1 -0.00098428 12.5794 6.30534 -8.88812 7.28827e-08
254 1 1.57134 14.1519 7.87456 -8.90467 3.58148e-08
255 1 3.14376 12.5794 6.30524 -8.88812 7.29319e-08
256 1 4.71609 14.1519 7.87433 -8.90467 3.58738e-08
257 1 6.28857 12.5794 6.30499 -8.88813 7.30255e-08
258 1 7.86095 14.1519 7.87401 -8.90469 3.59508e-08
259 1 9.43348 12.5794 6.30478 -8.88815 7.30953e-08
260 1 11.0059 14.152 7.87386 -8.90471 3.59887e-08
261 1 12.5785 12.5794 6.30478 -8.88815 7.30932e-08
262 1 14.1509 14.1519 7.87401 -8.90469 3.59572e-08
263 1 15.7234 12.5794 6.30499 -8.88813 7.3015e-08
264 1 17.2958 14.1519 7.87433 -8.90467 3.58743e-08
265 1 18.8682 12.5794 6.30524 -8.88812 7.29175e-08
266 1 20.4405 14.1519 7.87456 -8.90467 3.58123e-08
267 1 -0.0009843 15.7243 6.30544 -8.88812 7.29226e-08
268 1 1.57136 17.2967 7.8747 -8.90467 3.58588e-08
269 1 3.14377 15.7243 6.30535 -8.88812 7.29728e-08
270 1 4.71613 17.2968 7.87454 -8.90466 3.59155e-08
271 1 6.28859 15.7243 6.30515 -8.88812 7.30638e-08
272 1 7.86099 17.2968 7.87433 -8.90467 3.59866e-08
273 1 9.43349 15.7244 6.30499 -8.88813 7.31315e-08
274 1 11.0059 17.2968 7.87423 -8.90467 3.60204e-08
275 1 12.5784 15.7244 6.30499 -8.88813 7.31266e-08
276 1 14.1509 17.2968 7.87433 -8.90467 3.59866e-08
277 1 15.7233 15.7243 6.30515 -8.88812 7.30468e-08
278 1 17.2958 17.2968 7.87454 -8.90466 3.59076e-08
279 1 18.8682 15.7243 6.30535 -8.88812 7.29529e-08
280 1 20.4405 17.2967 7.8747 -8.90467 3.58525e-08
281 1 -0.000984321 18.8691 6.30555 -8.88811 7.29845e-08
282 1 1.57137 20.4415 7.87482 -8.90467 3.59069e-08
283 1 3.14379 18.8691 6.30549 -8.88811 7.30377e-08
284 1 4.71616 20.4415 7.8747 -8.90467 3.59651e-08
285 1 6.28862 18.8691 6.30535 -8.88812 7.31286e-08
286 1 7.86102 20.4415 7.87456 -8.90467 3.60323e-08
287 1 9.43351 18.8692 6.30524 -8.88812 7.31939e-08
288 1 11.0059 20.4416 7.87449 -8.90467 3.60623e-08
289 1 12.5784 18.8692 6.30524 -8.88812 7.31855e-08
290 1 14.1509 20.4415 7.87456 -8.90467 3.60275e-08
291 1 15.7233 18.8691 6.30535 -8.88812 7.31034e-08
292 1 17.2957 20.4415 7.8747 -8.90467 3.59511e-08
293 1 18.8681 18.8691 6.30549 -8.88811 7.3011e-08
294 1 20.4405 20.4415 7.87482 -8.90467 3.58978e-08
295 1 -0.00103818 -6.43723e-16 9.44319 -8.89866 9.49155e-09
296 1 1.57131 1.57237 11.0113 -8.9001 1.52392e-11
297 1 3.14372 1.36905e-15 9.44312 -8.89865 9.52326e-09
298 1 4.71608 1.57234 11.0112 -8.90009 1.69097e-11
299 1 6.28854 3.65239e-15 9.44296 -8.89865 9.56889e-09
300 1 7.86094 1.57231 11.011 -8.90009 1.02243e-11
301 1 9.43344 3.29746e-15 9.44283 -8.89865 9.59964e-09
302 1 11.0059 1.57229 11.0109 -8.90009 6.95232e-12
303 1 12.5784 5.97269e-15 9.44283 -8.89865 9.59204e-09
304 1 14.1508 1.57231 11.011 -8.90009 6.82121e-12
305 1 15.7233 3.61604e-15 9.44296 -8.89865 9.5454e-09
306 1 17.2957 1.57234 11.0112 -8.90009 4.36086e-12
307 1 18.8681 1.95223e-15 9.44312 -8.89865 9.498e-09
308 1 20.4405 1.57237 11.0113 -8.9001 6.74606e-12
309 1 -0.00103818 3.14476 9.44312 -8.89865 9.46946e-09
310 1 1.57128 4.71715 11.0112 -8.90009 8.797e-12
311 1 3.1437 3.14474 9.44304 -8.89865 9.49974e-09
312 1 4.716 4.71707 11.0109 -8.90006 1.04925e-11
313 1 6.28851 3.14469 9.44283 -8.89864 9.54691e-09
314 1 7.86086 4.71696 11.0106 -8.90007 6.41872e-12
315 1 9.43343 3.14465 9.44265 -8.89865 9.58085e-09
316 1 11.0059 4.71692 11.0104 -8.90008 6.97227e-12
317 1 12.5784 3.14465 9.44265 -8.89865 9.57479e-09
318 1 14.1509 4.71696 11.0106 -8.90007 9.12159e-12
319 1 15.7233 3.14469 9.44283 -8.89864 9.52675e-09
320 1 17.2958 4.71707 11.0109 -8.90006 5.04679e-12
321 1 18.8681 3.14474 9.44304 -8.89865 9.47702e-09
322 1 20.4405 4.71715 11.0112 -8.90009 3.31278e-12
323 1 -0.00103817 6.28958 9.44296 -8.89865 9.4326e-09
324 1 1.57124 7.86201 11.011 -8.90009 3.72274e-12
325 1 3.14365 6.28955 9.44283 -8.89864 9.46096e-09
326 1 4.71589 7.86193 11.0106 -8.90007 5.01454e-12
327 1 6.28844 6.28947 9.44248 -8.89864 9.51093e-09
328 1 7.86074 7.8618 11.0099 -8.90011 4.83015e-12
329 1 9.43339 6.28941 9.44217 -8.89865 9.55237e-09
330 1 11.0059 7.86175 11.0096 -8.90015 1.05596e-11
331 1 12.5784 6.28941 9.44217 -8.89865 9.54997e-09
332 1 14.151 7.8618 11.0099 -8.90011 1.50511e-11
333 1 15.7234 6.28947 9.44248 -8.89864 9.49904e-09
334 1 17.2959 7.86193 11.0106 -8.90007 9.15538e-12
335 1 18.8682 6.28955 9.44283 -8.89864 9.44487e-09
336 1 20.4405 7.86201 11.011 -8.90009 2.40642e-12
337 1 -0.00103814 9.43448 9.44283 -8.89865 9.41383e-09
338 1 1.57122 11.007 11.0109 -8.90009 2.55277e-12
339 1 3.14362 9.43447 9.44265 -8.89865 9.44265e-09
340 1 4.71585 11.007 11.0104 -8.90008 3.69427e-12
341 1 6.28837 9.43443 9.44217 -8.89865 9.49952e-09
342 1 7.86068 11.007 11.0096 -8.90015 5.62595e-12
343 1 9.43335 9.43439 9.44171 -8.89872 9.54813e-09
344 1 11.0059 11.007 11.0091 -8.90037 1.35408e-11
345 1 12.5785 9.43439 9.44171 -8.89872 9.54835e-09
346 1 14.1511 11.007 11.0096 -8.90015 1.84145e-11
347 1 15.7235 9.43443 9.44217 -8.89865 9.49436e-09
348 1 17.2959 11.007 11.0104 -8.90008 1.18569e-11
349 1 18.8682 9.43447 9.44265 -8.89865 9.43225e-09
350 1 20.4405 11.007 11.0109 -8.90009 3.08298e-12
351 1 -0.00103814 12.5794 9.44283 -8.89865 9.41383e-09
352 1 1.57124 14.1519 11.011 -8.90009 3.72274e-12
353 1 3.14362 12.5794 9.44265 -8.89865 9.44265e-09
354 1 4.71589 14.152 11.0106 -8.90007 5.01454e-12
355 1 6.28837 12.5795 9.44217 -8.89865 9.49952e-09
356 1 7.86074 14.1521 11.0099 -8.90011 4.83018e-12
357 1 9.43335 12.5795 9.44171 -8.89872 9.54813e-09
358 1 11.0059 14.1522 11.0096 -8.90015 1.05598e-11
359 1 12.5785 12.5795 9.44171 -8.89872 9.54835e-09
360 1 14.151 14.1521 11.0099 -8.90011 1.50513e-11
361 1 15.7235 12.5795 9.44217 -8.89865 9.49436e-09
362 1 17.2959 14.152 11.0106 -8.90007 9.15539e-12
363 1 18.8682 12.5794 9.44265 -8.89865 9.43225e-09
364 1 20.4405 14.1519 11.011 -8.90009 2.40642e-12
365 1 -0.00103817 15.7243 9.44296 -8.89865 9.4326e-09
366 1 1.57128 17.2968 11.0112 -8.90009 8.797e-12
367 1 3.14365 15.7243 9.44283 -8.89864 9.46096e-09
368 1 4.716 17.2968 11.0109 -8.90006 1.04925e-11
369 1 6.28844 15.7244 9.44248 -8.89864 9.51093e-09
370 1 7.86086 17.2969 11.0106 -8.90007 6.41872e-12
371 1 9.43339 15.7245 9.44217 -8.89865 9.55237e-09
372 1 11.0059 17.297 11.0104 -8.90008 6.97227e-12
373 1 12.5784 15.7245 9.44217 -8.89865 9.54997e-09
374 1 14.1509 17.2969 11.0106 -8.90007 9.12158e-12
375 1 15.7234 15.7244 9.44248 -8.89864 9.49904e-09
376 1 17.2958 17.2968 11.0109 -8.90006 5.04679e-12
377 1 18.8682 15.7243 9.44283 -8.89864 9.44488e-09
378 1 20.4405 17.2968 11.0112 -8.90009 3.31279e-12
379 1 -0.00103818 18.8691 9.44312 -8.89865 9.46946e-09
380 1 1.57131 20.4415 11.0113 -8.9001 1.52392e-11
381 1 3.1437 18.8692 9.44304 -8.89865 9.49974e-09
382 1 4.71608 20.4416 11.0112 -8.90009 1.69097e-11
383 1 6.28851 18.8692 9.44283 -8.89864 9.54691e-09
384 1 7.86094 20.4416 11.011 -8.90009 1.02244e-11
385 1 9.43343 18.8692 9.44265 -8.89865 9.58085e-09
386 1 11.0059 20.4416 11.0109 -8.90009 6.95232e-12
387 1 12.5784 18.8692 9.44265 -8.89865 9.57479e-09
388 1 14.1508 20.4416 11.011 -8.90009 6.8212e-12
389 1 15.7233 18.8692 9.44283 -8.89864 9.52675e-09
390 1 17.2957 20.4416 11.0112 -8.90009 4.36087e-12
391 1 18.8681 18.8692 9.44304 -8.89865 9.47702e-09
392 1 20.4405 20.4415 11.0113 -8.9001 6.74606e-12
393 1 -0.00109757 2.88443e-15 12.5796 -8.89868 8.7672e-09
394 1 3.14368 -1.86975e-15 12.5795 -8.89867 8.73635e-09
395 1 6.28849 -1.75682e-14 12.5793 -8.89867 8.66546e-09
396 1 9.43338 -2.72683e-14 12.5791 -8.89868 8.61174e-09
397 1 12.5783 -2.70185e-14 12.5791 -8.89868 8.63001e-09
398 1 15.7232 -1.73111e-14 12.5793 -8.89867 8.69953e-09
399 1 18.868 -8.3749e-16 12.5795 -8.89867 8.75675e-09
400 1 22.0128 3.14478 12.5795 -8.89867 8.80576e-09
401 1 3.14364 3.14474 12.5794 -8.89866 8.77528e-09
402 1 6.28843 3.14464 12.5791 -8.89864 8.70452e-09
403 1 9.43335 3.14455 12.5788 -8.89865 8.64709e-09
404 1 12.5784 3.14455 12.5788 -8.89865 8.66791e-09
405 1 15.7233 3.14464 12.5791 -8.89864 8.74395e-09
406 1 18.8681 3.14474 12.5794 -8.89866 8.79962e-09
407 1 22.0128 6.28959 12.5793 -8.89867 8.87223e-09
408 1 3.14354 6.28952 12.5791 -8.89864 8.84118e-09
409 1 6.28824 6.28933 12.5785 -8.89854 8.77656e-09
410 1 9.43324 6.28917 12.5779 -8.8986 8.7067e-09
411 1 12.5785 6.28917 12.5779 -8.8986 8.73328e-09
412 1 15.7235 6.28933 12.5785 -8.89854 8.8284e-09
413 1 18.8682 6.28952 12.5791 -8.89864 8.87457e-09
414 1 22.0128 9.43448 12.5791 -8.89868 8.908e-09
415 1 3.14346 9.43445 12.5788 -8.89865 8.86864e-09
416 1 6.28808 9.43434 12.5779 -8.8986 8.78882e-09
417 1 9.43311 9.43421 12.5768 -8.89878 8.70877e-09
418 1 12.5786 9.43421 12.5768 -8.89878 8.73779e-09
419 1 15.7236 9.43434 12.5779 -8.8986 8.84847e-09
420 1 18.8683 9.43445 12.5788 -8.89865 8.90873e-09
421 1 22.0128 12.5794 12.5791 -8.89868 8.908e-09
422 1 3.14346 12.5795 12.5788 -8.89865 8.86863e-09
423 1 6.28808 12.5796 12.5779 -8.8986 8.78882e-09
424 1 9.43311 12.5797 12.5768 -8.89878 8.70877e-09
425 1 12.5786 12.5797 12.5768 -8.89878 8.73779e-09
426 1 15.7236 12.5796 12.5779 -8.8986 8.84847e-09
427 1 18.8683 12.5795 12.5788 -8.89865 8.90873e-09
428 1 22.0128 15.7243 12.5793 -8.89867 8.87223e-09
429 1 3.14354 15.7244 12.5791 -8.89864 8.84118e-09
430 1 6.28824 15.7246 12.5785 -8.89854 8.77656e-09
431 1 9.43324 15.7247 12.5779 -8.8986 8.7067e-09
432 1 12.5785 15.7247 12.5779 -8.8986 8.73328e-09
433 1 15.7235 15.7246 12.5785 -8.89854 8.82841e-09
434 1 18.8682 15.7244 12.5791 -8.89864 8.87457e-09
435 1 22.0128 18.8691 12.5795 -8.89867 8.80576e-09
436 1 3.14364 18.8692 12.5794 -8.89866 8.77528e-09
437 1 6.28843 18.8693 12.5791 -8.89864 8.70452e-09
438 1 9.43335 18.8693 12.5788 -8.89865 8.64709e-09
439 1 12.5784 18.8693 12.5788 -8.89865 8.66791e-09
440 1 15.7233 18.8693 12.5791 -8.89864 8.74395e-09
441 1 18.8681 18.8692 12.5794 -8.89866 8.79962e-09
442 1 1.57129 1.57241 14.1479 -8.9047 3.4598e-08
443 1 4.71609 1.57237 14.1478 -8.90468 3.4496e-08
444 1 7.86092 1.5723 14.1475 -8.9047 3.43525e-08
445 1 11.0058 1.57227 14.1474 -8.9047 3.43154e-08
446 1 14.1507 1.5723 14.1475 -8.9047 3.44342e-08
447 1 17.2956 1.57237 14.1478 -8.90468 3.4588e-08
448 1 20.4404 1.57241 14.1479 -8.9047 3.46353e-08
449 1 1.57125 4.71722 14.1478 -8.90468 3.47835e-08
450 1 4.71596 4.71708 14.1475 -8.90465 3.47103e-08
451 1 7.86075 4.71685 14.1469 -8.90465 3.45455e-08
452 1 11.0058 4.71676 14.1466 -8.90466 3.4489e-08
453 1 14.1509 4.71685 14.1469 -8.90465 3.46392e-08
454 1 17.2957 4.71708 14.1475 -8.90465 3.4816e-08
455 1 20.4404 4.71722 14.1478 -8.90468 3.48263e-08
456 1 1.57118 7.86204 14.1475 -8.9047 3.49471e-08
457 1 4.71573 7.86188 14.1469 -8.90465 3.48654e-08
458 1 7.86038 7.8615 14.1455 -8.9044 3.47127e-08
459 1 11.0058 7.86138 14.1447 -8.90466 3.46027e-08
460 1 14.1513 7.8615 14.1455 -8.9044 3.48271e-08
461 1 17.2959 7.86188 14.1469 -8.90465 3.49852e-08
462 1 20.4405 7.86204 14.1475 -8.9047 3.49959e-08
463 1 1.57115 11.007 14.1474 -8.9047 3.49947e-08
464 1 4.71563 11.007 14.1466 -8.90466 3.48841e-08
465 1 7.86025 11.007 14.1447 -8.90466 3.46796e-08
466 1 11.0058 11.007 14.1432 -8.90674 3.45445e-08
467 1 14.1514 11.007 14.1447 -8.90466 3.47981e-08
468 1 17.296 11.007 14.1466 -8.90466 3.50088e-08
469 1 20.4405 11.007 14.1474 -8.9047 3.50457e-08
470 1 1.57118 14.1519 14.1475 -8.9047 3.49471e-08
471 1 4.71573 14.152 14.1469 -8.90465 3.48653e-08
472 1 7.86038 14.1524 14.1455 -8.9044 3.47127e-08
473 1 11.0058 14.1525 14.1447 -8.90466 3.46027e-08
474 1 14.1513 14.1524 14.1455 -8.9044 3.48271e-08
475 1 17.2959 14.152 14.1469 -8.90465 3.49852e-08
476 1 20.4405 14.1519 14.1475 -8.9047 3.49959e-08
477 1 1.57125 17.2967 14.1478 -8.90468 3.47835e-08
478 1 4.71596 17.2968 14.1475 -8.90465 3.47103e-08
479 1 7.86075 17.297 14.1469 -8.90465 3.45455e-08
480 1 11.0058 17.2971 14.1466 -8.90466 3.4489e-08
481 1 14.1509 17.297 14.1469 -8.90465 3.46392e-08
482 1 17.2957 17.2968 14.1475 -8.90465 3.4816e-08
483 1 20.4404 17.2967 14.1478 -8.90468 3.48263e-08
484 1 1.57129 20.4415 14.1479 -8.9047 3.4598e-08
485 1 4.71609 20.4415 14.1478 -8.90468 3.4496e-08
486 1 7.86092 20.4416 14.1475 -8.9047 3.43525e-08
487 1 11.0058 20.4416 14.1474 -8.9047 3.43154e-08
488 1 14.1507 20.4416 14.1475 -8.9047 3.44342e-08
489 1 17.2956 20.4415 14.1478 -8.90468 3.4588e-08
490 1 20.4404 20.4415 14.1479 -8.9047 3.46353e-08
491 1 22.0127 6.71279e-15 15.7172 -8.88818 7.14207e-08
492 1 1.57138 1.57255 17.279 -8.90297 1.17735e-07
493 1 3.14377 -1.75143e-14 15.7172 -8.88819 7.13269e-08
494 1 4.71637 1.5726 17.279 -8.90302 1.17595e-07
495 1 6.28859 -3.52427e-14 15.7171 -8.88817 7.11704e-08
496 1 7.86109 1.57254 17.2788 -8.9031 1.17408e-07
497 1 9.43339 -2.85694e-14 15.7169 -8.8882 7.10333e-08
498 1 11.0058 1.5725 17.2787 -8.90309 1.17316e-07
499 1 12.5782 -2.81896e-14 15.7169 -8.8882 7.10817e-08
500 1 14.1505 1.57254 17.2788 -8.9031 1.1748e-07
501 1 15.723 -3.68293e-14 15.7171 -8.88817 7.12699e-08
502 1 17.2952 1.5726 17.279 -8.90302 1.1767e-07
503 1 18.8678 -1.71569e-14 15.7172 -8.88819 7.13971e-08
504 1 20.4402 1.57255 17.279 -8.90297 1.17763e-07
505 1 22.0127 3.14492 15.7172 -8.88819 7.15891e-08
506 1 1.57143 4.71755 17.279 -8.90302 1.18202e-07
507 1 3.14376 3.14491 15.7171 -8.88818 7.14953e-08
508 1 4.71647 4.71764 17.2789 -8.90324 1.18098e-07
509 1 6.28852 3.14478 15.7169 -8.88809 7.13793e-08
510 1 7.86093 4.71722 17.2782 -8.90292 1.18098e-07
511 1 9.43335 3.14464 15.7165 -8.88817 7.12199e-08
512 1 11.0058 4.71706 17.2777 -8.90284 1.17918e-07
513 1 12.5783 3.14464 15.7165 -8.88817 7.1273e-08
514 1 14.1506 4.71722 17.2782 -8.90292 1.18199e-07
515 1 15.7231 3.14478 15.7169 -8.88809 7.14878e-08
516 1 17.2951 4.71764 17.2789 -8.90324 1.18188e-07
517 1 18.8678 3.14491 15.7171 -8.88818 7.15714e-08
518 1 20.4401 4.71755 17.279 -8.90302 1.18238e-07
519 1 22.0127 6.28974 15.7171 -8.88817 7.19649e-08
520 1 1.57137 7.86227 17.2788 -8.9031 1.18766e-07
521 1 3.14363 6.28967 15.7169 -8.88809 7.19193e-08
522 1 4.71605 7.86211 17.2782 -8.90292 1.18866e-07
523 1 6.2882 6.28936 15.7161 -8.8877 7.19549e-08
524 1 7.85987 7.86105 17.2759 -8.90267 1.19072e-07
525 1 9.43312 6.28897 15.7149 -8.88787 7.16572e-08
526 1 11.0058 7.86102 17.2737 -8.90497 1.18581e-07
527 1 12.5785 6.28897 15.7149 -8.88787 7.17293e-08
528 1 14.1517 7.86105 17.2759 -8.90267 1.19313e-07
529 1 15.7234 6.28936 15.7161 -8.8877 7.21062e-08
530 1 17.2955 7.86211 17.2782 -8.90292 1.1902e-07
531 1 18.868 6.28967 15.7169 -8.88809 7.20111e-08
532 1 20.4402 7.86227 17.2788 -8.9031 1.1881e-07
533 1 22.0127 9.43454 15.7169 -8.8882 7.21907e-08
534 1 1.57133 11.007 17.2787 -8.90309 1.18959e-07
535 1 3.14349 9.4345 15.7165 -8.88817 7.21332e-08
536 1 4.71589 11.007 17.2777 -8.90284 1.19017e-07
537 1 6.28782 9.43427 15.7149 -8.88787 7.20807e-08
538 1 7.85984 11.007 17.2737 -8.90497 1.19096e-07
539 1 9.43253 9.43369 15.7118 -8.88714 7.17021e-08
540 1 11.0058 11.007 17.2662 -8.91709 1.19009e-07
541 1 12.5791 9.43369 15.7118 -8.88714 7.17816e-08
542 1 14.1517 11.007 17.2737 -8.90497 1.19222e-07
543 1 15.7238 9.43427 15.7149 -8.88787 7.22591e-08
544 1 17.2957 11.007 17.2777 -8.90284 1.1919e-07
545 1 18.8681 9.4345 15.7165 -8.88817 7.22352e-08
546 1 20.4402 11.007 17.2787 -8.90309 1.19007e-07
547 1 22.0127 12.5794 15.7169 -8.8882 7.21907e-08
548 1 1.57137 14.1516 17.2788 -8.9031 1.18765e-07
549 1 3.14349 12.5794 15.7165 -8.88817 7.21332e-08
550 1 4.71605 14.1518 17.2782 -8.90292 1.18866e-07
551 1 6.28782 12.5796 15.7149 -8.88787 7.20808e-08
552 1 7.85987 14.1529 17.2759 -8.90267 1.19072e-07
553 1 9.43253 12.5802 15.7118 -8.88714 7.17021e-08
554 1 11.0058 14.1529 17.2737 -8.90497 1.18581e-07
555 1 12.5791 12.5802 15.7118 -8.88714 7.17816e-08
556 1 14.1517 14.1529 17.2759 -8.90267 1.19312e-07
557 1 15.7238 12.5796 15.7149 -8.88787 7.2259e-08
558 1 17.2955 14.1518 17.2782 -8.90292 1.19019e-07
559 1 18.8681 12.5794 15.7165 -8.88817 7.22352e-08
560 1 20.4402 14.1516 17.2788 -8.9031 1.1881e-07
561 1 22.0127 15.7242 15.7171 -8.88817 7.19649e-08
562 1 1.57143 17.2964 17.279 -8.90302 1.18202e-07
563 1 3.14363 15.7242 15.7169 -8.88809 7.19192e-08
564 1 4.71647 17.2963 17.2789 -8.90324 1.18098e-07
565 1 6.2882 15.7245 15.7161 -8.8877 7.19549e-08
566 1 7.86093 17.2967 17.2782 -8.90292 1.18098e-07
567 1 9.43312 15.7249 15.7149 -8.88787 7.16572e-08
568 1 11.0058 17.2968 17.2777 -8.90284 1.17918e-07
569 1 12.5785 15.7249 15.7149 -8.88787 7.17293e-08
570 1 14.1506 17.2967 17.2782 -8.90292 1.18199e-07
571 1 15.7234 15.7245 15.7161 -8.8877 7.21061e-08
572 1 17.2951 17.2963 17.2789 -8.90324 1.18188e-07
573 1 18.868 15.7242 15.7169 -8.88809 7.20111e-08
574 1 20.4401 17.2964 17.279 -8.90302 1.18238e-07
575 1 22.0127 18.869 15.7172 -8.88819 7.15891e-08
576 1 1.57138 20.4413 17.279 -8.90297 1.17735e-07
577 1 3.14376 18.869 15.7171 -8.88818 7.14953e-08
578 1 4.71637 20.4413 17.279 -8.90302 1.17595e-07
579 1 6.28852 18.8691 15.7169 -8.88809 7.13793e-08
580 1 7.86109 20.4414 17.2788 -8.9031 1.17408e-07
581 1 9.43335 18.8693 15.7165 -8.88817 7.12199e-08
582 1 11.0058 20.4414 17.2787 -8.90309 1.17316e-07