ITEM: TIMESTEP
275
ITEM: NUMBER OF ATOMS
736
ITEM: BOX BOUNDS pp pp pp
0.0000000000000000e+00 2.2013900999999997e+01
0.0000000000000000e+00 2.2013900999999997e+01
0.0000000000000000e+00 5.3462330999999999e+01
ITEM: ATOMS id type x y z c_pot c_ke
1 1 -0.000939048 -6.59498e-16 0.0976348 -7.40188 2.12632e-07
2 1 1.57145 1.5724 1.62442 -8.68379 1.89891e-07
3 1 3.14385 -2.99893e-16 0.0976083 -7.40187 2.13428e-07
4 1 4.71626 1.57239 1.62435 -8.68379 1.90353e-07
5 1 6.28868 -8.12447e-16 0.0975489 -7.40185 2.14181e-07
6 1 7.86112 1.57239 1.62427 -8.68378 1.90633e-07
7 1 9.43356 -6.65462e-16 0.0975015 -7.40183 2.14325e-07
8 1 11.006 1.57239 1.62423 -8.68378 1.90526e-07
9 1 12.5785 -1.11337e-15 0.0975016 -7.40183 2.13752e-07
10 1 14.1509 1.57239 1.62427 -8.68378 1.9011e-07
11 1 15.7233 -1.28982e-15 0.0975491 -7.40185 2.12894e-07
12 1 17.2957 1.57239 1.62435 -8.68379 1.89696e-07
13 1 18.8682 -4.4612e-16 0.0976084 -7.40187 2.12394e-07
14 1 20.4406 1.5724 1.62442 -8.68379 1.89597e-07
15 1 -0.000939044 3.14479 0.0976084 -7.40187 2.12593e-07
16 1 1.57145 4.71721 1.62435 -8.68379 1.89829e-07
17 1 3.14385 3.14479 0.097579 -7.40186 2.13386e-07
18 1 4.71626 4.7172 1.62427 -8.68378 1.90284e-07
19 1 6.28868 3.14478 0.0975134 -7.40184 2.14133e-07
20 1 7.86111 4.71719 1.62417 -8.68377 1.90559e-07
21 1 9.43356 3.14477 0.0974608 -7.40182 2.14273e-07
22 1 11.006 4.71719 1.62412 -8.68377 1.90451e-07
23 1 12.5785 3.14477 0.0974609 -7.40182 2.13701e-07
24 1 14.1509 4.71719 1.62417 -8.68377 1.9004e-07
25 1 15.7233 3.14478 0.0975136 -7.40184 2.12847e-07
26 1 17.2958 4.7172 1.62427 -8.68378 1.89632e-07
27 1 18.8682 3.14479 0.0975792 -7.40186 2.12353e-07
28 1 20.4406 4.71721 1.62435 -8.68379 1.89537e-07
29 1 -0.000939035 6.28962 0.097549 -7.40185 2.12506e-07
30 1 1.57144 7.86206 1.62427 -8.68378 1.89755e-07
31 1 3.14384 6.28962 0.0975134 -7.40184 2.13292e-07
32 1 4.71625 7.86206 1.62417 -8.68377 1.90203e-07
33 1 6.28867 6.28961 0.0974332 -7.40181 2.14027e-07
34 1 7.8611 7.86205 1.62404 -8.68377 1.90471e-07
35 1 9.43355 6.2896 0.0973685 -7.40178 2.14157e-07
36 1 11.006 7.86205 1.62398 -8.68376 1.90361e-07
37 1 12.5785 6.2896 0.0973686 -7.40178 2.13587e-07
38 1 14.1509 7.86205 1.62404 -8.68377 1.89956e-07
39 1 15.7234 6.28961 0.0974334 -7.40181 2.12745e-07
40 1 17.2958 7.86206 1.62417 -8.68377 1.89557e-07
41 1 18.8682 6.28962 0.0975136 -7.40184 2.12263e-07
42 1 20.4406 7.86206 1.62427 -8.68378 1.89466e-07
43 1 -0.000939028 9.4345 0.0975015 -7.40183 2.12437e-07
44 1 1.57144 11.007 1.62423 -8.68378 1.89724e-07
45 1 3.14383 9.4345 0.0974608 -7.40182 2.13219e-07
46 1 4.71624 11.007 1.62412 -8.68377 1.90169e-07
47 1 6.28866 9.43449 0.0973685 -7.40178 2.13944e-07
48 1 7.8611 11.007 1.62398 -8.68376 1.90433e-07
49 1 9.43355 9.43449 0.0972937 -7.40175 2.14066e-07
50 1 11.006 11.007 1.62392 -8.68376 1.90322e-07
51 1 12.5785 9.43449 0.0972938 -7.40175 2.13496e-07
52 1 14.1509 11.007 1.62398 -8.68376 1.89921e-07
53 1 15.7234 9.43449 0.0973687 -7.40178 2.12664e-07
54 1 17.2958 11.007 1.62412 -8.68377 1.89525e-07
55 1 18.8682 9.4345 0.0974609 -7.40182 2.12191e-07
56 1 20.4406 11.007 1.62423 -8.68378 1.89435e-07
57 1 -0.000939028 12.5794 0.0975015 -7.40183 2.12437e-07
58 1 1.57144 14.1518 1.62427 -8.68378 1.89755e-07
59 1 3.14383 12.5794 0.0974608 -7.40182 2.13219e-07
60 1 4.71625 14.1518 1.62417 -8.68377 1.90203e-07
61 1 6.28866 12.5794 0.0973685 -7.40178 2.13944e-07
62 1 7.8611 14.1519 1.62404 -8.68377 1.90471e-07
63 1 9.43355 12.5794 0.0972937 -7.40175 2.14066e-07
64 1 11.006 14.1519 1.62398 -8.68376 1.90361e-07
65 1 12.5785 12.5794 0.0972938 -7.40175 2.13496e-07
66 1 14.1509 14.1519 1.62404 -8.68377 1.89956e-07
67 1 15.7234 12.5794 0.0973687 -7.40178 2.12664e-07
68 1 17.2958 14.1518 1.62417 -8.68377 1.89557e-07
69 1 18.8682 12.5794 0.0974609 -7.40182 2.12191e-07
70 1 20.4406 14.1518 1.62427 -8.68378 1.89466e-07
71 1 -0.000939035 15.7243 0.097549 -7.40185 2.12506e-07
72 1 1.57145 17.2967 1.62435 -8.68379 1.89829e-07
73 1 3.14384 15.7243 0.0975134 -7.40184 2.13292e-07
74 1 4.71626 17.2967 1.62427 -8.68378 1.90284e-07
75 1 6.28867 15.7243 0.0974332 -7.40181 2.14027e-07
76 1 7.86111 17.2967 1.62417 -8.68377 1.90559e-07
77 1 9.43355 15.7243 0.0973685 -7.40178 2.14157e-07
78 1 11.006 17.2967 1.62412 -8.68377 1.90451e-07
79 1 12.5785 15.7243 0.0973686 -7.40178 2.13587e-07
80 1 14.1509 17.2967 1.62417 -8.68377 1.9004e-07
81 1 15.7234 15.7243 0.0974334 -7.40181 2.12745e-07
82 1 17.2958 17.2967 1.62427 -8.68378 1.89632e-07
83 1 18.8682 15.7243 0.0975136 -7.40184 2.12263e-07
84 1 20.4406 17.2967 1.62435 -8.68379 1.89537e-07
85 1 -0.000939044 18.8691 0.0976084 -7.40187 2.12593e-07
86 1 1.57145 20.4415 1.62442 -8.68379 1.89891e-07
87 1 3.14385 18.8691 0.097579 -7.40186 2.13386e-07
88 1 4.71626 20.4415 1.62435 -8.68379 1.90353e-07
89 1 6.28868 18.8691 0.0975134 -7.40184 2.14133e-07
90 1 7.86112 20.4415 1.62427 -8.68378 1.90633e-07
91 1 9.43356 18.8691 0.0974608 -7.40182 2.14273e-07
92 1 11.006 20.4415 1.62423 -8.68378 1.90526e-07
93 1 12.5785 18.8691 0.0974609 -7.40182 2.13701e-07
94 1 14.1509 20.4415 1.62427 -8.68378 1.9011e-07
95 1 15.7233 18.8691 0.0975136 -7.40184 2.12847e-07
96 1 17.2957 20.4415 1.62435 -8.68379 1.89696e-07
97 1 18.8682 18.8691 0.0975792 -7.40186 2.12353e-07
98 1 20.4406 20.4415 1.62442 -8.68379 1.89597e-07
99 1 -0.000956303 -3.44806e-16 3.15455 -8.93805 1.6e-07
100 1 1.57143 1.5724 4.74383 -8.90301 1.19664e-07
101 1 3.14385 -5.33367e-16 3.15451 -8.93805 1.60176e-07
102 1 4.71624 1.57239 4.74374 -8.90301 1.19742e-07
103 1 6.28868 1.44208e-15 3.15442 -8.93806 1.60369e-07
104 1 7.86109 1.57239 4.74364 -8.90301 1.19823e-07
105 1 9.43355 2.84034e-15 3.15435 -8.93807 1.60438e-07
106 1 11.006 1.57238 4.74359 -8.90301 1.19849e-07
107 1 12.5784 3.77014e-15 3.15435 -8.93807 1.60333e-07
108 1 14.1509 1.57239 4.74364 -8.90301 1.19799e-07
109 1 15.7233 1.55043e-15 3.15442 -8.93806 1.60128e-07
110 1 17.2957 1.57239 4.74374 -8.90301 1.19707e-07
111 1 18.8681 8.64606e-16 3.15451 -8.93805 1.59978e-07
112 1 20.4405 1.5724 4.74383 -8.90301 1.19646e-07
113 1 -0.000956298 3.14481 3.15451 -8.93805 1.59973e-07
114 1 1.57142 4.71721 4.74374 -8.90301 1.19627e-07
115 1 3.14385 3.1448 3.15446 -8.93806 1.60147e-07
116 1 4.71623 4.7172 4.74364 -8.90301 1.19703e-07
117 1 6.28868 3.14479 3.15436 -8.93807 1.60338e-07
118 1 7.86108 4.71718 4.7435 -8.90301 1.19781e-07
119 1 9.43355 3.14479 3.15428 -8.93808 1.60407e-07
120 1 11.006 4.71718 4.74344 -8.90301 1.19808e-07
121 1 12.5784 3.14479 3.15428 -8.93808 1.60302e-07
122 1 14.1509 4.71718 4.7435 -8.90301 1.19761e-07
123 1 15.7233 3.14479 3.15436 -8.93807 1.601e-07
124 1 17.2957 4.7172 4.74364 -8.90301 1.19672e-07
125 1 18.8681 3.1448 3.15446 -8.93806 1.59951e-07
126 1 20.4405 4.71721 4.74374 -8.90301 1.19612e-07
127 1 -0.000956284 6.28964 3.15442 -8.93806 1.59918e-07
128 1 1.57142 7.86206 4.74364 -8.90301 1.1959e-07
129 1 3.14384 6.28963 3.15436 -8.93807 1.60088e-07
130 1 4.71621 7.86205 4.7435 -8.90301 1.19663e-07
131 1 6.28867 6.28962 3.15424 -8.93808 1.60275e-07
132 1 7.86107 7.86204 4.74333 -8.90301 1.19741e-07
133 1 9.43354 6.28962 3.15413 -8.9381 1.60341e-07
134 1 11.006 7.86203 4.74325 -8.90302 1.19768e-07
135 1 12.5784 6.28962 3.15413 -8.9381 1.60239e-07
136 1 14.1509 7.86204 4.74333 -8.90301 1.19725e-07
137 1 15.7233 6.28962 3.15424 -8.93808 1.60042e-07
138 1 17.2957 7.86205 4.7435 -8.90301 1.19638e-07
139 1 18.8682 6.28963 3.15436 -8.93807 1.59897e-07
140 1 20.4405 7.86206 4.74364 -8.90301 1.19577e-07
141 1 -0.000956272 9.43451 3.15435 -8.93807 1.59878e-07
142 1 1.57141 11.007 4.74359 -8.90301 1.19576e-07
143 1 3.14383 9.43451 3.15428 -8.93808 1.60045e-07
144 1 4.71621 11.007 4.74344 -8.90301 1.19649e-07
145 1 6.28866 9.4345 3.15413 -8.9381 1.60229e-07
146 1 7.86106 11.007 4.74325 -8.90302 1.19726e-07
147 1 9.43354 9.4345 3.15401 -8.93812 1.60293e-07
148 1 11.006 11.007 4.74316 -8.90302 1.19753e-07
149 1 12.5784 9.4345 3.15401 -8.93812 1.60193e-07
150 1 14.1509 11.007 4.74325 -8.90302 1.19712e-07
151 1 15.7233 9.4345 3.15413 -8.9381 1.6e-07
152 1 17.2958 11.007 4.74344 -8.90301 1.19627e-07
153 1 18.8682 9.43451 3.15428 -8.93808 1.59858e-07
154 1 20.4405 11.007 4.74359 -8.90301 1.19565e-07
155 1 -0.000956272 12.5794 3.15435 -8.93807 1.59878e-07
156 1 1.57142 14.1518 4.74364 -8.90301 1.1959e-07
157 1 3.14383 12.5794 3.15428 -8.93808 1.60045e-07
158 1 4.71621 14.1518 4.7435 -8.90301 1.19663e-07
159 1 6.28866 12.5794 3.15413 -8.9381 1.60229e-07
160 1 7.86107 14.1519 4.74333 -8.90301 1.19741e-07
161 1 9.43354 12.5794 3.15401 -8.93812 1.60293e-07
162 1 11.006 14.1519 4.74325 -8.90302 1.19768e-07
163 1 12.5784 12.5794 3.15401 -8.93812 1.60193e-07
164 1 14.1509 14.1519 4.74333 -8.90301 1.19725e-07
165 1 15.7233 12.5794 3.15413 -8.9381 1.6e-07
166 1 17.2957 14.1518 4.7435 -8.90301 1.19638e-07
167 1 18.8682 12.5794 3.15428 -8.93808 1.59858e-07
168 1 20.4405 14.1518 4.74364 -8.90301 1.19577e-07
169 1 -0.000956284 15.7243 3.15442 -8.93806 1.59918e-07
170 1 1.57142 17.2967 4.74374 -8.90301 1.19627e-07
171 1 3.14384 15.7243 3.15436 -8.93807 1.60088e-07
172 1 4.71623 17.2967 4.74364 -8.90301 1.19703e-07
173 1 6.28867 15.7243 3.15424 -8.93808 1.60275e-07
174 1 7.86108 17.2967 4.7435 -8.90301 1.19781e-07
175 1 9.43354 15.7243 3.15413 -8.9381 1.60341e-07
176 1 11.006 17.2967 4.74344 -8.90301 1.19808e-07
177 1 12.5784 15.7243 3.15413 -8.9381 1.60239e-07
178 1 14.1509 17.2967 4.7435 -8.90301 1.19761e-07
179 1 15.7233 15.7243 3.15424 -8.93808 1.60042e-07
180 1 17.2957 17.2967 4.74364 -8.90301 1.19672e-07
181 1 18.8682 15.7243 3.15436 -8.93807 1.59897e-07
182 1 20.4405 17.2967 4.74374 -8.90301 1.19612e-07
183 1 -0.000956298 18.8691 3.15451 -8.93805 1.59973e-07
184 1 1.57143 20.4415 4.74383 -8.90301 1.19664e-07
185 1 3.14385 18.8691 3.15446 -8.93806 1.60147e-07
186 1 4.71624 20.4415 4.74374 -8.90301 1.19742e-07
187 1 6.28868 18.8691 3.15436 -8.93807 1.60338e-07
188 1 7.86109 20.4415 4.74364 -8.90301 1.19823e-07
189 1 9.43355 18.8691 3.15428 -8.93808 1.60407e-07
190 1 11.006 20.4415 4.74359 -8.90301 1.19849e-07
191 1 12.5784 18.8691 3.15428 -8.93808 1.60302e-07
192 1 14.1509 20.4415 4.74364 -8.90301 1.19799e-07
193 1 15.7233 18.8691 3.15436 -8.93807 1.601e-07
194 1 17.2957 20.4415 4.74374 -8.90301 1.19707e-07
195 1 18.8681 18.8691 3.15446 -8.93806 1.59951e-07
196 1 20.4405 20.4415 4.74383 -8.90301 1.19646e-07
197 1 -0.000992638 9.82899e-15 6.3056 -8.88811 7.31976e-08
198 1 1.57137 1.57238 7.87482 -8.90467 3.59509e-08
199 1 3.14379 4.88844e-15 6.30555 -8.88811 7.32443e-08
200 1 4.71616 1.57237 7.8747 -8.90467 3.60038e-08
201 1 6.28862 6.51176e-16 6.30544 -8.88812 7.33289e-08
202 1 7.86102 1.57235 7.87456 -8.90467 3.60684e-08
203 1 9.4335 -3.08837e-15 6.30534 -8.88812 7.33914e-08
204 1 11.0059 1.57235 7.87449 -8.90467 3.60985e-08
205 1 12.5784 -3.55858e-15 6.30534 -8.88812 7.33855e-08
206 1 14.1509 1.57235 7.87456 -8.90467 3.60675e-08
207 1 15.7233 2.11079e-16 6.30544 -8.88812 7.33115e-08
208 1 17.2957 1.57237 7.8747 -8.90467 3.59974e-08
209 1 18.8681 4.96051e-15 6.30555 -8.88811 7.32262e-08
210 1 20.4405 1.57238 7.87482 -8.90467 3.59461e-08
211 1 -0.00099263 3.14479 6.30555 -8.88811 7.31806e-08
212 1 1.57135 4.71717 7.8747 -8.90467 3.59246e-08
213 1 3.14379 3.14478 6.30549 -8.88811 7.32256e-08
214 1 4.71612 4.71714 7.87454 -8.90466 3.59756e-08
215 1 6.28861 3.14476 6.30535 -8.88812 7.33096e-08
216 1 7.86099 4.7171 7.87433 -8.90467 3.6043e-08
217 1 9.4335 3.14474 6.30524 -8.88812 7.33726e-08
218 1 11.0059 4.71708 7.87423 -8.90467 3.60759e-08
219 1 12.5784 3.14474 6.30524 -8.88812 7.33676e-08
220 1 14.1509 4.7171 7.87433 -8.90467 3.60458e-08
221 1 15.7233 3.14476 6.30535 -8.88812 7.32942e-08
222 1 17.2957 4.71714 7.87454 -8.90466 3.59735e-08
223 1 18.8681 3.14478 6.30549 -8.88811 7.3209e-08
224 1 20.4405 4.71717 7.8747 -8.90467 3.59214e-08
225 1 -0.000992607 6.28962 6.30544 -8.88812 7.3152e-08
226 1 1.57134 7.86203 7.87456 -8.90467 3.59067e-08
227 1 3.14376 6.2896 6.30535 -8.88812 7.31948e-08
228 1 4.71608 7.862 7.87433 -8.90467 3.59595e-08
229 1 6.28858 6.28957 6.30515 -8.88812 7.3278e-08
230 1 7.86095 7.86196 7.87401 -8.90469 3.60312e-08
231 1 9.43348 6.28955 6.30499 -8.88813 7.33415e-08
232 1 11.0059 7.86194 7.87386 -8.90471 3.60674e-08
233 1 12.5784 6.28955 6.30499 -8.88813 7.33389e-08
234 1 14.1509 7.86196 7.87401 -8.90469 3.60395e-08
235 1 15.7233 6.28957 6.30515 -8.88812 7.3268e-08
236 1 17.2958 7.862 7.87433 -8.90467 3.59638e-08
237 1 18.8682 6.2896 6.30535 -8.88812 7.31824e-08
238 1 20.4405 7.86203 7.87456 -8.90467 3.59059e-08
239 1 -0.000992585 9.4345 6.30534 -8.88812 7.31379e-08
240 1 1.57133 11.007 7.87449 -8.90467 3.59035e-08
241 1 3.14375 9.43449 6.30524 -8.88812 7.31804e-08
242 1 4.71606 11.007 7.87423 -8.90467 3.59588e-08
243 1 6.28856 9.43448 6.30499 -8.88813 7.32653e-08
244 1 7.86093 11.007 7.87386 -8.90471 3.60343e-08
245 1 9.43347 9.43447 6.30478 -8.88815 7.33296e-08
246 1 11.0059 11.007 7.87367 -8.90475 3.60719e-08
247 1 12.5784 9.43447 6.30478 -8.88815 7.3329e-08
248 1 14.1509 11.007 7.87386 -8.90471 3.60451e-08
249 1 15.7234 9.43448 6.30499 -8.88813 7.32598e-08
250 1 17.2958 11.007 7.87423 -8.90467 3.59661e-08
251 1 18.8682 9.43449 6.30524 -8.88812 7.31714e-08
252 1 20.4405 11.007 7.87449 -8.90467 3.59039e-08
253 1 -0.000992585 12.5794 6.30534 -8.88812 7.31379e-08
254 1 1.57134 14.1519 7.87456 -8.90467 3.59067e-08
255 1 3.14375 12.5794 6.30524 -8.88812 7.31804e-08
256 1 4.71608 14.1519 7.87433 -8.90467 3.59595e-08
257 1 6.28856 12.5794 6.30499 -8.88813 7.32653e-08
258 1 7.86095 14.1519 7.87401 -8.90469 3.60312e-08
259 1 9.43347 12.5794 6.30478 -8.88815 7.33296e-08
260 1 11.0059 14.152 7.87386 -8.90471 3.60674e-08
261 1 12.5784 12.5794 6.30478 -8.88815 7.3329e-08
262 1 14.1509 14.1519 7.87401 -8.90469 3.60395e-08
263 1 15.7234 12.5794 6.30499 -8.88813 7.32598e-08
264 1 17.2958 14.1519 7.87433 -8.90467 3.59638e-08
265 1 18.8682 12.5794 6.30524 -8.88812 7.31714e-08
266 1 20.4405 14.1519 7.87456 -8.90467 3.59059e-08
267 1 -0.000992607 15.7243 6.30544 -8.88812 7.3152e-08
268 1 1.57135 17.2967 7.8747 -8.90467 3.59246e-08
269 1 3.14376 15.7243 6.30535 -8.88812 7.31948e-08
270 1 4.71612 17.2968 7.87454 -8.90466 3.59756e-08
271 1 6.28858 15.7243 6.30515 -8.88812 7.3278e-08
272 1 7.86099 17.2968 7.87433 -8.90467 3.6043e-08
273 1 9.43348 15.7244 6.30499 -8.88813 7.33415e-08
274 1 11.0059 17.2968 7.87423 -8.90467 3.60759e-08
275 1 12.5784 15.7244 6.30499 -8.88813 7.33389e-08
276 1 14.1509 17.2968 7.87433 -8.90467 3.60458e-08
277 1 15.7233 15.7243 6.30515 -8.88812 7.3268e-08
278 1 17.2957 17.2968 7.87454 -8.90466 3.59735e-08
279 1 18.8682 15.7243 6.30535 -8.88812 7.31824e-08
280 1 20.4405 17.2967 7.8747 -8.90467 3.59214e-08
281 1 -0.00099263 18.8691 6.30555 -8.88811 7.31806e-08
282 1 1.57137 20.4415 7.87482 -8.90467 3.59509e-08
283 1 3.14379 18.8691 6.30549 -8.88811 7.32256e-08
284 1 4.71616 20.4415 7.8747 -8.90467 3.60038e-08
285 1 6.28861 18.8691 6.30535 -8.88812 7.33096e-08
286 1 7.86102 20.4415 7.87456 -8.90467 3.60684e-08
287 1 9.4335 18.8692 6.30524 -8.88812 7.33726e-08
288 1 11.0059 20.4416 7.87449 -8.90467 3.60985e-08
289 1 12.5784 18.8692 6.30524 -8.88812 7.33676e-08
290 1 14.1509 20.4415 7.87456 -8.90467 3.60675e-08
291 1 15.7233 18.8691 6.30535 -8.88812 7.32942e-08
292 1 17.2957 20.4415 7.8747 -8.90467 3.59974e-08
293 1 18.8681 18.8691 6.30549 -8.88811 7.3209e-08
294 1 20.4405 20.4415 7.87482 -8.90467 3.59461e-08
295 1 -0.00104117 -1.07569e-14 9.44319 -8.89866 9.47124e-09
296 1 1.57131 1.57237 11.0113 -8.9001 1.00428e-11
297 1 3.14372 -5.58652e-14 9.44312 -8.89865 9.4972e-09
298 1 4.71608 1.57234 11.0112 -8.90009 1.1567e-11
299 1 6.28854 -1.10849e-13 9.44296 -8.89865 9.53968e-09
300 1 7.86094 1.57231 11.011 -8.90009 7.41941e-12
301 1 9.43344 -1.42472e-13 9.44283 -8.89865 9.57055e-09
302 1 11.0059 1.57229 11.0109 -8.90009 5.26773e-12
303 1 12.5784 -1.44174e-13 9.44283 -8.89865 9.56545e-09
304 1 14.1508 1.57231 11.011 -8.90009 5.18304e-12
305 1 15.7233 -1.11249e-13 9.44296 -8.89865 9.524e-09
306 1 17.2957 1.57234 11.0112 -8.90009 3.33072e-12
307 1 18.8681 -5.98143e-14 9.44312 -8.89865 9.48027e-09
308 1 20.4405 1.57237 11.0113 -8.9001 4.47528e-12
309 1 -0.00104117 3.14476 9.44312 -8.89865 9.45659e-09
310 1 1.57128 4.71715 11.0112 -8.90009 6.05214e-12
311 1 3.1437 3.14474 9.44304 -8.89865 9.48119e-09
312 1 4.716 4.71707 11.0109 -8.90006 7.57412e-12
313 1 6.28851 3.14469 9.44283 -8.89864 9.52474e-09
314 1 7.86086 4.71696 11.0106 -8.90007 4.98801e-12
315 1 9.43343 3.14465 9.44265 -8.89865 9.55832e-09
316 1 11.0059 4.71692 11.0104 -8.90008 5.30445e-12
317 1 12.5784 3.14465 9.44265 -8.89865 9.55451e-09
318 1 14.1509 4.71696 11.0106 -8.90007 6.80329e-12
319 1 15.7233 3.14469 9.44283 -8.89864 9.51184e-09
320 1 17.2958 4.71707 11.0109 -8.90006 3.96322e-12
321 1 18.8681 3.14474 9.44304 -8.89865 9.4662e-09
322 1 20.4405 4.71715 11.0112 -8.90009 2.44525e-12
323 1 -0.00104115 6.28958 9.44296 -8.89865 9.43556e-09
324 1 1.57124 7.86201 11.011 -8.90009 2.90205e-12
325 1 3.14365 6.28955 9.44283 -8.89864 9.45842e-09
326 1 4.71589 7.86193 11.0106 -8.90007 4.04684e-12
327 1 6.28843 6.28947 9.44248 -8.89864 9.50413e-09
328 1 7.86074 7.8618 11.0099 -8.90011 4.07403e-12
329 1 9.43339 6.28941 9.44217 -8.89865 9.54387e-09
330 1 11.0059 7.86175 11.0096 -8.90015 8.10216e-12
331 1 12.5784 6.28941 9.44217 -8.89865 9.54292e-09
332 1 14.151 7.8618 11.0099 -8.90011 1.10652e-11
333 1 15.7234 6.28947 9.44248 -8.89864 9.49744e-09
334 1 17.2959 7.86193 11.0106 -8.90007 6.79142e-12
335 1 18.8682 6.28955 9.44283 -8.89864 9.44875e-09
336 1 20.4405 7.86201 11.011 -8.90009 2.0524e-12
337 1 -0.00104113 9.43448 9.44283 -8.89865 9.42863e-09
338 1 1.57122 11.007 11.0109 -8.90009 2.18149e-12
339 1 3.14361 9.43447 9.44265 -8.89865 9.45214e-09
340 1 4.71585 11.007 11.0104 -8.90008 3.19396e-12
341 1 6.28837 9.43443 9.44217 -8.89865 9.5045e-09
342 1 7.86068 11.007 11.0096 -8.90015 4.84578e-12
343 1 9.43335 9.43439 9.44171 -8.89872 9.55063e-09
344 1 11.0059 11.007 11.0091 -8.90037 1.06716e-11
345 1 12.5785 9.43439 9.44171 -8.89872 9.55077e-09
346 1 14.1511 11.007 11.0096 -8.90015 1.34203e-11
347 1 15.7234 9.43443 9.44217 -8.89865 9.5024e-09
348 1 17.2959 11.007 11.0104 -8.90008 8.57703e-12
349 1 18.8682 9.43447 9.44265 -8.89865 9.44702e-09
350 1 20.4405 11.007 11.0109 -8.90009 2.55029e-12
351 1 -0.00104113 12.5794 9.44283 -8.89865 9.42863e-09
352 1 1.57124 14.1519 11.011 -8.90009 2.9021e-12
353 1 3.14361 12.5794 9.44265 -8.89865 9.45215e-09
354 1 4.71589 14.152 11.0106 -8.90007 4.04696e-12
355 1 6.28837 12.5795 9.44217 -8.89865 9.50451e-09
356 1 7.86074 14.1521 11.0099 -8.90011 4.07344e-12
357 1 9.43335 12.5795 9.44171 -8.89872 9.55063e-09
358 1 11.0059 14.1522 11.0096 -8.90015 8.09683e-12
359 1 12.5785 12.5795 9.44171 -8.89872 9.55077e-09
360 1 14.151 14.1521 11.0099 -8.90011 1.10604e-11
361 1 15.7234 12.5795 9.44217 -8.89865 9.50239e-09
362 1 17.2959 14.152 11.0106 -8.90007 6.79123e-12
363 1 18.8682 12.5794 9.44265 -8.89865 9.44702e-09
364 1 20.4405 14.1519 11.011 -8.90009 2.05231e-12
365 1 -0.00104115 15.7243 9.44296 -8.89865 9.43556e-09
366 1 1.57128 17.2968 11.0112 -8.90009 6.05216e-12
367 1 3.14365 15.7243 9.44283 -8.89864 9.45842e-09
368 1 4.716 17.2968 11.0109 -8.90006 7.57381e-12
369 1 6.28843 15.7244 9.44248 -8.89864 9.50414e-09
370 1 7.86086 17.2969 11.0106 -8.90007 4.98801e-12
371 1 9.43339 15.7245 9.44217 -8.89865 9.54387e-09
372 1 11.0059 17.297 11.0104 -8.90008 5.30451e-12
373 1 12.5784 15.7245 9.44217 -8.89865 9.54291e-09
374 1 14.1509 17.2969 11.0106 -8.90007 6.80341e-12
375 1 15.7234 15.7244 9.44248 -8.89864 9.49743e-09
376 1 17.2958 17.2968 11.0109 -8.90006 3.96331e-12
377 1 18.8682 15.7243 9.44283 -8.89864 9.44875e-09
378 1 20.4405 17.2968 11.0112 -8.90009 2.4451e-12
379 1 -0.00104117 18.8691 9.44312 -8.89865 9.45659e-09
380 1 1.57131 20.4415 11.0113 -8.9001 1.00429e-11
381 1 3.1437 18.8692 9.44304 -8.89865 9.48119e-09
382 1 4.71608 20.4416 11.0112 -8.90009 1.15668e-11
383 1 6.28851 18.8692 9.44283 -8.89864 9.52474e-09
384 1 7.86094 20.4416 11.011 -8.90009 7.41917e-12
385 1 9.43343 18.8692 9.44265 -8.89865 9.55832e-09
386 1 11.0059 20.4416 11.0109 -8.90009 5.26773e-12
387 1 12.5784 18.8692 9.44265 -8.89865 9.5545e-09
388 1 14.1508 20.4416 11.011 -8.90009 5.18315e-12
389 1 15.7233 18.8692 9.44283 -8.89864 9.51183e-09
390 1 17.2957 20.4416 11.0112 -8.90009 3.33066e-12
391 1 18.8681 18.8692 9.44304 -8.89865 9.4662e-09
392 1 20.4405 20.4415 11.0113 -8.9001 4.4753e-12
393 1 -0.00109468 -1.2713e-13 12.5796 -8.89868 8.84507e-09
394 1 3.14368 4.18021e-14 12.5795 -8.89867 8.81985e-09
395 1 6.28849 4.26438e-13 12.5793 -8.89867 8.75959e-09
396 1 9.43339 6.84138e-13 12.5791 -8.89868 8.71087e-09
397 1 12.5783 6.81798e-13 12.5791 -8.89868 8.72412e-09
398 1 15.7232 4.25857e-13 12.5793 -8.89867 8.78488e-09
399 1 18.868 3.69649e-14 12.5795 -8.89867 8.8362e-09
400 1 22.0128 3.14478 12.5795 -8.89867 8.87695e-09
401 1 3.14365 3.14474 12.5794 -8.89866 8.85349e-09
402 1 6.28843 3.14464 12.5791 -8.89864 8.79157e-09
403 1 9.43335 3.14455 12.5788 -8.89865 8.73831e-09
404 1 12.5784 3.14455 12.5788 -8.89865 8.75397e-09
405 1 15.7233 3.14464 12.5791 -8.89864 8.82101e-09
406 1 18.8681 3.14474 12.5794 -8.89866 8.87052e-09
407 1 22.0128 6.28959 12.5793 -8.89867 8.92729e-09
408 1 3.14354 6.28952 12.5791 -8.89864 8.90329e-09
409 1 6.28824 6.28933 12.5785 -8.89854 8.83684e-09
410 1 9.43325 6.28917 12.5779 -8.8986 8.77849e-09
411 1 12.5785 6.28917 12.5779 -8.8986 8.80223e-09
412 1 15.7235 6.28933 12.5785 -8.89854 8.89486e-09
413 1 18.8682 6.28952 12.5791 -8.89864 8.92765e-09
414 1 22.0128 9.43448 12.5791 -8.89868 8.94903e-09
415 1 3.14346 9.43445 12.5788 -8.89865 8.91602e-09
416 1 6.28808 9.43434 12.5779 -8.8986 8.8283e-09
417 1 9.43311 9.43421 12.5768 -8.89878 8.76952e-09
418 1 12.5786 9.43421 12.5768 -8.89878 8.78454e-09
419 1 15.7236 9.43434 12.5779 -8.8986 8.90376e-09
420 1 18.8683 9.43445 12.5788 -8.89865 8.94723e-09
421 1 22.0128 12.5794 12.5791 -8.89868 8.94903e-09
422 1 3.14346 12.5795 12.5788 -8.89865 8.91603e-09
423 1 6.28808 12.5796 12.5779 -8.8986 8.82836e-09
424 1 9.43311 12.5797 12.5768 -8.89878 8.76959e-09
425 1 12.5786 12.5797 12.5768 -8.89878 8.78445e-09
426 1 15.7236 12.5796 12.5779 -8.8986 8.90369e-09
427 1 18.8683 12.5795 12.5788 -8.89865 8.94721e-09
428 1 22.0128 15.7243 12.5793 -8.89867 8.92729e-09
429 1 3.14354 15.7244 12.5791 -8.89864 8.90328e-09
430 1 6.28824 15.7246 12.5785 -8.89854 8.83696e-09
431 1 9.43325 15.7247 12.5779 -8.8986 8.77849e-09
432 1 12.5785 15.7247 12.5779 -8.8986 8.80221e-09
433 1 15.7235 15.7246 12.5785 -8.89854 8.89474e-09
434 1 18.8682 15.7244 12.5791 -8.89864 8.92766e-09
435 1 22.0128 18.8691 12.5795 -8.89867 8.87695e-09
436 1 3.14365 18.8692 12.5794 -8.89866 8.85347e-09
437 1 6.28843 18.8693 12.5791 -8.89864 8.79156e-09
438 1 9.43335 18.8693 12.5788 -8.89865 8.7383e-09
439 1 12.5784 18.8693 12.5788 -8.89865 8.75397e-09
440 1 15.7233 18.8693 12.5791 -8.89864 8.82101e-09
441 1 18.8681 18.8692 12.5794 -8.89866 8.87054e-09
442 1 1.57129 1.57241 14.1479 -8.9047 3.48042e-08
443 1 4.7161 1.57237 14.1478 -8.90468 3.47227e-08
444 1 7.86092 1.5723 14.1475 -8.9047 3.45942e-08
445 1 11.0058 1.57227 14.1474 -8.9047 3.45547e-08
446 1 14.1507 1.5723 14.1475 -8.9047 3.46554e-08
447 1 17.2956 1.57237 14.1478 -8.90468 3.47903e-08
448 1 20.4404 1.57241 14.1479 -8.9047 3.48316e-08
449 1 1.57125 4.71722 14.1478 -8.90468 3.49609e-08
450 1 4.71596 4.71708 14.1475 -8.90465 3.48861e-08
451 1 7.86076 4.71685 14.1469 -8.90465 3.47412e-08
452 1 11.0058 4.71676 14.1466 -8.90466 3.46973e-08
453 1 14.1509 4.71685 14.1469 -8.90465 3.48389e-08
454 1 17.2957 4.71708 14.1475 -8.90465 3.50015e-08
455 1 20.4404 4.71722 14.1478 -8.90468 3.49897e-08
456 1 1.57118 7.86204 14.1475 -8.9047 3.50811e-08
457 1 4.71573 7.86188 14.1469 -8.90465 3.49797e-08
458 1 7.86038 7.8615 14.1455 -8.9044 3.49456e-08
459 1 11.0058 7.86138 14.1447 -8.90466 3.47566e-08
460 1 14.1513 7.8615 14.1455 -8.9044 3.49045e-08
461 1 17.2959 7.86188 14.1469 -8.90465 3.51452e-08
462 1 20.4405 7.86204 14.1475 -8.9047 3.51215e-08
463 1 1.57115 11.007 14.1474 -8.9047 3.51086e-08
464 1 4.71564 11.007 14.1466 -8.90466 3.49787e-08
465 1 7.86026 11.007 14.1447 -8.90466 3.49184e-08
466 1 11.0058 11.007 14.1432 -8.90674 3.46754e-08
467 1 14.1514 11.007 14.1447 -8.90466 3.48214e-08
468 1 17.296 11.007 14.1466 -8.90466 3.51495e-08
469 1 20.4405 11.007 14.1474 -8.9047 3.51543e-08
470 1 1.57118 14.1519 14.1475 -8.9047 3.50812e-08
471 1 4.71573 14.152 14.1469 -8.90465 3.498e-08
472 1 7.86038 14.1524 14.1455 -8.9044 3.49454e-08
473 1 11.0058 14.1525 14.1447 -8.90466 3.47566e-08
474 1 14.1513 14.1524 14.1455 -8.9044 3.49047e-08
475 1 17.2959 14.152 14.1469 -8.90465 3.51448e-08
476 1 20.4405 14.1519 14.1475 -8.9047 3.51214e-08
477 1 1.57125 17.2967 14.1478 -8.90468 3.49608e-08
478 1 4.71596 17.2968 14.1475 -8.90465 3.48864e-08
479 1 7.86076 17.297 14.1469 -8.90465 3.47414e-08
480 1 11.0058 17.2971 14.1466 -8.90466 3.46972e-08
481 1 14.1509 17.297 14.1469 -8.90465 3.48387e-08
482 1 17.2957 17.2968 14.1475 -8.90465 3.50012e-08
483 1 20.4404 17.2967 14.1478 -8.90468 3.49897e-08
484 1 1.57129 20.4415 14.1479 -8.9047 3.48042e-08
485 1 4.7161 20.4415 14.1478 -8.90468 3.47227e-08
486 1 7.86092 20.4416 14.1475 -8.9047 3.45942e-08
487 1 11.0058 20.4416 14.1474 -8.9047 3.45547e-08
488 1 14.1507 20.4416 14.1475 -8.9047 3.46554e-08
489 1 17.2956 20.4415 14.1478 -8.90468 3.47903e-08
490 1 20.4404 20.4415 14.1479 -8.9047 3.48316e-08
491 1 22.0128 -1.70099e-13 15.7172 -8.88818 7.17684e-08
492 1 1.57139 1.57255 17.279 -8.90297 1.18228e-07
493 1 3.14378 4.26136e-13 15.7172 -8.88819 7.1693e-08
494 1 4.71638 1.5726 17.279 -8.90302 1.18105e-07
495 1 6.2886 9.40346e-13 15.7171 -8.88817 7.15608e-08
496 1 7.8611 1.57254 17.2788 -8.9031 1.17931e-07
497 1 9.4334 7.28092e-13 15.7169 -8.8882 7.14326e-08
498 1 11.0058 1.5725 17.2787 -8.90309 1.17844e-07
499 1 12.5782 7.2726e-13 15.7169 -8.8882 7.14642e-08
500 1 14.1505 1.57254 17.2788 -8.9031 1.17993e-07
501 1 15.723 9.44176e-13 15.7171 -8.88817 7.16301e-08
502 1 17.2952 1.5726 17.279 -8.90302 1.1816e-07
503 1 18.8678 4.30301e-13 15.7172 -8.88819 7.17429e-08
504 1 20.4402 1.57255 17.279 -8.90297 1.18244e-07
505 1 22.0128 3.14492 15.7172 -8.88819 7.19086e-08
506 1 1.57144 4.71755 17.279 -8.90302 1.18613e-07
507 1 3.14376 3.14491 15.7171 -8.88818 7.18329e-08
508 1 4.71648 4.71764 17.2789 -8.90324 1.18463e-07
509 1 6.28853 3.14478 15.7169 -8.88809 7.17118e-08
510 1 7.86094 4.71722 17.2782 -8.90292 1.18598e-07
511 1 9.43335 3.14464 15.7165 -8.88817 7.15864e-08
512 1 11.0058 4.71706 17.2777 -8.90284 1.18353e-07
513 1 12.5783 3.14464 15.7165 -8.88817 7.16302e-08
514 1 14.1506 4.71722 17.2782 -8.90292 1.18576e-07
515 1 15.7231 3.14478 15.7169 -8.88809 7.18409e-08
516 1 17.2951 4.71764 17.2789 -8.90324 1.18652e-07
517 1 18.8679 3.14491 15.7171 -8.88818 7.18873e-08
518 1 20.4401 4.71755 17.279 -8.90302 1.18645e-07
519 1 22.0128 6.28974 15.7171 -8.88817 7.22188e-08
520 1 1.57138 7.86227 17.2788 -8.9031 1.19017e-07
521 1 3.14364 6.28967 15.7169 -8.88809 7.21452e-08
522 1 4.71606 7.86211 17.2782 -8.90292 1.19532e-07
523 1 6.28821 6.28936 15.7161 -8.8877 7.23481e-08
524 1 7.85988 7.86105 17.2759 -8.90267 1.20767e-07
525 1 9.43313 6.28897 15.7149 -8.88787 7.20292e-08
526 1 11.0058 7.86102 17.2737 -8.90497 1.18738e-07
527 1 12.5785 6.28897 15.7149 -8.88787 7.19268e-08
528 1 14.1517 7.86105 17.2759 -8.90267 1.18482e-07
529 1 15.7234 6.28936 15.7161 -8.8877 7.22741e-08
530 1 17.2955 7.86211 17.2782 -8.90292 1.1902e-07
531 1 18.868 6.28967 15.7169 -8.88809 7.22961e-08
532 1 20.4402 7.86227 17.2788 -8.9031 1.19171e-07
533 1 22.0128 9.43454 15.7169 -8.8882 7.23901e-08
534 1 1.57134 11.007 17.2787 -8.90309 1.19134e-07
535 1 3.14349 9.4345 15.7165 -8.88817 7.22832e-08
536 1 4.7159 11.007 17.2777 -8.90284 1.1979e-07
537 1 6.28783 9.43427 15.7149 -8.88787 7.26735e-08
538 1 7.85985 11.007 17.2737 -8.90497 1.18857e-07
539 1 9.43254 9.43369 15.7118 -8.88714 7.21241e-08
540 1 11.0058 11.007 17.2662 -8.91709 1.2003e-07
541 1 12.5791 9.43369 15.7118 -8.88714 7.18004e-08
542 1 14.1517 11.007 17.2737 -8.90497 1.20057e-07
543 1 15.7238 9.43427 15.7149 -8.88787 7.21275e-08
544 1 17.2957 11.007 17.2777 -8.90284 1.18999e-07
545 1 18.8681 9.4345 15.7165 -8.88817 7.24826e-08
546 1 20.4402 11.007 17.2787 -8.90309 1.19352e-07
547 1 22.0128 12.5794 15.7169 -8.8882 7.23901e-08
548 1 1.57138 14.1516 17.2788 -8.9031 1.19018e-07
549 1 3.14349 12.5794 15.7165 -8.88817 7.22837e-08
550 1 4.71606 14.1518 17.2782 -8.90292 1.19527e-07
551 1 6.28783 12.5796 15.7149 -8.88787 7.26697e-08
552 1 7.85988 14.1529 17.2759 -8.90267 1.20749e-07
553 1 9.43254 12.5802 15.7118 -8.88714 7.21245e-08
554 1 11.0058 14.1529 17.2737 -8.90497 1.18738e-07
555 1 12.5791 12.5802 15.7118 -8.88714 7.18003e-08
556 1 14.1517 14.1529 17.2759 -8.90267 1.18499e-07
557 1 15.7238 12.5796 15.7149 -8.88787 7.21313e-08
558 1 17.2955 14.1518 17.2782 -8.90292 1.19025e-07
559 1 18.8681 12.5794 15.7165 -8.88817 7.24821e-08
560 1 20.4402 14.1516 17.2788 -8.9031 1.1917e-07
561 1 22.0128 15.7242 15.7171 -8.88817 7.22188e-08
562 1 1.57144 17.2964 17.279 -8.90302 1.18613e-07
563 1 3.14364 15.7242 15.7169 -8.88809 7.21459e-08
564 1 4.71648 17.2963 17.2789 -8.90324 1.18464e-07
565 1 6.28821 15.7245 15.7161 -8.8877 7.23471e-08
566 1 7.86094 17.2967 17.2782 -8.90292 1.18597e-07
567 1 9.43313 15.7249 15.7149 -8.88787 7.20287e-08
568 1 11.0058 17.2968 17.2777 -8.90284 1.18353e-07
569 1 12.5785 15.7249 15.7149 -8.88787 7.19273e-08
570 1 14.1506 17.2967 17.2782 -8.90292 1.18578e-07
571 1 15.7234 15.7245 15.7161 -8.8877 7.22751e-08
572 1 17.2951 17.2963 17.2789 -8.90324 1.18651e-07
573 1 18.868 15.7242 15.7169 -8.88809 7.22954e-08
574 1 20.4401 17.2964 17.279 -8.90302 1.18645e-07
575 1 22.0128 18.869 15.7172 -8.88819 7.19086e-08
576 1 1.57139 20.4413 17.279 -8.90297 1.18228e-07
577 1 3.14376 18.869 15.7171 -8.88818 7.18328e-08
578 1 4.71638 20.4413 17.279 -8.90302 1.18105e-07
579 1 6.28853 18.8691 15.7169 -8.88809 7.17121e-08
580 1 7.8611 20.4414 17.2788 -8.9031 1.17931e-07
581 1 9.43335 18.8693 15.7165 -8.88817 7.15864e-08
582 1 11.0058 20.4414 17.2787 -8.90309 1.17844e-07