ITEM: TIMESTEP
219
ITEM: NUMBER OF ATOMS
736
ITEM: BOX BOUNDS pp pp pp
0.0000000000000000e+00 2.2013900999999997e+01
0.0000000000000000e+00 2.2013900999999997e+01
0.0000000000000000e+00 5.3462330999999999e+01
ITEM: ATOMS id type x y z c_pot c_ke
1 1 -0.000687418 -4.72513e-16 0.0976256 -7.40188 1.62857e-07
2 1 1.57169 1.5724 1.62441 -8.68379 1.49916e-07
3 1 3.1441 -2.70937e-17 0.0975983 -7.40187 1.69366e-07
4 1 4.7165 1.57239 1.62434 -8.68379 1.53191e-07
5 1 6.28894 6.41785e-17 0.0975409 -7.40185 1.7406e-07
6 1 7.86136 1.57239 1.62426 -8.68378 1.54126e-07
7 1 9.43382 6.47872e-16 0.0974966 -7.40183 1.73501e-07
8 1 11.0062 1.57239 1.62423 -8.68378 1.52232e-07
9 1 12.5787 1.04411e-15 0.0974988 -7.40183 1.68098e-07
10 1 14.1511 1.57239 1.62427 -8.68378 1.48699e-07
11 1 15.7236 5.69502e-16 0.0975456 -7.40185 1.61828e-07
12 1 17.296 1.57239 1.62435 -8.68379 1.46078e-07
13 1 18.8684 -4.57584e-16 0.0976021 -7.40187 1.59465e-07
14 1 20.4408 1.5724 1.62441 -8.68379 1.46627e-07
15 1 -0.000687658 3.14479 0.0976003 -7.40187 1.61872e-07
16 1 1.57169 4.71721 1.62434 -8.68379 1.48002e-07
17 1 3.1441 3.14479 0.0975702 -7.40186 1.68355e-07
18 1 4.7165 4.7172 1.62426 -8.68378 1.51324e-07
19 1 6.28893 3.14478 0.0975065 -7.40184 1.731e-07
20 1 7.86135 4.7172 1.62416 -8.68377 1.52473e-07
21 1 9.43381 3.14477 0.0974571 -7.40182 1.7263e-07
22 1 11.0062 4.71719 1.62412 -8.68377 1.508e-07
23 1 12.5787 3.14477 0.0974593 -7.40182 1.67287e-07
24 1 14.1511 4.7172 1.62417 -8.68377 1.4733e-07
25 1 15.7236 3.14478 0.0975113 -7.40184 1.61003e-07
26 1 17.296 4.7172 1.62427 -8.68378 1.44563e-07
27 1 18.8684 3.14479 0.097574 -7.40186 1.58562e-07
28 1 20.4408 4.71721 1.62434 -8.68379 1.44869e-07
29 1 -0.000688197 6.28962 0.0975435 -7.40185 1.59724e-07
30 1 1.57168 7.86207 1.62426 -8.68378 1.45833e-07
31 1 3.14409 6.28962 0.0975072 -7.40184 1.66151e-07
32 1 4.71649 7.86206 1.62416 -8.68377 1.49212e-07
33 1 6.28892 6.28961 0.0974289 -7.40181 1.71009e-07
34 1 7.86134 7.86205 1.62404 -8.68377 1.50629e-07
35 1 9.43381 6.2896 0.0973675 -7.40178 1.70739e-07
36 1 11.0062 7.86205 1.62399 -8.68376 1.49237e-07
37 1 12.5787 6.2896 0.0973696 -7.40178 1.65532e-07
38 1 14.1511 7.86205 1.62405 -8.68377 1.45846e-07
39 1 15.7236 6.28961 0.0974336 -7.40181 1.59216e-07
40 1 17.296 7.86206 1.62417 -8.68377 1.42895e-07
41 1 18.8684 6.28962 0.097511 -7.40184 1.566e-07
42 1 20.4408 7.86207 1.62426 -8.68378 1.42896e-07
43 1 -0.000688628 9.4345 0.0974981 -7.40183 1.58068e-07
44 1 1.57168 11.007 1.62423 -8.68378 1.44944e-07
45 1 3.14409 9.4345 0.0974566 -7.40182 1.64449e-07
46 1 4.71648 11.007 1.62412 -8.68377 1.48349e-07
47 1 6.28891 9.43449 0.0973663 -7.40178 1.69399e-07
48 1 7.86134 11.007 1.62398 -8.68376 1.49887e-07
49 1 9.43381 9.43449 0.0972947 -7.40176 1.6929e-07
50 1 11.0062 11.007 1.62393 -8.68376 1.4862e-07
51 1 12.5787 9.43449 0.0972968 -7.40176 1.64191e-07
52 1 14.1511 11.007 1.62399 -8.68376 1.45265e-07
53 1 15.7236 9.43449 0.097371 -7.40178 1.5785e-07
54 1 17.296 11.007 1.62413 -8.68377 1.42232e-07
55 1 18.8684 9.4345 0.0974604 -7.40182 1.55093e-07
56 1 20.4408 11.007 1.62423 -8.68378 1.42096e-07
57 1 -0.000688628 12.5794 0.0974981 -7.40183 1.58068e-07
58 1 1.57168 14.1518 1.62426 -8.68378 1.45833e-07
59 1 3.14409 12.5794 0.0974566 -7.40182 1.64449e-07
60 1 4.71649 14.1518 1.62416 -8.68377 1.49212e-07
61 1 6.28891 12.5794 0.0973663 -7.40178 1.69399e-07
62 1 7.86134 14.1518 1.62404 -8.68377 1.50629e-07
63 1 9.43381 12.5794 0.0972947 -7.40176 1.6929e-07
64 1 11.0062 14.1519 1.62399 -8.68376 1.49237e-07
65 1 12.5787 12.5794 0.0972968 -7.40176 1.64191e-07
66 1 14.1511 14.1518 1.62405 -8.68377 1.45846e-07
67 1 15.7236 12.5794 0.097371 -7.40178 1.5785e-07
68 1 17.296 14.1518 1.62417 -8.68377 1.42895e-07
69 1 18.8684 12.5794 0.0974604 -7.40182 1.55093e-07
70 1 20.4408 14.1518 1.62426 -8.68378 1.42896e-07
71 1 -0.000688197 15.7243 0.0975435 -7.40185 1.59724e-07
72 1 1.57169 17.2967 1.62434 -8.68379 1.48002e-07
73 1 3.14409 15.7243 0.0975072 -7.40184 1.66151e-07
74 1 4.7165 17.2967 1.62426 -8.68378 1.51324e-07
75 1 6.28892 15.7243 0.0974289 -7.40181 1.71009e-07
76 1 7.86135 17.2967 1.62416 -8.68377 1.52473e-07
77 1 9.43381 15.7243 0.0973675 -7.40178 1.70739e-07
78 1 11.0062 17.2967 1.62412 -8.68377 1.508e-07
79 1 12.5787 15.7243 0.0973696 -7.40178 1.65532e-07
80 1 14.1511 17.2967 1.62417 -8.68377 1.4733e-07
81 1 15.7236 15.7243 0.0974336 -7.40181 1.59216e-07
82 1 17.296 17.2967 1.62427 -8.68378 1.44563e-07
83 1 18.8684 15.7243 0.097511 -7.40184 1.566e-07
84 1 20.4408 17.2967 1.62434 -8.68379 1.44869e-07
85 1 -0.000687658 18.8691 0.0976003 -7.40187 1.61872e-07
86 1 1.57169 20.4415 1.62441 -8.68379 1.49916e-07
87 1 3.1441 18.8691 0.0975702 -7.40186 1.68355e-07
88 1 4.7165 20.4415 1.62434 -8.68379 1.53191e-07
89 1 6.28893 18.8691 0.0975065 -7.40184 1.731e-07
90 1 7.86136 20.4415 1.62426 -8.68378 1.54126e-07
91 1 9.43381 18.8691 0.0974571 -7.40182 1.7263e-07
92 1 11.0062 20.4415 1.62423 -8.68378 1.52232e-07
93 1 12.5787 18.8691 0.0974593 -7.40182 1.67287e-07
94 1 14.1511 20.4415 1.62427 -8.68378 1.48699e-07
95 1 15.7236 18.8691 0.0975113 -7.40184 1.61003e-07
96 1 17.296 20.4415 1.62435 -8.68379 1.46078e-07
97 1 18.8684 18.8691 0.097574 -7.40186 1.58562e-07
98 1 20.4408 20.4415 1.62441 -8.68379 1.46627e-07
99 1 -0.000736435 5.7334e-16 3.15454 -8.93805 1.27614e-07
100 1 1.57162 1.5724 4.74382 -8.90301 9.83344e-08
101 1 3.14407 1.12671e-15 3.1545 -8.93805 1.29383e-07
102 1 4.71643 1.57239 4.74373 -8.90301 9.88809e-08
103 1 6.2889 8.23198e-16 3.15441 -8.93806 1.30246e-07
104 1 7.86128 1.57239 4.74363 -8.90301 9.88101e-08
105 1 9.43377 6.89208e-16 3.15434 -8.93807 1.29845e-07
106 1 11.0062 1.57238 4.74359 -8.90301 9.84119e-08
107 1 12.5787 6.54711e-16 3.15435 -8.93807 1.28472e-07
108 1 14.1511 1.57239 4.74364 -8.90301 9.77467e-08
109 1 15.7235 3.79289e-16 3.15442 -8.93806 1.26872e-07
110 1 17.2959 1.57239 4.74374 -8.90301 9.71851e-08
111 1 18.8684 3.32329e-16 3.1545 -8.93805 1.2639e-07
112 1 20.4407 1.5724 4.74382 -8.90301 9.74474e-08
113 1 -0.000736664 3.14481 3.1545 -8.93805 1.26618e-07
114 1 1.57161 4.71721 4.74374 -8.90301 9.66293e-08
115 1 3.14407 3.1448 3.15445 -8.93806 1.28357e-07
116 1 4.71642 4.7172 4.74363 -8.90301 9.72172e-08
117 1 6.2889 3.14479 3.15436 -8.93807 1.29293e-07
118 1 7.86127 4.71718 4.7435 -8.90301 9.73399e-08
119 1 9.43377 3.14479 3.15428 -8.93808 1.29016e-07
120 1 11.0062 4.71718 4.74344 -8.90301 9.71444e-08
121 1 12.5787 3.14479 3.15428 -8.93808 1.27724e-07
122 1 14.1511 4.71718 4.74351 -8.90301 9.65371e-08
123 1 15.7235 3.14479 3.15436 -8.93807 1.26101e-07
124 1 17.2959 4.7172 4.74364 -8.90301 9.58427e-08
125 1 18.8684 3.1448 3.15446 -8.93806 1.25507e-07
126 1 20.4407 4.71721 4.74374 -8.90301 9.58843e-08
127 1 -0.000737176 6.28964 3.15441 -8.93806 1.2456e-07
128 1 1.57161 7.86206 4.74364 -8.90301 9.47262e-08
129 1 3.14406 6.28963 3.15436 -8.93807 1.26227e-07
130 1 4.7164 7.86205 4.7435 -8.90301 9.5365e-08
131 1 6.28889 6.28962 3.15423 -8.93808 1.2733e-07
132 1 7.86126 7.86204 4.74333 -8.90301 9.57322e-08
133 1 9.43377 6.28962 3.15413 -8.9381 1.27334e-07
134 1 11.0062 7.86203 4.74325 -8.90302 9.57931e-08
135 1 12.5787 6.28962 3.15414 -8.9381 1.26227e-07
136 1 14.1511 7.86204 4.74333 -8.90301 9.52609e-08
137 1 15.7235 6.28962 3.15424 -8.93808 1.24551e-07
138 1 17.2959 7.86205 4.74351 -8.90301 9.44006e-08
139 1 18.8684 6.28963 3.15436 -8.93807 1.23706e-07
140 1 20.4407 7.86206 4.74364 -8.90301 9.41624e-08
141 1 -0.000737584 9.43451 3.15435 -8.93807 1.23087e-07
142 1 1.5716 11.007 4.74359 -8.90301 9.39587e-08
143 1 3.14405 9.43451 3.15428 -8.93808 1.24695e-07
144 1 4.7164 11.007 4.74344 -8.90301 9.46203e-08
145 1 6.28888 9.4345 3.15413 -8.9381 1.25933e-07
146 1 7.86125 11.007 4.74325 -8.90302 9.50975e-08
147 1 9.43376 9.4345 3.15401 -8.93812 1.26165e-07
148 1 11.0062 11.007 4.74316 -8.90302 9.52738e-08
149 1 12.5787 9.4345 3.15401 -8.93812 1.25209e-07
150 1 14.1511 11.007 4.74325 -8.90302 9.47755e-08
151 1 15.7235 9.4345 3.15414 -8.9381 1.23491e-07
152 1 17.2959 11.007 4.74345 -8.90301 9.38411e-08
153 1 18.8684 9.43451 3.15428 -8.93808 1.22443e-07
154 1 20.4407 11.007 4.74359 -8.90301 9.34768e-08
155 1 -0.000737584 12.5794 3.15435 -8.93807 1.23087e-07
156 1 1.57161 14.1518 4.74364 -8.90301 9.47262e-08
157 1 3.14405 12.5794 3.15428 -8.93808 1.24695e-07
158 1 4.7164 14.1518 4.7435 -8.90301 9.5365e-08
159 1 6.28888 12.5794 3.15413 -8.9381 1.25933e-07
160 1 7.86126 14.1519 4.74333 -8.90301 9.57322e-08
161 1 9.43376 12.5794 3.15401 -8.93812 1.26165e-07
162 1 11.0062 14.1519 4.74325 -8.90302 9.57931e-08
163 1 12.5787 12.5794 3.15401 -8.93812 1.25209e-07
164 1 14.1511 14.1519 4.74333 -8.90301 9.52609e-08
165 1 15.7235 12.5794 3.15414 -8.9381 1.23491e-07
166 1 17.2959 14.1518 4.74351 -8.90301 9.44006e-08
167 1 18.8684 12.5794 3.15428 -8.93808 1.22443e-07
168 1 20.4407 14.1518 4.74364 -8.90301 9.41624e-08
169 1 -0.000737176 15.7243 3.15441 -8.93806 1.2456e-07
170 1 1.57161 17.2967 4.74374 -8.90301 9.66293e-08
171 1 3.14406 15.7243 3.15436 -8.93807 1.26227e-07
172 1 4.71642 17.2967 4.74363 -8.90301 9.72172e-08
173 1 6.28889 15.7243 3.15423 -8.93808 1.2733e-07
174 1 7.86127 17.2967 4.7435 -8.90301 9.73399e-08
175 1 9.43377 15.7243 3.15413 -8.9381 1.27334e-07
176 1 11.0062 17.2967 4.74344 -8.90301 9.71444e-08
177 1 12.5787 15.7243 3.15414 -8.9381 1.26227e-07
178 1 14.1511 17.2967 4.74351 -8.90301 9.65371e-08
179 1 15.7235 15.7243 3.15424 -8.93808 1.24551e-07
180 1 17.2959 17.2967 4.74364 -8.90301 9.58427e-08
181 1 18.8684 15.7243 3.15436 -8.93807 1.23706e-07
182 1 20.4407 17.2967 4.74374 -8.90301 9.58843e-08
183 1 -0.000736664 18.8691 3.1545 -8.93805 1.26618e-07
184 1 1.57162 20.4415 4.74382 -8.90301 9.83344e-08
185 1 3.14407 18.8691 3.15445 -8.93806 1.28357e-07
186 1 4.71643 20.4415 4.74373 -8.90301 9.88809e-08
187 1 6.2889 18.8691 3.15436 -8.93807 1.29293e-07
188 1 7.86128 20.4415 4.74363 -8.90301 9.88101e-08
189 1 9.43377 18.8691 3.15428 -8.93808 1.29016e-07
190 1 11.0062 20.4415 4.74359 -8.90301 9.84119e-08
191 1 12.5787 18.8691 3.15428 -8.93808 1.27724e-07
192 1 14.1511 20.4415 4.74364 -8.90301 9.77467e-08
193 1 15.7235 18.8691 3.15436 -8.93807 1.26101e-07
194 1 17.2959 20.4415 4.74374 -8.90301 9.71851e-08
195 1 18.8684 18.8691 3.15446 -8.93806 1.25507e-07
196 1 20.4407 20.4415 4.74382 -8.90301 9.74474e-08
197 1 -0.000842133 6.35111e-16 6.30559 -8.88811 6.26579e-08
198 1 1.57147 1.57238 7.87481 -8.90467 3.32529e-08
199 1 3.14395 8.58965e-16 6.30554 -8.88811 6.34408e-08
200 1 4.71627 1.57237 7.87469 -8.90467 3.36541e-08
201 1 6.28877 5.51378e-16 6.30543 -8.88812 6.36528e-08
202 1 7.86113 1.57235 7.87455 -8.90467 3.35712e-08
203 1 9.43366 4.32615e-16 6.30534 -8.88812 6.34305e-08
204 1 11.006 1.57235 7.87449 -8.90467 3.33239e-08
205 1 12.5786 1.54584e-16 6.30534 -8.88812 6.29485e-08
206 1 14.151 1.57235 7.87456 -8.90467 3.28631e-08
207 1 15.7234 4.6161e-16 6.30543 -8.88812 6.22706e-08
208 1 17.2958 1.57237 7.8747 -8.90467 3.23821e-08
209 1 18.8683 3.78807e-16 6.30555 -8.88811 6.20326e-08
210 1 20.4406 1.57238 7.87481 -8.90467 3.25476e-08
211 1 -0.000842413 3.14479 6.30554 -8.88811 6.17748e-08
212 1 1.57146 4.71717 7.8747 -8.90467 3.18685e-08
213 1 3.14394 3.14478 6.30548 -8.88811 6.25262e-08
214 1 4.71623 4.71714 7.87453 -8.90466 3.23033e-08
215 1 6.28876 3.14476 6.30535 -8.88812 6.28081e-08
216 1 7.86109 4.7171 7.87432 -8.90467 3.24105e-08
217 1 9.43365 3.14474 6.30524 -8.88812 6.27057e-08
218 1 11.006 4.71708 7.87423 -8.90467 3.23706e-08
219 1 12.5786 3.14474 6.30524 -8.88812 6.23043e-08
220 1 14.151 4.7171 7.87433 -8.90467 3.19765e-08
221 1 15.7235 3.14476 6.30535 -8.88812 6.16047e-08
222 1 17.2959 4.71714 7.87454 -8.90466 3.13664e-08
223 1 18.8683 3.14478 6.30549 -8.88811 6.12593e-08
224 1 20.4406 4.71717 7.8747 -8.90467 3.13105e-08
225 1 -0.000843029 6.28962 6.30543 -8.88812 5.99729e-08
226 1 1.57144 7.86203 7.87455 -8.90467 3.03728e-08
227 1 3.14391 6.2896 6.30535 -8.88812 6.065e-08
228 1 4.71619 7.862 7.87432 -8.90467 3.08481e-08
229 1 6.28873 6.28957 6.30515 -8.88812 6.10892e-08
230 1 7.86105 7.86196 7.87401 -8.90469 3.11967e-08
231 1 9.43364 6.28955 6.30499 -8.88813 6.12598e-08
232 1 11.006 7.86194 7.87386 -8.90471 3.14213e-08
233 1 12.5786 6.28955 6.30499 -8.88813 6.10437e-08
234 1 14.151 7.86196 7.87401 -8.90469 3.11162e-08
235 1 15.7235 6.28957 6.30516 -8.88812 6.02984e-08
236 1 17.2959 7.862 7.87433 -8.90467 3.03469e-08
237 1 18.8683 6.2896 6.30535 -8.88812 5.97101e-08
238 1 20.4406 7.86203 7.87456 -8.90467 3.00065e-08
239 1 -0.000843511 9.4345 6.30534 -8.88812 5.87088e-08
240 1 1.57144 11.007 7.87449 -8.90467 2.9789e-08
241 1 3.1439 9.43449 6.30524 -8.88812 5.9324e-08
242 1 4.71617 11.007 7.87423 -8.90467 3.02826e-08
243 1 6.28871 9.43448 6.30499 -8.88813 5.98913e-08
244 1 7.86103 11.007 7.87386 -8.90471 3.07413e-08
245 1 9.43362 9.43447 6.30478 -8.88815 6.02846e-08
246 1 11.006 11.007 7.87368 -8.90475 3.10855e-08
247 1 12.5786 9.43447 6.30478 -8.88815 6.02199e-08
248 1 14.151 11.007 7.87386 -8.90471 3.08205e-08
249 1 15.7235 9.43448 6.305 -8.88813 5.94394e-08
250 1 17.2959 11.007 7.87423 -8.90467 2.99797e-08
251 1 18.8683 9.43449 6.30524 -8.88812 5.86538e-08
252 1 20.4406 11.007 7.87449 -8.90467 2.95102e-08
253 1 -0.000843511 12.5794 6.30534 -8.88812 5.87088e-08
254 1 1.57144 14.1519 7.87455 -8.90467 3.03728e-08
255 1 3.1439 12.5794 6.30524 -8.88812 5.9324e-08
256 1 4.71619 14.1519 7.87432 -8.90467 3.08481e-08
257 1 6.28871 12.5794 6.30499 -8.88813 5.98913e-08
258 1 7.86105 14.1519 7.87401 -8.90469 3.11967e-08
259 1 9.43362 12.5794 6.30478 -8.88815 6.02846e-08
260 1 11.006 14.152 7.87386 -8.90471 3.14213e-08
261 1 12.5786 12.5794 6.30478 -8.88815 6.02199e-08
262 1 14.151 14.1519 7.87401 -8.90469 3.11162e-08
263 1 15.7235 12.5794 6.305 -8.88813 5.94394e-08
264 1 17.2959 14.1519 7.87433 -8.90467 3.03469e-08
265 1 18.8683 12.5794 6.30524 -8.88812 5.86538e-08
266 1 20.4406 14.1519 7.87456 -8.90467 3.00065e-08
267 1 -0.000843029 15.7243 6.30543 -8.88812 5.99729e-08
268 1 1.57146 17.2967 7.8747 -8.90467 3.18685e-08
269 1 3.14391 15.7243 6.30535 -8.88812 6.065e-08
270 1 4.71623 17.2968 7.87453 -8.90466 3.23033e-08
271 1 6.28873 15.7243 6.30515 -8.88812 6.10892e-08
272 1 7.86109 17.2968 7.87432 -8.90467 3.24105e-08
273 1 9.43364 15.7244 6.30499 -8.88813 6.12598e-08
274 1 11.006 17.2968 7.87423 -8.90467 3.23706e-08
275 1 12.5786 15.7244 6.30499 -8.88813 6.10437e-08
276 1 14.151 17.2968 7.87433 -8.90467 3.19765e-08
277 1 15.7235 15.7243 6.30516 -8.88812 6.02984e-08
278 1 17.2959 17.2968 7.87454 -8.90466 3.13664e-08
279 1 18.8683 15.7243 6.30535 -8.88812 5.97101e-08
280 1 20.4406 17.2967 7.8747 -8.90467 3.13105e-08
281 1 -0.000842413 18.8691 6.30554 -8.88811 6.17748e-08
282 1 1.57147 20.4415 7.87481 -8.90467 3.32529e-08
283 1 3.14394 18.8691 6.30548 -8.88811 6.25262e-08
284 1 4.71627 20.4415 7.87469 -8.90467 3.36541e-08
285 1 6.28876 18.8691 6.30535 -8.88812 6.28081e-08
286 1 7.86113 20.4415 7.87455 -8.90467 3.35712e-08
287 1 9.43365 18.8692 6.30524 -8.88812 6.27057e-08
288 1 11.006 20.4416 7.87449 -8.90467 3.33239e-08
289 1 12.5786 18.8692 6.30524 -8.88812 6.23043e-08
290 1 14.151 20.4415 7.87456 -8.90467 3.28631e-08
291 1 15.7235 18.8691 6.30535 -8.88812 6.16047e-08
292 1 17.2958 20.4415 7.8747 -8.90467 3.23821e-08
293 1 18.8683 18.8691 6.30549 -8.88811 6.12593e-08
294 1 20.4406 20.4415 7.87481 -8.90467 3.25476e-08
295 1 -0.000984761 1.65839e-16 9.44319 -8.89866 1.06801e-08
296 1 1.57131 1.57237 11.0113 -8.9001 1.08371e-09
297 1 3.14378 -2.40432e-16 9.44312 -8.89865 1.1253e-08
298 1 4.71608 1.57234 11.0112 -8.90009 1.0512e-09
299 1 6.2886 -1.28553e-16 9.44296 -8.89865 1.12278e-08
300 1 7.86094 1.57231 11.011 -8.90009 5.98988e-10
301 1 9.4335 -5.21233e-17 9.44283 -8.89865 1.09475e-08
302 1 11.0059 1.57229 11.0109 -8.90009 4.00493e-10
303 1 12.5784 5.69197e-17 9.44283 -8.89865 1.06546e-08
304 1 14.1508 1.57231 11.011 -8.90009 3.39857e-10
305 1 15.7233 3.34392e-17 9.44296 -8.89865 1.02307e-08
306 1 17.2957 1.57234 11.0112 -8.90009 2.46724e-10
307 1 18.8682 1.00977e-16 9.44312 -8.89865 1.01141e-08
308 1 20.4405 1.57237 11.0113 -8.9001 5.54295e-10
309 1 -0.000985168 3.14476 9.44312 -8.89865 1.00903e-08
310 1 1.57128 4.71715 11.0112 -8.90009 5.37696e-10
311 1 3.14376 3.14474 9.44303 -8.89865 1.06238e-08
312 1 4.716 4.71707 11.0109 -8.90006 5.29417e-10
313 1 6.28857 3.14469 9.44282 -8.89864 1.06686e-08
314 1 7.86086 4.71696 11.0106 -8.90007 2.9242e-10
315 1 9.43348 3.14465 9.44265 -8.89865 1.05179e-08
316 1 11.0059 4.71692 11.0104 -8.90008 3.5452e-10
317 1 12.5785 3.14465 9.44265 -8.89865 1.03194e-08
318 1 14.1509 4.71696 11.0106 -8.90007 4.03489e-10
319 1 15.7234 3.14469 9.44283 -8.89864 9.87889e-09
320 1 17.2958 4.71707 11.0109 -8.90006 1.69265e-10
321 1 18.8682 3.14474 9.44303 -8.89865 9.64626e-09
322 1 20.4405 4.71715 11.0112 -8.90009 2.00158e-10
323 1 -0.000986036 6.28958 9.44296 -8.89865 8.96914e-09
324 1 1.57124 7.86201 11.011 -8.90009 1.26149e-10
325 1 3.14371 6.28955 9.44282 -8.89864 9.40634e-09
326 1 4.7159 7.86193 11.0106 -8.90007 1.40844e-10
327 1 6.28849 6.28947 9.44248 -8.89864 9.60686e-09
328 1 7.86074 7.8618 11.0099 -8.90011 1.79943e-10
329 1 9.43344 6.28941 9.44218 -8.89865 9.75389e-09
330 1 11.0059 7.86175 11.0096 -8.90015 5.79382e-10
331 1 12.5785 6.28941 9.44218 -8.89865 9.77579e-09
332 1 14.151 7.8618 11.0099 -8.90011 7.71181e-10
333 1 15.7234 6.28947 9.44248 -8.89864 9.30316e-09
334 1 17.2959 7.86193 11.0106 -8.90007 3.6362e-10
335 1 18.8682 6.28955 9.44283 -8.89864 8.80986e-09
336 1 20.4405 7.86201 11.011 -8.90009 4.15201e-11
337 1 -0.000986694 9.43448 9.44283 -8.89865 8.27081e-09
338 1 1.57123 11.007 11.0109 -8.90009 3.88328e-11
339 1 3.14367 9.43447 9.44265 -8.89865 8.62593e-09
340 1 4.71585 11.007 11.0104 -8.90008 6.24089e-11
341 1 6.28842 9.43443 9.44217 -8.89865 8.95486e-09
342 1 7.86069 11.007 11.0096 -8.90015 2.28371e-10
343 1 9.43341 9.43439 9.44172 -8.89872 9.3482e-09
344 1 11.0059 11.007 11.0091 -8.90037 7.80279e-10
345 1 12.5785 9.43439 9.44172 -8.89872 9.54997e-09
346 1 14.1511 11.007 11.0096 -8.90015 1.03289e-09
347 1 15.7235 9.43443 9.44218 -8.89865 9.05412e-09
348 1 17.2959 11.007 11.0104 -8.90008 5.49875e-10
349 1 18.8683 9.43447 9.44265 -8.89865 8.34791e-09
350 1 20.4405 11.007 11.0109 -8.90009 6.99348e-11
351 1 -0.000986694 12.5794 9.44283 -8.89865 8.27081e-09
352 1 1.57124 14.1519 11.011 -8.90009 1.26149e-10
353 1 3.14367 12.5794 9.44265 -8.89865 8.62593e-09
354 1 4.7159 14.152 11.0106 -8.90007 1.40844e-10
355 1 6.28842 12.5795 9.44217 -8.89865 8.95486e-09
356 1 7.86074 14.1521 11.0099 -8.90011 1.79943e-10
357 1 9.43341 12.5795 9.44172 -8.89872 9.3482e-09
358 1 11.0059 14.1521 11.0096 -8.90015 5.79382e-10
359 1 12.5785 12.5795 9.44172 -8.89872 9.54997e-09
360 1 14.151 14.1521 11.0099 -8.90011 7.71181e-10
361 1 15.7235 12.5795 9.44218 -8.89865 9.05412e-09
362 1 17.2959 14.152 11.0106 -8.90007 3.6362e-10
363 1 18.8683 12.5794 9.44265 -8.89865 8.34791e-09
364 1 20.4405 14.1519 11.011 -8.90009 4.15201e-11
365 1 -0.000986036 15.7243 9.44296 -8.89865 8.96914e-09
366 1 1.57128 17.2968 11.0112 -8.90009 5.37696e-10
367 1 3.14371 15.7243 9.44282 -8.89864 9.40634e-09
368 1 4.716 17.2968 11.0109 -8.90006 5.29417e-10
369 1 6.28849 15.7244 9.44248 -8.89864 9.60686e-09
370 1 7.86086 17.2969 11.0106 -8.90007 2.9242e-10
371 1 9.43344 15.7245 9.44218 -8.89865 9.75389e-09
372 1 11.0059 17.297 11.0104 -8.90008 3.5452e-10
373 1 12.5785 15.7245 9.44218 -8.89865 9.77579e-09
374 1 14.1509 17.2969 11.0106 -8.90007 4.03489e-10
375 1 15.7234 15.7244 9.44248 -8.89864 9.30316e-09
376 1 17.2958 17.2968 11.0109 -8.90006 1.69265e-10
377 1 18.8682 15.7243 9.44283 -8.89864 8.80986e-09
378 1 20.4405 17.2968 11.0112 -8.90009 2.00158e-10
379 1 -0.000985168 18.8691 9.44312 -8.89865 1.00903e-08
380 1 1.57131 20.4415 11.0113 -8.9001 1.08371e-09
381 1 3.14376 18.8692 9.44303 -8.89865 1.06238e-08
382 1 4.71608 20.4416 11.0112 -8.90009 1.0512e-09
383 1 6.28857 18.8692 9.44282 -8.89864 1.06686e-08
384 1 7.86094 20.4416 11.011 -8.90009 5.98988e-10
385 1 9.43348 18.8692 9.44265 -8.89865 1.05179e-08
386 1 11.0059 20.4416 11.0109 -8.90009 4.00493e-10
387 1 12.5785 18.8692 9.44265 -8.89865 1.03194e-08
388 1 14.1508 20.4416 11.011 -8.90009 3.39857e-10
389 1 15.7234 18.8692 9.44283 -8.89864 9.87889e-09
390 1 17.2957 20.4416 11.0112 -8.90009 2.46724e-10
391 1 18.8682 18.8692 9.44303 -8.89865 9.64626e-09
392 1 20.4405 20.4415 11.0113 -8.9001 5.54295e-10
393 1 -0.0011435 4.44732e-17 12.5796 -8.89868 5.62896e-09
394 1 3.14364 -6.5453e-16 12.5795 -8.89867 5.56999e-09
395 1 6.28845 -3.59817e-16 12.5793 -8.89867 4.71977e-09
396 1 9.43334 -1.12094e-16 12.5791 -8.89868 4.1314e-09
397 1 12.5783 -2.42691e-17 12.5791 -8.89868 4.33678e-09
398 1 15.7232 6.10087e-16 12.5793 -8.89867 4.73006e-09
399 1 18.868 1.9297e-16 12.5795 -8.89867 5.1279e-09
400 1 22.0128 3.14478 12.5795 -8.89867 5.75102e-09
401 1 3.1436 3.14474 12.5794 -8.89866 5.63242e-09
402 1 6.28838 3.14464 12.5791 -8.89864 4.86423e-09
403 1 9.4333 3.14455 12.5788 -8.89865 4.4397e-09
404 1 12.5783 3.14455 12.5788 -8.89865 4.78733e-09
405 1 15.7232 3.14464 12.5791 -8.89864 5.18214e-09
406 1 18.868 3.14474 12.5794 -8.89866 5.42482e-09
407 1 22.0128 6.28959 12.5793 -8.89867 6.2701e-09
408 1 3.14349 6.28952 12.5791 -8.89864 6.00587e-09
409 1 6.28819 6.28933 12.5785 -8.89854 5.42669e-09
410 1 9.4332 6.28917 12.5779 -8.8986 5.38278e-09
411 1 12.5784 6.28918 12.5779 -8.8986 6.06601e-09
412 1 15.7234 6.28933 12.5785 -8.89854 6.47458e-09
413 1 18.8681 6.28952 12.5791 -8.89864 6.35093e-09
414 1 22.0128 9.43448 12.5791 -8.89868 6.93e-09
415 1 3.14341 9.43445 12.5788 -8.89865 6.53468e-09
416 1 6.28803 9.43434 12.5779 -8.8986 6.09703e-09
417 1 9.43306 9.43421 12.5768 -8.89878 6.37579e-09
418 1 12.5785 9.43421 12.5768 -8.89878 7.31796e-09
419 1 15.7236 9.43434 12.5779 -8.8986 7.73594e-09
420 1 18.8682 9.43445 12.5788 -8.89865 7.33889e-09
421 1 22.0128 12.5794 12.5791 -8.89868 6.93e-09
422 1 3.14341 12.5795 12.5788 -8.89865 6.53468e-09
423 1 6.28803 12.5796 12.5779 -8.8986 6.09703e-09
424 1 9.43306 12.5797 12.5768 -8.89878 6.37579e-09
425 1 12.5785 12.5797 12.5768 -8.89878 7.31796e-09
426 1 15.7236 12.5796 12.5779 -8.8986 7.73594e-09
427 1 18.8682 12.5795 12.5788 -8.89865 7.33889e-09
428 1 22.0128 15.7243 12.5793 -8.89867 6.2701e-09
429 1 3.14349 15.7244 12.5791 -8.89864 6.00587e-09
430 1 6.28819 15.7246 12.5785 -8.89854 5.42669e-09
431 1 9.4332 15.7247 12.5779 -8.8986 5.38278e-09
432 1 12.5784 15.7247 12.5779 -8.8986 6.06601e-09
433 1 15.7234 15.7246 12.5785 -8.89854 6.47458e-09
434 1 18.8681 15.7244 12.5791 -8.89864 6.35093e-09
435 1 22.0128 18.8691 12.5795 -8.89867 5.75102e-09
436 1 3.1436 18.8692 12.5794 -8.89866 5.63242e-09
437 1 6.28838 18.8693 12.5791 -8.89864 4.86423e-09
438 1 9.4333 18.8693 12.5788 -8.89865 4.4397e-09
439 1 12.5783 18.8693 12.5788 -8.89865 4.78733e-09
440 1 15.7232 18.8693 12.5791 -8.89864 5.18214e-09
441 1 18.868 18.8692 12.5794 -8.89866 5.42482e-09
442 1 1.57119 1.57241 14.1479 -8.9047 2.46713e-08
443 1 4.716 1.57237 14.1478 -8.90468 2.36027e-08
444 1 7.86082 1.5723 14.1475 -8.9047 2.2315e-08
445 1 11.0057 1.57227 14.1474 -8.9047 2.23041e-08
446 1 14.1506 1.5723 14.1475 -8.9047 2.32604e-08
447 1 17.2955 1.57237 14.1478 -8.90468 2.4093e-08
448 1 20.4403 1.57242 14.1479 -8.9047 2.46431e-08
449 1 1.57115 4.71722 14.1478 -8.90468 2.59324e-08
450 1 4.71586 4.71708 14.1475 -8.90465 2.49158e-08
451 1 7.86066 4.71685 14.1469 -8.90465 2.39167e-08
452 1 11.0057 4.71676 14.1466 -8.90466 2.4284e-08
453 1 14.1508 4.71685 14.1469 -8.90465 2.54709e-08
454 1 17.2956 4.71708 14.1475 -8.90465 2.61221e-08
455 1 20.4403 4.71722 14.1478 -8.90468 2.62018e-08
456 1 1.57108 7.86204 14.1475 -8.9047 2.78375e-08
457 1 4.71563 7.86188 14.1469 -8.90465 2.68547e-08
458 1 7.86028 7.8615 14.1455 -8.9044 2.62677e-08
459 1 11.0057 7.86138 14.1447 -8.90466 2.71243e-08
460 1 14.1512 7.8615 14.1455 -8.9044 2.86325e-08
461 1 17.2958 7.86188 14.1469 -8.90465 2.89798e-08
462 1 20.4404 7.86204 14.1475 -8.9047 2.84955e-08
463 1 1.57105 11.007 14.1474 -8.9047 2.88025e-08
464 1 4.71554 11.007 14.1466 -8.90466 2.78166e-08
465 1 7.86015 11.007 14.1447 -8.90466 2.73821e-08
466 1 11.0057 11.007 14.1432 -8.90674 2.84558e-08
467 1 14.1513 11.007 14.1447 -8.90466 3.00768e-08
468 1 17.2959 11.007 14.1466 -8.90466 3.03504e-08
469 1 20.4404 11.007 14.1474 -8.9047 2.96367e-08
470 1 1.57108 14.1519 14.1475 -8.9047 2.78375e-08
471 1 4.71563 14.152 14.1469 -8.90465 2.68547e-08
472 1 7.86028 14.1524 14.1455 -8.9044 2.62677e-08
473 1 11.0057 14.1525 14.1447 -8.90466 2.71243e-08
474 1 14.1512 14.1524 14.1455 -8.9044 2.86325e-08
475 1 17.2958 14.152 14.1469 -8.90465 2.89798e-08
476 1 20.4404 14.1519 14.1475 -8.9047 2.84955e-08
477 1 1.57115 17.2967 14.1478 -8.90468 2.59324e-08
478 1 4.71586 17.2968 14.1475 -8.90465 2.49158e-08
479 1 7.86066 17.297 14.1469 -8.90465 2.39167e-08
480 1 11.0057 17.2971 14.1466 -8.90466 2.4284e-08
481 1 14.1508 17.297 14.1469 -8.90465 2.54709e-08
482 1 17.2956 17.2968 14.1475 -8.90465 2.61221e-08
483 1 20.4403 17.2967 14.1478 -8.90468 2.62018e-08
484 1 1.57119 20.4415 14.1479 -8.9047 2.46713e-08
485 1 4.716 20.4415 14.1478 -8.90468 2.36027e-08
486 1 7.86082 20.4416 14.1475 -8.9047 2.2315e-08
487 1 11.0057 20.4416 14.1474 -8.9047 2.23041e-08
488 1 14.1506 20.4416 14.1475 -8.9047 2.32604e-08
489 1 17.2955 20.4415 14.1478 -8.90468 2.4093e-08
490 1 20.4403 20.4415 14.1479 -8.9047 2.46431e-08
491 1 22.0126 -1.0676e-16 15.7172 -8.88818 5.32488e-08
492 1 1.5712 1.57255 17.279 -8.90297 9.1186e-08
493 1 3.14363 -5.37947e-16 15.7172 -8.88819 5.26654e-08
494 1 4.7162 1.5726 17.279 -8.90303 8.99597e-08
495 1 6.28845 -4.76122e-16 15.7171 -8.88817 5.09708e-08
496 1 7.86092 1.57254 17.2788 -8.9031 8.8266e-08
497 1 9.43325 -4.12546e-16 15.7169 -8.8882 4.99912e-08
498 1 11.0056 1.5725 17.2787 -8.90309 8.81566e-08
499 1 12.5781 2.83745e-16 15.7169 -8.8882 5.06971e-08
500 1 14.1503 1.57254 17.2788 -8.9031 8.93853e-08
501 1 15.7229 1.17569e-15 15.7171 -8.88817 5.18854e-08
502 1 17.295 1.5726 17.279 -8.90302 9.03266e-08
503 1 18.8677 3.80261e-16 15.7172 -8.88819 5.27267e-08
504 1 20.44 1.57255 17.279 -8.90297 9.09893e-08
505 1 22.0126 3.14492 15.7172 -8.88819 5.46295e-08
506 1 1.57125 4.71755 17.279 -8.90302 9.52294e-08
507 1 3.14362 3.14491 15.7171 -8.88818 5.39726e-08
508 1 4.71629 4.71764 17.2789 -8.90324 9.42071e-08
509 1 6.28839 3.14478 15.7169 -8.88809 5.24553e-08
510 1 7.86076 4.71722 17.2782 -8.90292 9.32202e-08
511 1 9.43321 3.14464 15.7165 -8.88817 5.17121e-08
512 1 11.0056 4.71706 17.2777 -8.90284 9.36486e-08
513 1 12.5781 3.14464 15.7165 -8.88817 5.2647e-08
514 1 14.1504 4.71722 17.2782 -8.90292 9.53177e-08
515 1 15.7229 3.14478 15.7169 -8.88809 5.38539e-08
516 1 17.2949 4.71764 17.2789 -8.90324 9.55747e-08
517 1 18.8677 3.14491 15.7171 -8.88818 5.43809e-08
518 1 20.4399 4.71755 17.279 -8.90302 9.5447e-08
519 1 22.0126 6.28974 15.7171 -8.88817 5.81399e-08
520 1 1.57118 7.86227 17.2788 -8.9031 1.0086e-07
521 1 3.14349 6.28967 15.7169 -8.88809 5.73401e-08
522 1 4.71587 7.86211 17.2782 -8.90292 1.00282e-07
523 1 6.28807 6.28936 15.7161 -8.8877 5.628e-08
524 1 7.85969 7.86105 17.2759 -8.90267 1.00224e-07
525 1 9.43298 6.28897 15.7149 -8.88787 5.60671e-08
526 1 11.0056 7.86102 17.2737 -8.90497 1.01497e-07
527 1 12.5783 6.28897 15.7149 -8.88787 5.75818e-08
528 1 14.1515 7.86105 17.2759 -8.90267 1.04025e-07
529 1 15.7233 6.28936 15.7161 -8.8877 5.89555e-08
530 1 17.2953 7.86211 17.2782 -8.90292 1.03198e-07
531 1 18.8678 6.28967 15.7169 -8.88809 5.862e-08
532 1 20.44 7.86227 17.2788 -8.9031 1.01668e-07
533 1 22.0126 9.43454 15.7169 -8.8882 6.1286e-08
534 1 1.57114 11.007 17.2787 -8.90309 1.03532e-07
535 1 3.14335 9.4345 15.7165 -8.88817 6.03265e-08
536 1 4.7157 11.007 17.2777 -8.90284 1.03056e-07
537 1 6.28768 9.43427 15.7149 -8.88787 5.95207e-08
538 1 7.85966 11.007 17.2737 -8.90497 1.03287e-07
539 1 9.43239 9.43369 15.7118 -8.88714 5.98332e-08
540 1 11.0056 11.007 17.2662 -8.91709 1.05425e-07
541 1 12.5789 9.43369 15.7118 -8.88714 6.17404e-08
542 1 14.1515 11.007 17.2737 -8.90497 1.07485e-07
543 1 15.7236 9.43427 15.7149 -8.88788 6.31371e-08
544 1 17.2955 11.007 17.2777 -8.90284 1.06628e-07
545 1 18.868 9.4345 15.7165 -8.88817 6.23251e-08
546 1 20.44 11.007 17.2787 -8.90309 1.04614e-07
547 1 22.0126 12.5794 15.7169 -8.8882 6.1286e-08
548 1 1.57118 14.1516 17.2788 -8.9031 1.0086e-07
549 1 3.14335 12.5794 15.7165 -8.88817 6.03265e-08
550 1 4.71587 14.1518 17.2782 -8.90292 1.00282e-07
551 1 6.28768 12.5796 15.7149 -8.88787 5.95207e-08
552 1 7.85969 14.1529 17.2759 -8.90267 1.00224e-07
553 1 9.43239 12.5802 15.7118 -8.88714 5.98332e-08
554 1 11.0056 14.1529 17.2737 -8.90497 1.01497e-07
555 1 12.5789 12.5802 15.7118 -8.88714 6.17404e-08
556 1 14.1515 14.1529 17.2759 -8.90267 1.04025e-07
557 1 15.7236 12.5796 15.7149 -8.88788 6.31371e-08
558 1 17.2953 14.1518 17.2782 -8.90292 1.03198e-07
559 1 18.868 12.5794 15.7165 -8.88817 6.23251e-08
560 1 20.44 14.1516 17.2788 -8.9031 1.01668e-07
561 1 22.0126 15.7242 15.7171 -8.88817 5.81399e-08
562 1 1.57125 17.2964 17.279 -8.90302 9.52294e-08
563 1 3.14349 15.7242 15.7169 -8.88809 5.73401e-08
564 1 4.71629 17.2963 17.2789 -8.90324 9.42071e-08
565 1 6.28807 15.7245 15.7161 -8.8877 5.628e-08
566 1 7.86076 17.2967 17.2782 -8.90292 9.32202e-08
567 1 9.43298 15.7249 15.7149 -8.88787 5.60671e-08
568 1 11.0056 17.2968 17.2777 -8.90284 9.36486e-08
569 1 12.5783 15.7249 15.7149 -8.88787 5.75818e-08
570 1 14.1504 17.2967 17.2782 -8.90292 9.53177e-08
571 1 15.7233 15.7245 15.7161 -8.8877 5.89555e-08
572 1 17.2949 17.2963 17.2789 -8.90324 9.55747e-08
573 1 18.8678 15.7242 15.7169 -8.88809 5.862e-08
574 1 20.4399 17.2964 17.279 -8.90302 9.5447e-08
575 1 22.0126 18.869 15.7172 -8.88819 5.46295e-08
576 1 1.5712 20.4413 17.279 -8.90297 9.1186e-08
577 1 3.14362 18.869 15.7171 -8.88818 5.39726e-08
578 1 4.7162 20.4413 17.279 -8.90303 8.99597e-08
579 1 6.28839 18.8691 15.7169 -8.88809 5.24553e-08
580 1 7.86092 20.4414 17.2788 -8.9031 8.8266e-08
581 1 9.43321 18.8693 15.7165 -8.88817 5.17121e-08
582 1 11.0056 20.4414 17.2787 -8.90309 8.81566e-08
583 1 12.5781 18.8693 15.7165 -8.88817 5.2647e-08
584 1 14.1503 20.4414 17.2788 -8.9031 8.93853e-08