ITEM: TIMESTEP
76
ITEM: NUMBER OF ATOMS
736
ITEM: BOX BOUNDS pp pp pp
0.0000000000000000e+00 2.2013900999999997e+01
0.0000000000000000e+00 2.2013900999999997e+01
0.0000000000000000e+00 5.3462330999999999e+01
ITEM: ATOMS id type x y z c_pot c_ke
1 1 3.46666e-05 1.16562e-15 0.0936765 -7.40176 0.000162304
2 1 1.57247 1.57243 1.62054 -8.68385 0.000145109
3 1 3.1449 1.67964e-15 0.0937076 -7.40177 0.00016326
4 1 4.71732 1.57244 1.62059 -8.68385 0.000146087
5 1 6.28973 22.0139 0.093745 -7.40179 0.000163575
6 1 7.86214 1.57244 1.62064 -8.68385 0.000145841
7 1 9.43454 22.0139 0.0937605 -7.40179 0.000163018
8 1 11.007 1.57244 1.62063 -8.68385 0.000144574
9 1 12.5794 22.0139 0.0937427 -7.40179 0.000162016
10 1 14.1518 1.57243 1.62059 -8.68385 0.000143246
11 1 15.7242 1.231e-15 0.0937047 -7.40177 0.000161316
12 1 17.2966 1.57243 1.62054 -8.68385 0.000142835
13 1 18.8691 22.0139 0.0936753 -7.40176 0.000161438
14 1 20.4415 1.57243 1.62051 -8.68384 0.000143654
15 1 3.57287e-05 3.14487 0.0936894 -7.40177 0.000162201
16 1 1.57247 4.71729 1.62057 -8.68385 0.000144925
17 1 3.1449 3.14487 0.0937224 -7.40178 0.000163232
18 1 4.71732 4.7173 1.62064 -8.68385 0.000146155
19 1 6.28973 3.14487 0.093762 -7.40179 0.000163561
20 1 7.86214 4.7173 1.62068 -8.68386 0.000145947
21 1 9.43454 3.14487 0.0937784 -7.4018 0.000162942
22 1 11.0069 4.7173 1.62068 -8.68386 0.000144439
23 1 12.5794 3.14487 0.0937593 -7.40179 0.000161847
24 1 14.1518 4.71729 1.62063 -8.68385 0.000142785
25 1 15.7242 3.14487 0.0937191 -7.40178 0.000161099
26 1 17.2966 4.71729 1.62057 -8.68385 0.000142243
27 1 18.8691 3.14487 0.0936879 -7.40176 0.000161254
28 1 20.4415 4.71729 1.62055 -8.68385 0.000143198
29 1 3.81077e-05 6.28972 0.0937183 -7.40178 0.00016197
30 1 1.57247 7.86213 1.62062 -8.68385 0.000144682
31 1 3.14491 6.28972 0.0937556 -7.40179 0.00016316
32 1 4.71732 7.86213 1.62069 -8.68386 0.000146226
33 1 6.28974 6.28972 0.0938003 -7.40181 0.000163526
34 1 7.86214 7.86213 1.62074 -8.68386 0.0001461
35 1 9.43454 6.28973 0.0938187 -7.40182 0.000162776
36 1 11.0069 7.86213 1.62074 -8.68386 0.000144289
37 1 12.5793 6.28972 0.0937968 -7.40181 0.000161466
38 1 14.1518 7.86213 1.62068 -8.68385 0.000142198
39 1 15.7242 6.28972 0.0937513 -7.40179 0.000160603
40 1 17.2966 7.86213 1.62061 -8.68385 0.000141491
41 1 18.8691 6.28972 0.0937164 -7.40178 0.000160837
42 1 20.4415 7.86213 1.62058 -8.68385 0.000142625
43 1 4.00071e-05 9.43454 0.0937415 -7.40179 0.000161781
44 1 1.57248 11.007 1.62064 -8.68385 0.000144568
45 1 3.14491 9.43454 0.0937822 -7.4018 0.000163095
46 1 4.71733 11.007 1.62071 -8.68386 0.000146254
47 1 6.28974 9.43455 0.093831 -7.40182 0.000163498
48 1 7.86214 11.007 1.62077 -8.68386 0.000146174
49 1 9.43454 9.43455 0.093851 -7.40183 0.000162649
50 1 11.0069 11.007 1.62076 -8.68386 0.00014423
51 1 12.5793 9.43455 0.0938268 -7.40182 0.000161158
52 1 14.1518 11.007 1.6207 -8.68386 0.000141933
53 1 15.7242 9.43454 0.0937771 -7.4018 0.000160199
54 1 17.2966 11.007 1.62063 -8.68385 0.000141152
55 1 18.8691 9.43454 0.0937392 -7.40179 0.0001605
56 1 20.4415 11.007 1.6206 -8.68385 0.000142368
57 1 4.00071e-05 12.5794 0.0937415 -7.40179 0.000161781
58 1 1.57247 14.1518 1.62062 -8.68385 0.000144682
59 1 3.14491 12.5794 0.0937822 -7.4018 0.000163095
60 1 4.71732 14.1518 1.62069 -8.68386 0.000146226
61 1 6.28974 12.5794 0.093831 -7.40182 0.000163498
62 1 7.86214 14.1518 1.62074 -8.68386 0.0001461
63 1 9.43454 12.5794 0.093851 -7.40183 0.000162649
64 1 11.0069 14.1518 1.62074 -8.68386 0.000144289
65 1 12.5793 12.5794 0.0938268 -7.40182 0.000161158
66 1 14.1518 14.1518 1.62068 -8.68385 0.000142198
67 1 15.7242 12.5794 0.0937771 -7.4018 0.000160199
68 1 17.2966 14.1518 1.62061 -8.68385 0.000141491
69 1 18.8691 12.5794 0.0937392 -7.40179 0.0001605
70 1 20.4415 14.1518 1.62058 -8.68385 0.000142625
71 1 3.81077e-05 15.7242 0.0937183 -7.40178 0.00016197
72 1 1.57247 17.2966 1.62057 -8.68385 0.000144925
73 1 3.14491 15.7242 0.0937556 -7.40179 0.00016316
74 1 4.71732 17.2966 1.62064 -8.68385 0.000146155
75 1 6.28974 15.7242 0.0938003 -7.40181 0.000163526
76 1 7.86214 17.2966 1.62068 -8.68386 0.000145947
77 1 9.43454 15.7242 0.0938187 -7.40182 0.000162776
78 1 11.0069 17.2966 1.62068 -8.68386 0.000144439
79 1 12.5793 15.7242 0.0937968 -7.40181 0.000161466
80 1 14.1518 17.2966 1.62063 -8.68385 0.000142785
81 1 15.7242 15.7242 0.0937513 -7.40179 0.000160603
82 1 17.2966 17.2966 1.62057 -8.68385 0.000142243
83 1 18.8691 15.7242 0.0937164 -7.40178 0.000160837
84 1 20.4415 17.2966 1.62055 -8.68385 0.000143198
85 1 3.57287e-05 18.869 0.0936894 -7.40177 0.000162201
86 1 1.57247 20.4415 1.62054 -8.68385 0.000145109
87 1 3.1449 18.869 0.0937224 -7.40178 0.000163232
88 1 4.71732 20.4415 1.62059 -8.68385 0.000146087
89 1 6.28973 18.869 0.093762 -7.40179 0.000163561
90 1 7.86214 20.4415 1.62064 -8.68385 0.000145841
91 1 9.43454 18.869 0.0937784 -7.4018 0.000162942
92 1 11.007 20.4415 1.62063 -8.68385 0.000144574
93 1 12.5794 18.869 0.0937593 -7.40179 0.000161847
94 1 14.1518 20.4415 1.62059 -8.68385 0.000143246
95 1 15.7242 18.869 0.0937191 -7.40178 0.000161099
96 1 17.2966 20.4415 1.62054 -8.68385 0.000142835
97 1 18.8691 18.869 0.0936879 -7.40176 0.000161254
98 1 20.4415 20.4415 1.62051 -8.68384 0.000143654
99 1 3.94326e-05 1.05666e-15 3.15073 -8.93805 0.000127215
100 1 1.57249 1.57244 4.7402 -8.90304 0.000105988
101 1 3.1449 7.82212e-16 3.15078 -8.93804 0.000128818
102 1 4.71733 1.57244 4.74027 -8.90304 0.000107781
103 1 6.28973 22.0139 3.15084 -8.93803 0.000129402
104 1 7.86215 1.57244 4.74033 -8.90304 0.000107835
105 1 9.43455 22.0139 3.15086 -8.93803 0.000128536
106 1 11.007 1.57244 4.74032 -8.90304 0.000106152
107 1 12.5794 22.0139 3.15083 -8.93803 0.000126902
108 1 14.1518 1.57244 4.74026 -8.90304 0.000104018
109 1 15.7242 1.2319e-15 3.15077 -8.93804 0.00012571
110 1 17.2966 1.57243 4.74019 -8.90304 0.000102992
111 1 18.8691 22.0139 3.15073 -8.93805 0.000125835
112 1 20.4415 1.57243 4.74017 -8.90304 0.000103843
113 1 4.08989e-05 3.14486 3.15075 -8.93804 0.000127053
114 1 1.57249 4.71729 4.74025 -8.90304 0.000106121
115 1 3.1449 3.14487 3.1508 -8.93804 0.000128929
116 1 4.71734 4.7173 4.74033 -8.90304 0.000108874
117 1 6.28973 3.14487 3.15087 -8.93803 0.000129738
118 1 7.86215 4.71731 4.74039 -8.90304 0.000109499
119 1 9.43455 3.14487 3.15089 -8.93803 0.000128854
120 1 11.007 4.7173 4.74039 -8.90304 0.000107428
121 1 12.5794 3.14487 3.15086 -8.93803 0.00012696
122 1 14.1518 4.7173 4.74032 -8.90304 0.000104295
123 1 15.7242 3.14486 3.1508 -8.93804 0.000125491
124 1 17.2966 4.71729 4.74024 -8.90304 0.000102532
125 1 18.8691 3.14486 3.15075 -8.93804 0.000125533
126 1 20.4415 4.71729 4.74021 -8.90304 0.000103376
127 1 4.41642e-05 6.28971 3.1508 -8.93804 0.000126676
128 1 1.5725 7.86213 4.7403 -8.90304 0.00010624
129 1 3.14491 6.28971 3.15086 -8.93803 0.000129147
130 1 4.71735 7.86214 4.7404 -8.90304 0.000110207
131 1 6.28974 6.28972 3.15093 -8.93802 0.000130512
132 1 7.86216 7.86214 4.74048 -8.90304 0.000111717
133 1 9.43455 6.28972 3.15096 -8.93802 0.000129624
134 1 11.007 7.86214 4.74047 -8.90304 0.00010915
135 1 12.5794 6.28972 3.15092 -8.93802 0.000127102
136 1 14.1518 7.86213 4.74038 -8.90304 0.000104607
137 1 15.7242 6.28971 3.15085 -8.93803 0.000124969
138 1 17.2966 7.86213 4.74029 -8.90304 0.000101911
139 1 18.8691 6.28971 3.15079 -8.93804 0.000124843
140 1 20.4415 7.86213 4.74025 -8.90304 0.000102775
141 1 4.67565e-05 9.43454 3.15083 -8.93803 0.000126363
142 1 1.5725 11.007 4.74033 -8.90304 0.000106279
143 1 3.14491 9.43454 3.1509 -8.93802 0.000129301
144 1 4.71735 11.007 4.74043 -8.90304 0.000110795
145 1 6.28974 9.43454 3.15098 -8.93801 0.000131147
146 1 7.86216 11.007 4.74051 -8.90304 0.00011275
147 1 9.43455 9.43454 3.15101 -8.93801 0.000130296
148 1 11.007 11.007 4.7405 -8.90304 0.000109966
149 1 12.5794 9.43454 3.15097 -8.93802 0.000127231
150 1 14.1518 11.007 4.74041 -8.90304 0.000104736
151 1 15.7242 9.43454 3.15089 -8.93803 0.000124529
152 1 17.2966 11.007 4.74031 -8.90304 0.00010162
153 1 18.8691 9.43454 3.15083 -8.93804 0.000124278
154 1 20.4415 11.007 4.74028 -8.90304 0.000102501
155 1 4.67565e-05 12.5794 3.15083 -8.93803 0.000126363
156 1 1.5725 14.1518 4.7403 -8.90304 0.00010624
157 1 3.14491 12.5794 3.1509 -8.93802 0.000129301
158 1 4.71735 14.1518 4.7404 -8.90304 0.000110207
159 1 6.28974 12.5794 3.15098 -8.93801 0.000131147
160 1 7.86216 14.1518 4.74048 -8.90304 0.000111717
161 1 9.43455 12.5794 3.15101 -8.93801 0.000130296
162 1 11.007 14.1518 4.74047 -8.90304 0.00010915
163 1 12.5794 12.5794 3.15097 -8.93802 0.000127231
164 1 14.1518 14.1518 4.74038 -8.90304 0.000104607
165 1 15.7242 12.5794 3.15089 -8.93803 0.000124529
166 1 17.2966 14.1518 4.74029 -8.90304 0.000101911
167 1 18.8691 12.5794 3.15083 -8.93804 0.000124278
168 1 20.4415 14.1518 4.74025 -8.90304 0.000102775
169 1 4.41642e-05 15.7242 3.1508 -8.93804 0.000126676
170 1 1.57249 17.2966 4.74025 -8.90304 0.000106121
171 1 3.14491 15.7242 3.15086 -8.93803 0.000129147
172 1 4.71734 17.2966 4.74033 -8.90304 0.000108874
173 1 6.28974 15.7242 3.15093 -8.93802 0.000130512
174 1 7.86215 17.2966 4.74039 -8.90304 0.000109499
175 1 9.43455 15.7242 3.15096 -8.93802 0.000129624
176 1 11.007 17.2966 4.74039 -8.90304 0.000107428
177 1 12.5794 15.7242 3.15092 -8.93802 0.000127102
178 1 14.1518 17.2966 4.74032 -8.90304 0.000104295
179 1 15.7242 15.7242 3.15085 -8.93803 0.000124969
180 1 17.2966 17.2966 4.74024 -8.90304 0.000102532
181 1 18.8691 15.7242 3.15079 -8.93804 0.000124843
182 1 20.4415 17.2966 4.74021 -8.90304 0.000103376
183 1 4.08989e-05 18.869 3.15075 -8.93804 0.000127053
184 1 1.57249 20.4415 4.7402 -8.90304 0.000105988
185 1 3.1449 18.869 3.1508 -8.93804 0.000128929
186 1 4.71733 20.4415 4.74027 -8.90304 0.000107781
187 1 6.28973 18.869 3.15087 -8.93803 0.000129738
188 1 7.86215 20.4415 4.74033 -8.90304 0.000107835
189 1 9.43455 18.869 3.15089 -8.93803 0.000128854
190 1 11.007 20.4415 4.74032 -8.90304 0.000106152
191 1 12.5794 18.869 3.15086 -8.93803 0.00012696
192 1 14.1518 20.4415 4.74026 -8.90304 0.000104018
193 1 15.7242 18.869 3.1508 -8.93804 0.000125491
194 1 17.2966 20.4415 4.74019 -8.90304 0.000102992
195 1 18.8691 18.869 3.15075 -8.93804 0.000125533
196 1 20.4415 20.4415 4.74017 -8.90304 0.000103843
197 1 7.41965e-05 1.56997e-15 6.30211 -8.88812 7.74078e-05
198 1 1.57255 1.57245 7.87156 -8.90467 5.69154e-05
199 1 3.14494 22.0139 6.30218 -8.88812 8.02017e-05
200 1 4.7174 1.57246 7.87167 -8.90467 6.05981e-05
201 1 6.28977 22.0139 6.30227 -8.88811 8.16619e-05
202 1 7.86219 1.57246 7.87176 -8.90467 6.15237e-05
203 1 9.43456 1.37992e-15 6.3023 -8.88811 8.07195e-05
204 1 11.007 1.57246 7.87175 -8.90467 5.90874e-05
205 1 12.5794 22.0139 6.30225 -8.88812 7.81623e-05
206 1 14.1518 1.57245 7.87165 -8.90467 5.52026e-05
207 1 15.7242 1.12133e-15 6.30216 -8.88812 7.58706e-05
208 1 17.2966 1.57245 7.87153 -8.90467 5.2693e-05
209 1 18.8691 22.0139 6.3021 -8.88812 7.54969e-05
210 1 20.4415 1.57244 7.87149 -8.90468 5.33971e-05
211 1 7.835e-05 3.14488 6.30213 -8.88812 7.73846e-05
212 1 1.57257 4.71733 7.87163 -8.90467 5.81082e-05
213 1 3.14495 3.14488 6.30222 -8.88812 8.10079e-05
214 1 4.71742 4.71735 7.87178 -8.90466 6.49681e-05
215 1 6.28977 3.14489 6.30231 -8.88811 8.33657e-05
216 1 7.8622 4.71736 7.87189 -8.90466 6.81988e-05
217 1 9.43456 3.1449 6.30235 -8.88811 8.25842e-05
218 1 11.007 4.71736 7.87187 -8.90466 6.47679e-05
219 1 12.5794 3.14489 6.3023 -8.88811 7.93026e-05
220 1 14.1518 4.71734 7.87174 -8.90467 5.76608e-05
221 1 15.7242 3.14488 6.3022 -8.88812 7.60558e-05
222 1 17.2966 4.71732 7.8716 -8.90467 5.27054e-05
223 1 18.8691 3.14487 6.30212 -8.88812 7.52315e-05
224 1 20.4416 4.71731 7.87155 -8.90467 5.31175e-05
225 1 8.75197e-05 6.28973 6.3022 -8.88812 7.72833e-05
226 1 1.57259 7.86216 7.87172 -8.90467 5.94442e-05
227 1 3.14497 6.28974 6.3023 -8.88811 8.26929e-05
228 1 4.71745 7.86218 7.87191 -8.90466 7.04157e-05
229 1 6.28979 6.28975 6.30242 -8.88811 8.74385e-05
230 1 7.86222 7.86219 7.87205 -8.90463 7.77951e-05
231 1 9.43457 6.28975 6.30246 -8.8881 8.72653e-05
232 1 11.007 7.86218 7.87202 -8.90464 7.295e-05
233 1 12.5794 6.28974 6.30239 -8.88811 8.20319e-05
234 1 14.1517 7.86217 7.87185 -8.90466 6.06351e-05
235 1 15.7242 6.28973 6.30227 -8.88811 7.63421e-05
236 1 17.2966 7.86215 7.87168 -8.90467 5.25379e-05
237 1 18.8691 6.28972 6.30218 -8.88812 7.45839e-05
238 1 20.4416 7.86215 7.87162 -8.90467 5.26977e-05
239 1 9.47475e-05 9.43455 6.30225 -8.88812 7.71653e-05
240 1 1.5726 11.007 7.87176 -8.90467 6.00033e-05
241 1 3.14498 9.43455 6.30236 -8.88811 8.39793e-05
242 1 4.71746 11.007 7.87196 -8.90465 7.28774e-05
243 1 6.2898 9.43456 6.3025 -8.8881 9.08484e-05
244 1 7.86223 11.007 7.87212 -8.90462 8.24577e-05
245 1 9.43457 9.43456 6.30255 -8.8881 9.1414e-05
246 1 11.007 11.007 7.87209 -8.90463 7.69997e-05
247 1 12.5793 9.43455 6.30247 -8.8881 8.43484e-05
248 1 14.1517 11.007 7.8719 -8.90466 6.1941e-05
249 1 15.7242 9.43455 6.30233 -8.88811 7.64853e-05
250 1 17.2966 11.007 7.87171 -8.90467 5.24121e-05
251 1 18.8691 9.43455 6.30223 -8.88812 7.40241e-05
252 1 20.4416 11.007 7.87165 -8.90467 5.2492e-05
253 1 9.47475e-05 12.5794 6.30225 -8.88812 7.71653e-05
254 1 1.57259 14.1517 7.87172 -8.90467 5.94442e-05
255 1 3.14498 12.5793 6.30236 -8.88811 8.39793e-05
256 1 4.71745 14.1517 7.87191 -8.90466 7.04157e-05
257 1 6.2898 12.5793 6.3025 -8.8881 9.08484e-05
258 1 7.86222 14.1517 7.87205 -8.90463 7.77951e-05
259 1 9.43457 12.5793 6.30255 -8.8881 9.1414e-05
260 1 11.007 14.1517 7.87202 -8.90464 7.295e-05
261 1 12.5793 12.5793 6.30247 -8.8881 8.43484e-05
262 1 14.1517 14.1517 7.87185 -8.90466 6.06351e-05
263 1 15.7242 12.5794 6.30233 -8.88811 7.64853e-05
264 1 17.2966 14.1518 7.87168 -8.90467 5.25379e-05
265 1 18.8691 12.5794 6.30223 -8.88812 7.40241e-05
266 1 20.4416 14.1518 7.87162 -8.90467 5.26977e-05
267 1 8.75197e-05 15.7242 6.3022 -8.88812 7.72833e-05
268 1 1.57257 17.2966 7.87163 -8.90467 5.81082e-05
269 1 3.14497 15.7242 6.3023 -8.88811 8.26929e-05
270 1 4.71742 17.2966 7.87178 -8.90466 6.49681e-05
271 1 6.28979 15.7242 6.30242 -8.88811 8.74385e-05
272 1 7.8622 17.2965 7.87189 -8.90466 6.81988e-05
273 1 9.43457 15.7241 6.30246 -8.8881 8.72653e-05
274 1 11.007 17.2965 7.87187 -8.90466 6.47679e-05
275 1 12.5794 15.7242 6.30239 -8.88811 8.20319e-05
276 1 14.1518 17.2966 7.87174 -8.90467 5.76608e-05
277 1 15.7242 15.7242 6.30227 -8.88811 7.63421e-05
278 1 17.2966 17.2966 7.8716 -8.90467 5.27054e-05
279 1 18.8691 15.7242 6.30218 -8.88812 7.45839e-05
280 1 20.4416 17.2966 7.87155 -8.90467 5.31175e-05
281 1 7.835e-05 18.869 6.30213 -8.88812 7.73846e-05
282 1 1.57255 20.4415 7.87156 -8.90467 5.69154e-05
283 1 3.14495 18.869 6.30222 -8.88812 8.10079e-05
284 1 4.7174 20.4414 7.87167 -8.90467 6.05981e-05
285 1 6.28977 18.869 6.30231 -8.88811 8.33657e-05
286 1 7.86219 20.4414 7.87176 -8.90467 6.15237e-05
287 1 9.43456 18.869 6.30235 -8.88811 8.25842e-05
288 1 11.007 20.4414 7.87175 -8.90467 5.90874e-05
289 1 12.5794 18.869 6.3023 -8.88811 7.93026e-05
290 1 14.1518 20.4414 7.87165 -8.90467 5.52026e-05
291 1 15.7242 18.869 6.3022 -8.88812 7.60558e-05
292 1 17.2966 20.4415 7.87153 -8.90467 5.2693e-05
293 1 18.8691 18.869 6.30212 -8.88812 7.52315e-05
294 1 20.4415 20.4415 7.87149 -8.90468 5.33971e-05
295 1 0.000142012 1.10623e-15 9.44001 -8.89867 3.28717e-05
296 1 1.57267 1.57248 11.0084 -8.9001 2.02666e-05
297 1 3.14504 22.0139 9.44014 -8.89867 3.75174e-05
298 1 4.71753 1.57251 11.0086 -8.90009 2.65945e-05
299 1 6.28984 6.61804e-16 9.44029 -8.89867 4.04712e-05
300 1 7.86226 1.57252 11.0088 -8.90009 2.8634e-05
301 1 9.43459 1.29663e-15 9.44033 -8.89867 3.95196e-05
302 1 11.007 1.57251 11.0087 -8.90009 2.50699e-05
303 1 12.5793 1.80934e-15 9.44025 -8.89867 3.56293e-05
304 1 14.1517 1.57249 11.0086 -8.90009 1.89343e-05
305 1 15.7242 1.00221e-15 9.4401 -8.89867 3.16218e-05
306 1 17.2966 1.57247 11.0084 -8.9001 1.4657e-05
307 1 18.8691 22.0139 9.44 -8.89867 3.03315e-05
308 1 20.4416 1.57246 11.0083 -8.9001 1.52088e-05
309 1 0.000153461 3.1449 9.44006 -8.89867 3.3296e-05
310 1 1.57272 4.71739 11.0085 -8.90009 2.3913e-05
311 1 3.14506 3.14493 9.44021 -8.89867 4.00993e-05
312 1 4.71759 4.71746 11.0088 -8.90008 4.01723e-05
313 1 6.28986 3.14496 9.44038 -8.89867 4.58182e-05
314 1 7.8623 4.7175 11.0091 -8.90006 5.06094e-05
315 1 9.43459 3.14496 9.44044 -8.89867 4.54444e-05
316 1 11.007 4.71749 11.009 -8.90007 4.32807e-05
317 1 12.5793 3.14494 9.44034 -8.89867 3.94579e-05
318 1 14.1517 4.71742 11.0087 -8.90008 2.63182e-05
319 1 15.7242 3.14491 9.44016 -8.89867 3.2765e-05
320 1 17.2966 4.71736 11.0085 -8.90009 1.54931e-05
321 1 18.8691 3.1449 9.44004 -8.89867 3.02768e-05
322 1 20.4416 4.71735 11.0084 -8.90009 1.54731e-05
323 1 0.000178277 6.28976 9.44016 -8.89867 3.4075e-05
324 1 1.57277 7.8622 11.0087 -8.90009 2.81391e-05
325 1 3.1451 6.28979 9.44036 -8.89867 4.56694e-05
326 1 4.71767 7.86226 11.0091 -8.90007 5.86631e-05
327 1 6.2899 6.28983 9.4406 -8.89866 6.03819e-05
328 1 7.86236 7.86231 11.0095 -8.89996 9.25725e-05
329 1 9.4346 6.28984 9.44068 -8.89865 6.27675e-05
330 1 11.0069 7.86229 11.0094 -8.89998 7.75708e-05
331 1 12.5793 6.28982 9.44054 -8.89866 4.96624e-05
332 1 14.1517 7.86223 11.009 -8.90008 3.57131e-05
333 1 15.7242 6.28977 9.44029 -8.89867 3.49209e-05
334 1 17.2966 7.86218 11.0086 -8.90009 1.59751e-05
335 1 18.8691 6.28975 9.44013 -8.89867 2.99597e-05
336 1 20.4417 7.86217 11.0085 -8.90009 1.56193e-05
337 1 0.000197605 9.43456 9.44024 -8.89867 3.46083e-05
338 1 1.57279 11.007 11.0088 -8.90009 2.99861e-05
339 1 3.14513 9.43458 9.44048 -8.89867 5.00268e-05
340 1 4.71771 11.007 11.0092 -8.90006 6.75852e-05
341 1 6.28994 9.4346 9.44078 -8.89865 7.33035e-05
342 1 7.86239 11.007 11.0096 -8.89993 0.000115263
343 1 9.43461 9.4346 9.44089 -8.89863 7.98311e-05
344 1 11.0069 11.007 11.0096 -8.89995 9.70316e-05
345 1 12.5793 9.43459 9.4407 -8.89866 5.88156e-05
346 1 14.1517 11.007 11.0091 -8.90008 3.99416e-05
347 1 15.7242 9.43457 9.44038 -8.89867 3.63495e-05
348 1 17.2966 11.007 11.0087 -8.90009 1.60454e-05
349 1 18.8691 9.43456 9.4402 -8.89867 2.95894e-05
350 1 20.4417 11.007 11.0086 -8.90009 1.5651e-05
351 1 0.000197605 12.5793 9.44024 -8.89867 3.46083e-05
352 1 1.57277 14.1517 11.0087 -8.90009 2.81391e-05
353 1 3.14513 12.5793 9.44048 -8.89867 5.00268e-05
354 1 4.71767 14.1516 11.0091 -8.90007 5.86631e-05
355 1 6.28994 12.5793 9.44078 -8.89865 7.33035e-05
356 1 7.86236 14.1516 11.0095 -8.89996 9.25725e-05
357 1 9.43461 12.5793 9.44089 -8.89863 7.98311e-05
358 1 11.0069 14.1516 11.0094 -8.89998 7.75708e-05
359 1 12.5793 12.5793 9.4407 -8.89866 5.88156e-05
360 1 14.1517 14.1517 11.009 -8.90008 3.57131e-05
361 1 15.7242 12.5793 9.44038 -8.89867 3.63495e-05
362 1 17.2966 14.1517 11.0086 -8.90009 1.59751e-05
363 1 18.8691 12.5793 9.4402 -8.89867 2.95894e-05
364 1 20.4417 14.1517 11.0085 -8.90009 1.56193e-05
365 1 0.000178277 15.7241 9.44016 -8.89867 3.4075e-05
366 1 1.57272 17.2965 11.0085 -8.90009 2.3913e-05
367 1 3.1451 15.7241 9.44036 -8.89867 4.56694e-05
368 1 4.71759 17.2964 11.0088 -8.90008 4.01723e-05
369 1 6.2899 15.7241 9.4406 -8.89866 6.03819e-05
370 1 7.8623 17.2964 11.0091 -8.90006 5.06094e-05
371 1 9.4346 15.7241 9.44068 -8.89865 6.27675e-05
372 1 11.007 17.2964 11.009 -8.90007 4.32807e-05
373 1 12.5793 15.7241 9.44054 -8.89866 4.96624e-05
374 1 14.1517 17.2965 11.0087 -8.90008 2.63182e-05
375 1 15.7242 15.7241 9.44029 -8.89867 3.49209e-05
376 1 17.2966 17.2965 11.0085 -8.90009 1.54931e-05
377 1 18.8691 15.7241 9.44013 -8.89867 2.99597e-05
378 1 20.4416 17.2966 11.0084 -8.90009 1.54731e-05
379 1 0.000153461 18.869 9.44006 -8.89867 3.3296e-05
380 1 1.57267 20.4414 11.0084 -8.9001 2.02666e-05
381 1 3.14506 18.869 9.44021 -8.89867 4.00993e-05
382 1 4.71753 20.4414 11.0086 -8.90009 2.65945e-05
383 1 6.28986 18.8689 9.44038 -8.89867 4.58182e-05
384 1 7.86226 20.4414 11.0088 -8.90009 2.8634e-05
385 1 9.43459 18.8689 9.44044 -8.89867 4.54444e-05
386 1 11.007 20.4414 11.0087 -8.90009 2.50699e-05
387 1 12.5793 18.869 9.44034 -8.89867 3.94579e-05
388 1 14.1517 20.4414 11.0086 -8.90009 1.89343e-05
389 1 15.7242 18.869 9.44016 -8.89867 3.2765e-05
390 1 17.2966 20.4414 11.0084 -8.9001 1.4657e-05
391 1 18.8691 18.869 9.44004 -8.89867 3.02768e-05
392 1 20.4416 20.4414 11.0083 -8.9001 1.52088e-05
393 1 0.000250995 1.20728e-15 12.5766 -8.89868 7.23278e-06
394 1 3.14519 22.0139 12.5768 -8.89869 1.32666e-05
395 1 6.28997 22.0139 12.5771 -8.89869 1.68421e-05
396 1 9.43463 22.0139 12.5772 -8.89869 1.50158e-05
397 1 12.5793 1.37362e-15 12.577 -8.89869 1.02001e-05
398 1 15.7242 22.0139 12.5768 -8.89869 5.55018e-06
399 1 18.8691 22.0139 12.5766 -8.89868 4.16853e-06
400 1 0.000281172 3.14495 12.5767 -8.89868 8.57196e-06
401 1 3.14525 3.14502 12.577 -8.89871 2.00933e-05
402 1 6.29002 3.14511 12.5773 -8.89869 3.29659e-05
403 1 9.43465 3.14512 12.5774 -8.89869 3.25618e-05
404 1 12.5793 3.14507 12.5772 -8.89869 2.03707e-05
405 1 15.7241 3.14498 12.5769 -8.8987 8.01292e-06
406 1 18.8691 3.14493 12.5766 -8.89868 4.37996e-06
407 1 0.00034469 6.28981 12.5769 -8.89868 1.12668e-05
408 1 3.14537 6.28991 12.5773 -8.8987 3.68428e-05
409 1 6.29017 6.29005 12.5778 -8.89869 9.46651e-05
410 1 9.43468 6.29008 12.578 -8.89868 0.000108448
411 1 12.5792 6.28999 12.5776 -8.89869 5.78795e-05
412 1 15.7241 6.28985 12.5771 -8.89869 1.302e-05
413 1 18.8692 6.28979 12.5768 -8.89868 4.44255e-06
414 1 0.000393065 9.43458 12.577 -8.89868 1.33233e-05
415 1 3.14545 9.43463 12.5775 -8.8987 5.04906e-05
416 1 6.29028 9.43469 12.5782 -8.8987 0.000155289
417 1 9.43472 9.43471 12.5785 -8.89845 0.00020632
418 1 12.5792 9.43467 12.578 -8.89871 9.59073e-05
419 1 15.7241 9.4346 12.5773 -8.8987 1.59411e-05
420 1 18.8692 9.43457 12.5769 -8.89868 4.28783e-06
421 1 0.000393065 12.5793 12.577 -8.89868 1.33233e-05
422 1 3.14545 12.5793 12.5775 -8.8987 5.04906e-05
423 1 6.29028 12.5792 12.5782 -8.8987 0.000155289
424 1 9.43472 12.5792 12.5785 -8.89845 0.00020632
425 1 12.5792 12.5792 12.578 -8.89871 9.59073e-05
426 1 15.7241 12.5793 12.5773 -8.8987 1.59411e-05
427 1 18.8692 12.5793 12.5769 -8.89868 4.28783e-06
428 1 0.00034469 15.7241 12.5769 -8.89868 1.12668e-05
429 1 3.14537 15.724 12.5773 -8.8987 3.68428e-05
430 1 6.29017 15.7239 12.5778 -8.89869 9.46651e-05
431 1 9.43468 15.7238 12.578 -8.89868 0.000108448
432 1 12.5792 15.7239 12.5776 -8.89869 5.78795e-05
433 1 15.7241 15.7241 12.5771 -8.89869 1.302e-05
434 1 18.8692 15.7241 12.5768 -8.89868 4.44255e-06
435 1 0.000281172 18.869 12.5767 -8.89868 8.57196e-06
436 1 3.14525 18.8689 12.577 -8.89871 2.00933e-05
437 1 6.29002 18.8688 12.5773 -8.89869 3.29659e-05
438 1 9.43465 18.8688 12.5774 -8.89869 3.25618e-05
439 1 12.5793 18.8688 12.5772 -8.89869 2.03707e-05
440 1 15.7241 18.8689 12.5769 -8.8987 8.01292e-06
441 1 18.8691 18.869 12.5766 -8.89868 4.37996e-06
442 1 1.57284 1.57252 14.1452 -8.90468 7.97217e-06
443 1 4.71773 1.5726 14.1456 -8.90468 1.74622e-05
444 1 7.86238 1.57265 14.1458 -8.90467 1.87725e-05
445 1 11.007 1.57263 14.1458 -8.90467 1.2232e-05
446 1 14.1517 1.57256 14.1455 -8.90468 4.36581e-06
447 1 17.2966 1.57249 14.1451 -8.90468 2.71e-07
448 1 20.4417 1.57248 14.145 -8.90467 1.84999e-06
449 1 1.57297 4.71749 14.1455 -8.90468 1.82516e-05
450 1 4.71793 4.71771 14.1461 -8.90473 6.8147e-05
451 1 7.86251 4.71786 14.1465 -8.90468 0.000117175
452 1 11.0069 4.7178 14.1464 -8.9047 8.85866e-05
453 1 14.1516 4.7176 14.1459 -8.90473 2.67484e-05
454 1 17.2966 4.71741 14.1453 -8.90467 1.45604e-06
455 1 20.4417 4.71739 14.1452 -8.90466 2.97421e-06
456 1 1.5731 7.86228 14.1457 -8.90468 3.07567e-05
457 1 4.71817 7.86247 14.1466 -8.90472 0.00015284
458 1 7.86275 7.86268 14.1477 -8.90436 0.000466082
459 1 11.0069 7.86262 14.1475 -8.9045 0.000347913
460 1 14.1515 7.86237 14.1463 -8.90472 5.82149e-05
461 1 17.2966 7.86222 14.1455 -8.90468 1.59404e-06
462 1 20.4418 7.8622 14.1453 -8.90466 4.32318e-06
463 1 1.57315 11.007 14.1458 -8.90468 3.64822e-05
464 1 4.71827 11.007 14.1469 -8.90474 0.000195032
465 1 7.86288 11.007 14.1482 -8.90461 0.000649661
466 1 11.0068 11.007 14.1479 -8.90471 0.000511058
467 1 14.1515 11.007 14.1465 -8.90474 7.09574e-05
468 1 17.2966 11.007 14.1456 -8.90468 1.34327e-06
469 1 20.4418 11.007 14.1454 -8.90466 5.01302e-06
470 1 1.5731 14.1516 14.1457 -8.90468 3.07567e-05
471 1 4.71817 14.1514 14.1466 -8.90472 0.00015284
472 1 7.86275 14.1512 14.1477 -8.90436 0.000466082
473 1 11.0069 14.1513 14.1475 -8.9045 0.000347913
474 1 14.1515 14.1515 14.1463 -8.90472 5.82149e-05
475 1 17.2966 14.1517 14.1455 -8.90468 1.59404e-06
476 1 20.4418 14.1517 14.1453 -8.90466 4.32318e-06
477 1 1.57297 17.2964 14.1455 -8.90468 1.82516e-05
478 1 4.71793 17.2962 14.1461 -8.90473 6.8147e-05
479 1 7.86251 17.296 14.1465 -8.90468 0.000117175
480 1 11.0069 17.2961 14.1464 -8.9047 8.85866e-05
481 1 14.1516 17.2963 14.1459 -8.90473 2.67484e-05
482 1 17.2966 17.2965 14.1453 -8.90467 1.45604e-06
483 1 20.4417 17.2965 14.1452 -8.90466 2.97421e-06
484 1 1.57284 20.4414 14.1452 -8.90468 7.97217e-06
485 1 4.71773 20.4413 14.1456 -8.90468 1.74622e-05
486 1 7.86238 20.4413 14.1458 -8.90467 1.87725e-05
487 1 11.007 20.4413 14.1458 -8.90467 1.2232e-05
488 1 14.1517 20.4413 14.1455 -8.90468 4.36581e-06
489 1 17.2966 20.4414 14.1451 -8.90468 2.71e-07
490 1 20.4417 20.4414 14.145 -8.90467 1.84999e-06
491 1 0.000374318 7.12495e-16 15.7144 -8.88815 6.57792e-06
492 1 1.573 1.57256 17.2764 -8.90301 2.25229e-05
493 1 3.14538 9.72344e-16 15.7147 -8.88819 1.20944e-05
494 1 4.71799 1.57278 17.2769 -8.90305 4.49181e-05
495 1 6.29013 1.39123e-15 15.7151 -8.88814 1.18894e-05
496 1 7.86255 1.57292 17.2773 -8.90296 4.49356e-05
497 1 9.4347 22.0139 15.7152 -8.88814 4.46001e-06
498 1 11.007 1.57286 17.2773 -8.90299 2.69744e-05
499 1 12.5793 22.0139 15.715 -8.88815 1.3353e-06
500 1 14.1516 1.57267 17.2768 -8.90307 1.37776e-05
501 1 15.7241 22.0139 15.7146 -8.88817 1.38183e-06
502 1 17.2967 1.5725 17.2763 -8.90302 1.08737e-05
503 1 18.8692 22.0139 15.7143 -8.88814 3.09228e-06
504 1 20.4418 1.57248 17.2762 -8.90301 1.45344e-05
505 1 0.000443375 3.14499 15.7145 -8.88815 9.64637e-06
506 1 1.57329 4.71762 17.2767 -8.90305 5.47344e-05
507 1 3.14551 3.14517 15.7149 -8.88821 3.06544e-05
508 1 4.71858 4.71826 17.2778 -8.90332 0.0002503
509 1 6.29029 3.14543 15.7155 -8.88817 7.6027e-05
510 1 7.86299 4.71878 17.2788 -8.90296 0.000622946
511 1 9.43474 3.14547 15.7157 -8.88817 7.66685e-05
512 1 11.0069 4.71857 17.2786 -8.90307 0.000436144
513 1 12.5793 3.14531 15.7154 -8.88817 3.64721e-05
514 1 14.1514 4.71793 17.2775 -8.90329 9.85142e-05
515 1 15.7241 3.14506 15.7148 -8.88818 5.55928e-06
516 1 17.2967 4.71744 17.2766 -8.90304 1.17402e-05
517 1 18.8692 3.14494 15.7144 -8.88814 3.12115e-06
518 1 20.4419 4.71738 17.2763 -8.90298 1.74128e-05
519 1 0.000587314 6.28985 15.7147 -8.88813 1.73652e-05
520 1 1.57357 7.86237 17.2772 -8.90302 9.60876e-05
521 1 3.14582 6.29011 15.7155 -8.88819 9.24591e-05
522 1 4.71923 7.86295 17.2789 -8.90315 0.000708302
523 1 6.29079 6.29061 15.7168 -8.88825 0.000442397
524 1 7.86425 7.86421 17.2825 -8.90513 0.00485022
525 1 9.43486 6.29074 15.7173 -8.88792 0.000583782
526 1 11.0064 7.86392 17.2817 -8.9056 0.00317911
527 1 12.5791 6.2904 15.7164 -8.88811 0.000231416
528 1 14.1514 7.86259 17.2782 -8.90332 0.000212818
529 1 15.7241 6.28993 15.7152 -8.88813 1.64351e-05
530 1 17.2968 7.8622 17.2768 -8.90301 7.62706e-06
531 1 18.8693 6.28979 15.7146 -8.88812 3.07346e-06
532 1 20.4421 7.86219 17.2766 -8.90298 2.31966e-05
533 1 0.000690805 9.4346 15.7149 -8.88813 2.37646e-05
534 1 1.57367 11.007 17.2773 -8.90303 0.00011307
535 1 3.14602 9.43471 15.7159 -8.88819 0.000142053
536 1 4.71944 11.007 17.2794 -8.90335 0.000836538
537 1 6.29114 9.43494 15.7178 -8.88798 0.000827639
538 1 7.86478 11.007 17.2836 -8.90761 0.00549761
539 1 9.43505 9.43504 15.7191 -8.88495 0.00170589
540 1 11.0064 11.007 17.2829 -8.90671 0.00426852
541 1 12.579 9.43485 15.7172 -8.88807 0.000451166
542 1 14.1515 11.007 17.2785 -8.90363 0.000214672
543 1 15.7241 9.43463 15.7154 -8.88813 1.64895e-05
544 1 17.2968 11.007 17.2769 -8.90303 5.86907e-06
545 1 18.8693 9.43457 15.7148 -8.88812 3.63587e-06
546 1 20.4421 11.007 17.2766 -8.90299 2.68571e-05
547 1 0.000690805 12.5793 15.7149 -8.88813 2.37646e-05
548 1 1.57357 14.1515 17.2772 -8.90302 9.60876e-05
549 1 3.14602 12.5792 15.7159 -8.88819 0.000142053
550 1 4.71923 14.1509 17.2789 -8.90315 0.000708302
551 1 6.29114 12.579 15.7178 -8.88798 0.000827639
552 1 7.86425 14.1497 17.2825 -8.90513 0.00485022
553 1 9.43505 12.5789 15.7191 -8.88495 0.00170589
554 1 11.0064 14.15 17.2817 -8.9056 0.00317911
555 1 12.579 12.5791 15.7172 -8.88807 0.000451166
556 1 14.1514 14.1513 17.2782 -8.90332 0.000212818
557 1 15.7241 12.5793 15.7154 -8.88813 1.64895e-05
558 1 17.2968 14.1517 17.2768 -8.90301 7.62706e-06
559 1 18.8693 12.5793 15.7148 -8.88812 3.63587e-06
560 1 20.4421 14.1517 17.2766 -8.90298 2.31966e-05
561 1 0.000587314 15.724 15.7147 -8.88813 1.73652e-05
562 1 1.57329 17.2963 17.2767 -8.90305 5.47344e-05
563 1 3.14582 15.7238 15.7155 -8.88819 9.24591e-05
564 1 4.71858 17.2956 17.2778 -8.90332 0.0002503
565 1 6.29079 15.7233 15.7168 -8.88825 0.000442397
566 1 7.86299 17.2951 17.2788 -8.90296 0.000622946
567 1 9.43486 15.7232 15.7173 -8.88792 0.000583782
568 1 11.0069 17.2953 17.2786 -8.90307 0.000436144
569 1 12.5791 15.7235 15.7164 -8.88811 0.000231416
570 1 14.1514 17.296 17.2775 -8.90329 9.85142e-05
571 1 15.7241 15.724 15.7152 -8.88813 1.64351e-05
572 1 17.2967 17.2965 17.2766 -8.90304 1.17402e-05
573 1 18.8693 15.7241 15.7146 -8.88812 3.07346e-06
574 1 20.4419 17.2965 17.2763 -8.90298 1.74128e-05
575 1 0.000443375 18.8689 15.7145 -8.88815 9.64637e-06
576 1 1.573 20.4413 17.2764 -8.90301 2.25229e-05
577 1 3.14551 18.8687 15.7149 -8.88821 3.06544e-05
578 1 4.71799 20.4411 17.2769 -8.90305 4.49181e-05
579 1 6.29029 18.8685 15.7155 -8.88817 7.6027e-05
580 1 7.86255 20.441 17.2773 -8.90296 4.49356e-05
581 1 9.43474 18.8684 15.7157 -8.88817 7.66685e-05
582 1 11.007 20.441 17.2773 -8.90299 2.69744e-05
583 1 12.5793 18.8686 15.7154 -8.88817 3.64721e-05
584 1 14.1516 20.4412 17.2768 -8.90307 1.37776e-05
585 1 15.7241 18.8688 15.7148 -8.88818 5.55928e-06