ITEM: TIMESTEP
136
ITEM: NUMBER OF ATOMS
736
ITEM: BOX BOUNDS pp pp pp
0.0000000000000000e+00 2.2013900999999997e+01
0.0000000000000000e+00 2.2013900999999997e+01
0.0000000000000000e+00 5.3462330999999999e+01
ITEM: ATOMS id type x y z c_pot c_ke
1 1 5.02671e-05 6.26388e-16 0.0970944 -7.40178 1.79356e-05
2 1 1.57247 1.57243 1.62382 -8.68379 2.03747e-05
3 1 3.14493 1.62437e-15 0.0970789 -7.40177 1.73762e-05
4 1 4.71734 1.57243 1.62383 -8.68379 1.7838e-05
5 1 6.28982 4.95774e-16 0.0971044 -7.40179 1.50787e-05
6 1 7.86221 1.57243 1.62388 -8.68379 1.40042e-05
7 1 9.43467 1.22123e-15 0.0971518 -7.40181 1.26416e-05
8 1 11.0071 1.57243 1.62394 -8.68379 1.15202e-05
9 1 12.5795 5.63307e-16 0.0971852 -7.40182 1.20233e-05
10 1 14.1519 1.57243 1.62397 -8.68379 1.21809e-05
11 1 15.7243 2.76471e-16 0.0971795 -7.40182 1.37672e-05
12 1 17.2967 1.57243 1.62393 -8.68379 1.57648e-05
13 1 18.8691 3.51084e-16 0.0971391 -7.4018 1.6401e-05
14 1 20.4415 1.57243 1.62387 -8.68379 1.95235e-05
15 1 4.55038e-05 3.14487 0.0971122 -7.40179 1.68619e-05
16 1 1.57246 4.71729 1.62386 -8.68379 1.71464e-05
17 1 3.14493 3.14487 0.0970947 -7.40178 1.63765e-05
18 1 4.71733 4.71728 1.62386 -8.68379 1.44036e-05
19 1 6.28981 3.14487 0.0971187 -7.40179 1.39117e-05
20 1 7.8622 4.71728 1.62391 -8.68379 1.02056e-05
21 1 9.43467 3.14487 0.0971662 -7.40181 1.12036e-05
22 1 11.007 4.71728 1.62397 -8.68379 7.3707e-06
23 1 12.5795 3.14487 0.0972014 -7.40183 1.03775e-05
24 1 14.1519 4.71728 1.624 -8.68379 7.64619e-06
25 1 15.7243 3.14487 0.0971977 -7.40183 1.2138e-05
26 1 17.2967 4.71729 1.62398 -8.68379 1.13474e-05
27 1 18.8691 3.14488 0.097158 -7.40181 1.50356e-05
28 1 20.4415 4.71729 1.62391 -8.68379 1.58365e-05
29 1 3.48007e-05 6.28973 0.0971526 -7.40181 1.43179e-05
30 1 1.57244 7.86212 1.62391 -8.68379 1.33237e-05
31 1 3.14492 6.28972 0.0971304 -7.4018 1.40357e-05
32 1 4.71731 7.86212 1.6239 -8.68379 1.06292e-05
33 1 6.2898 6.28972 0.0971505 -7.40181 1.1278e-05
34 1 7.86219 7.86212 1.62394 -8.68379 6.58209e-06
35 1 9.43466 6.28972 0.0971978 -7.40183 8.0453e-06
36 1 11.007 7.86212 1.62401 -8.68379 3.75079e-06
37 1 12.5795 6.28972 0.0972369 -7.40185 6.75299e-06
38 1 14.1519 7.86212 1.62405 -8.68379 3.31897e-06
39 1 15.7243 6.28973 0.0972383 -7.40184 8.45957e-06
40 1 17.2967 7.86213 1.62403 -8.6838 6.53208e-06
41 1 18.8691 6.28973 0.0972007 -7.40183 1.18603e-05
42 1 20.4415 7.86213 1.62397 -8.68379 1.14963e-05
43 1 2.6218e-05 9.43455 0.097185 -7.40182 1.21458e-05
44 1 1.57244 11.007 1.62393 -8.68379 1.16963e-05
45 1 3.14491 9.43454 0.0971591 -7.40181 1.20637e-05
46 1 4.71731 11.007 1.62392 -8.68379 9.13484e-06
47 1 6.28979 9.43454 0.0971758 -7.40182 9.15547e-06
48 1 7.86218 11.007 1.62396 -8.68379 5.37584e-06
49 1 9.43465 9.43454 0.0972223 -7.40184 5.58809e-06
50 1 11.007 11.007 1.62402 -8.68379 2.70703e-06
51 1 12.5795 9.43454 0.0972645 -7.40186 3.92247e-06
52 1 14.1519 11.007 1.62407 -8.6838 1.87568e-06
53 1 15.7243 9.43455 0.0972706 -7.40186 5.49194e-06
54 1 17.2967 11.007 1.62406 -8.6838 4.63952e-06
55 1 18.8691 9.43455 0.0972349 -7.40184 9.20581e-06
56 1 20.4415 11.007 1.624 -8.68379 9.65777e-06
57 1 2.6218e-05 12.5794 0.097185 -7.40182 1.21458e-05
58 1 1.57244 14.1518 1.62391 -8.68379 1.33237e-05
59 1 3.14491 12.5794 0.0971591 -7.40181 1.20637e-05
60 1 4.71731 14.1518 1.6239 -8.68379 1.06292e-05
61 1 6.28979 12.5794 0.0971758 -7.40182 9.15547e-06
62 1 7.86219 14.1518 1.62394 -8.68379 6.58209e-06
63 1 9.43465 12.5794 0.0972223 -7.40184 5.58809e-06
64 1 11.007 14.1518 1.62401 -8.68379 3.75079e-06
65 1 12.5795 12.5794 0.0972645 -7.40186 3.92247e-06
66 1 14.1519 14.1518 1.62405 -8.68379 3.31897e-06
67 1 15.7243 12.5794 0.0972706 -7.40186 5.49194e-06
68 1 17.2967 14.1518 1.62403 -8.6838 6.53208e-06
69 1 18.8691 12.5794 0.0972349 -7.40184 9.20581e-06
70 1 20.4415 14.1518 1.62397 -8.68379 1.14963e-05
71 1 3.48007e-05 15.7242 0.0971526 -7.40181 1.43179e-05
72 1 1.57246 17.2966 1.62386 -8.68379 1.71464e-05
73 1 3.14492 15.7242 0.0971304 -7.4018 1.40357e-05
74 1 4.71733 17.2966 1.62386 -8.68379 1.44036e-05
75 1 6.2898 15.7242 0.0971505 -7.40181 1.1278e-05
76 1 7.8622 17.2966 1.62391 -8.68379 1.02056e-05
77 1 9.43466 15.7242 0.0971978 -7.40183 8.0453e-06
78 1 11.007 17.2966 1.62397 -8.68379 7.3707e-06
79 1 12.5795 15.7242 0.0972369 -7.40185 6.75299e-06
80 1 14.1519 17.2966 1.624 -8.68379 7.64619e-06
81 1 15.7243 15.7242 0.0972383 -7.40184 8.45957e-06
82 1 17.2967 17.2966 1.62398 -8.68379 1.13474e-05
83 1 18.8691 15.7242 0.0972007 -7.40183 1.18603e-05
84 1 20.4415 17.2966 1.62391 -8.68379 1.58365e-05
85 1 4.55038e-05 18.869 0.0971122 -7.40179 1.68619e-05
86 1 1.57247 20.4415 1.62382 -8.68379 2.03747e-05
87 1 3.14493 18.869 0.0970947 -7.40178 1.63765e-05
88 1 4.71734 20.4415 1.62383 -8.68379 1.7838e-05
89 1 6.28981 18.869 0.0971187 -7.40179 1.39117e-05
90 1 7.86221 20.4415 1.62388 -8.68379 1.40042e-05
91 1 9.43467 18.869 0.0971662 -7.40181 1.12036e-05
92 1 11.0071 20.4415 1.62394 -8.68379 1.15202e-05
93 1 12.5795 18.869 0.0972014 -7.40183 1.03775e-05
94 1 14.1519 20.4415 1.62397 -8.68379 1.21809e-05
95 1 15.7243 18.869 0.0971977 -7.40183 1.2138e-05
96 1 17.2967 20.4415 1.62393 -8.68379 1.57648e-05
97 1 18.8691 18.869 0.097158 -7.40181 1.50356e-05
98 1 20.4415 20.4415 1.62387 -8.68379 1.95235e-05
99 1 7.10289e-06 2.14808e-16 3.15395 -8.93807 2.1737e-05
100 1 1.57237 1.57242 4.74324 -8.90301 2.39332e-05
101 1 3.14487 1.06323e-15 3.15392 -8.93808 2.11676e-05
102 1 4.71724 1.57242 4.74323 -8.90301 2.18855e-05
103 1 6.28974 9.6144e-16 3.15395 -8.93808 1.75347e-05
104 1 7.86211 1.57241 4.74328 -8.90301 1.70723e-05
105 1 9.4346 5.27792e-16 3.15402 -8.93807 1.35905e-05
106 1 11.007 1.57241 4.74336 -8.90301 1.27022e-05
107 1 12.5794 3.79435e-16 3.15408 -8.93806 1.18976e-05
108 1 14.1518 1.57242 4.7434 -8.90301 1.15757e-05
109 1 15.7243 -3.9032e-16 3.15407 -8.93806 1.3897e-05
110 1 17.2966 1.57242 4.74337 -8.90301 1.51807e-05
111 1 18.8691 9.4578e-17 3.15402 -8.93807 1.84164e-05
112 1 20.4414 1.57242 4.7433 -8.90301 2.1003e-05
113 1 -3.21088e-07 3.14485 3.15398 -8.93807 1.94584e-05
114 1 1.57235 4.71727 4.74328 -8.90301 1.90822e-05
115 1 3.14486 3.14485 3.15394 -8.93808 1.89429e-05
116 1 4.71721 4.71725 4.74325 -8.90301 1.70825e-05
117 1 6.28973 3.14484 3.15397 -8.93808 1.51119e-05
118 1 7.86208 4.71724 4.74329 -8.90301 1.25313e-05
119 1 9.43459 3.14484 3.15403 -8.93807 1.10153e-05
120 1 11.007 4.71724 4.74337 -8.90301 8.41146e-06
121 1 12.5794 3.14484 3.15409 -8.93806 9.12293e-06
122 1 14.1518 4.71725 4.74342 -8.90301 6.63161e-06
123 1 15.7243 3.14485 3.1541 -8.93806 1.09679e-05
124 1 17.2966 4.71726 4.74341 -8.90301 9.5214e-06
125 1 18.8691 3.14485 3.15405 -8.93806 1.57305e-05
126 1 20.4414 4.71727 4.74335 -8.90301 1.56504e-05
127 1 -1.69989e-05 6.2897 3.15403 -8.93807 1.46377e-05
128 1 1.57232 7.86211 4.74332 -8.90301 1.36642e-05
129 1 3.14484 6.28969 3.15399 -8.93807 1.43638e-05
130 1 4.71717 7.8621 4.74328 -8.90301 1.23016e-05
131 1 6.28971 6.28968 3.154 -8.93808 1.05866e-05
132 1 7.86205 7.86209 4.7433 -8.90302 9.26832e-06
133 1 9.43457 6.28968 3.15406 -8.93807 6.78336e-06
134 1 11.0069 7.86209 4.74337 -8.90302 6.39419e-06
135 1 12.5794 6.28968 3.15412 -8.93806 4.60232e-06
136 1 14.1518 7.86209 4.74344 -8.90302 3.43368e-06
137 1 15.7242 6.28969 3.15414 -8.93806 5.58763e-06
138 1 17.2966 7.86211 4.74346 -8.90301 4.17938e-06
139 1 18.8691 6.2897 3.1541 -8.93806 1.02697e-05
140 1 20.4414 7.86211 4.7434 -8.90301 9.76463e-06
141 1 -3.03713e-05 9.43453 3.15407 -8.93806 1.10748e-05
142 1 1.5723 11.007 4.74335 -8.90301 1.14818e-05
143 1 3.14482 9.43453 3.15402 -8.93807 1.11185e-05
144 1 4.71716 11.007 4.74329 -8.90301 1.06135e-05
145 1 6.28969 9.43453 3.15402 -8.93808 7.89348e-06
146 1 7.86203 11.007 4.7433 -8.90302 8.69111e-06
147 1 9.43456 9.43453 3.15407 -8.93808 4.97503e-06
148 1 11.0069 11.007 4.74337 -8.90303 6.7126e-06
149 1 12.5794 9.43453 3.15414 -8.93807 2.72144e-06
150 1 14.1518 11.007 4.74345 -8.90302 3.08662e-06
151 1 15.7242 9.43453 3.15417 -8.93806 2.48897e-06
152 1 17.2966 11.007 4.74348 -8.90301 2.41938e-06
153 1 18.869 9.43453 3.15414 -8.93806 6.46921e-06
154 1 20.4414 11.007 4.74343 -8.90301 7.42921e-06
155 1 -3.03713e-05 12.5794 3.15407 -8.93806 1.10748e-05
156 1 1.57232 14.1518 4.74332 -8.90301 1.36642e-05
157 1 3.14482 12.5794 3.15402 -8.93807 1.11185e-05
158 1 4.71717 14.1518 4.74328 -8.90301 1.23016e-05
159 1 6.28969 12.5794 3.15402 -8.93808 7.89348e-06
160 1 7.86205 14.1518 4.7433 -8.90302 9.26832e-06
161 1 9.43456 12.5794 3.15407 -8.93808 4.97503e-06
162 1 11.0069 14.1518 4.74337 -8.90302 6.39419e-06
163 1 12.5794 12.5794 3.15414 -8.93807 2.72144e-06
164 1 14.1518 14.1518 4.74344 -8.90302 3.43368e-06
165 1 15.7242 12.5794 3.15417 -8.93806 2.48897e-06
166 1 17.2966 14.1518 4.74346 -8.90301 4.17938e-06
167 1 18.869 12.5794 3.15414 -8.93806 6.46921e-06
168 1 20.4414 14.1518 4.7434 -8.90301 9.76463e-06
169 1 -1.69989e-05 15.7242 3.15403 -8.93807 1.46377e-05
170 1 1.57235 17.2966 4.74328 -8.90301 1.90822e-05
171 1 3.14484 15.7242 3.15399 -8.93807 1.43638e-05
172 1 4.71721 17.2966 4.74325 -8.90301 1.70825e-05
173 1 6.28971 15.7242 3.154 -8.93808 1.05866e-05
174 1 7.86208 17.2967 4.74329 -8.90301 1.25313e-05
175 1 9.43457 15.7242 3.15406 -8.93807 6.78336e-06
176 1 11.007 17.2967 4.74337 -8.90301 8.41146e-06
177 1 12.5794 15.7242 3.15412 -8.93806 4.60232e-06
178 1 14.1518 17.2967 4.74342 -8.90301 6.63161e-06
179 1 15.7242 15.7242 3.15414 -8.93806 5.58763e-06
180 1 17.2966 17.2966 4.74341 -8.90301 9.5214e-06
181 1 18.8691 15.7242 3.1541 -8.93806 1.02697e-05
182 1 20.4414 17.2966 4.74335 -8.90301 1.56504e-05
183 1 -3.21088e-07 18.869 3.15398 -8.93807 1.94584e-05
184 1 1.57237 20.4415 4.74324 -8.90301 2.39332e-05
185 1 3.14486 18.8691 3.15394 -8.93808 1.89429e-05
186 1 4.71724 20.4415 4.74323 -8.90301 2.18855e-05
187 1 6.28973 18.8691 3.15397 -8.93808 1.51119e-05
188 1 7.86211 20.4415 4.74328 -8.90301 1.70723e-05
189 1 9.43459 18.8691 3.15403 -8.93807 1.10153e-05
190 1 11.007 20.4415 4.74336 -8.90301 1.27022e-05
191 1 12.5794 18.8691 3.15409 -8.93806 9.12293e-06
192 1 14.1518 20.4415 4.7434 -8.90301 1.15757e-05
193 1 15.7243 18.8691 3.1541 -8.93806 1.09679e-05
194 1 17.2966 20.4415 4.74337 -8.90301 1.51807e-05
195 1 18.8691 18.869 3.15405 -8.93806 1.57305e-05
196 1 20.4414 20.4415 4.7433 -8.90301 2.1003e-05
197 1 -0.00014936 1.41069e-16 6.30501 -8.88812 2.78475e-05
198 1 1.57214 1.57242 7.87421 -8.90467 3.58392e-05
199 1 3.14471 -6.31844e-18 6.30496 -8.88812 3.01693e-05
200 1 4.71702 1.5724 7.87418 -8.90467 3.60098e-05
201 1 6.2896 1.4309e-16 6.30498 -8.88812 2.63886e-05
202 1 7.86192 1.57239 7.87424 -8.90467 2.92733e-05
203 1 9.43448 2.76262e-16 6.30507 -8.88812 1.97084e-05
204 1 11.0068 1.57239 7.87434 -8.90467 2.02503e-05
205 1 12.5793 3.99256e-16 6.30515 -8.88812 1.41739e-05
206 1 14.1516 1.5724 7.87441 -8.90467 1.40799e-05
207 1 15.7241 -4.54484e-16 6.30516 -8.88811 1.40374e-05
208 1 17.2964 1.57242 7.8744 -8.90467 1.66195e-05
209 1 18.8689 5.56483e-17 6.3051 -8.88812 2.03505e-05
210 1 20.4412 1.57242 7.8743 -8.90467 2.70574e-05
211 1 -0.000166921 3.14485 6.30504 -8.88812 2.39597e-05
212 1 1.57209 4.71725 7.87424 -8.90467 2.67459e-05
213 1 3.14469 3.14483 6.30498 -8.88812 2.64952e-05
214 1 4.71695 4.71722 7.87418 -8.90467 2.76331e-05
215 1 6.28957 3.14481 6.30499 -8.88812 2.28664e-05
216 1 7.86185 4.71719 7.87419 -8.90467 2.32965e-05
217 1 9.43445 3.14481 6.30506 -8.88812 1.66643e-05
218 1 11.0068 4.71718 7.87429 -8.90467 1.71122e-05
219 1 12.5793 3.14481 6.30514 -8.88811 1.11525e-05
220 1 14.1516 4.71721 7.8744 -8.90466 9.89084e-06
221 1 15.7241 3.14483 6.30517 -8.88811 1.02419e-05
222 1 17.2964 4.71725 7.87443 -8.90466 8.71286e-06
223 1 18.8689 3.14484 6.30513 -8.88811 1.61443e-05
224 1 20.4412 4.71727 7.87436 -8.90467 1.75776e-05
225 1 -0.000206329 6.28969 6.30509 -8.88812 1.59952e-05
226 1 1.57202 7.8621 7.87429 -8.90467 1.70848e-05
227 1 3.14463 6.28967 6.30501 -8.88812 1.92487e-05
228 1 4.71685 7.86206 7.87417 -8.90467 2.03297e-05
229 1 6.28951 6.28965 6.30498 -8.88812 1.71592e-05
230 1 7.86175 7.86203 7.87411 -8.90469 2.23737e-05
231 1 9.4344 6.28963 6.30503 -8.88812 1.36733e-05
232 1 11.0067 7.86202 7.87418 -8.9047 2.2742e-05
233 1 12.5793 6.28964 6.30512 -8.88812 8.75486e-06
234 1 14.1516 7.86205 7.87434 -8.90468 1.3437e-05
235 1 15.7241 6.28966 6.30519 -8.88811 4.87469e-06
236 1 17.2964 7.86209 7.87445 -8.90466 3.96627e-06
237 1 18.8689 6.28969 6.30518 -8.88811 8.22584e-06
238 1 20.4411 7.86211 7.87442 -8.90467 8.04593e-06
239 1 -0.0002379 9.43453 6.30514 -8.88812 1.03901e-05
240 1 1.57198 11.007 7.87431 -8.90467 1.34007e-05
241 1 3.14459 9.43452 6.30504 -8.88812 1.44708e-05
242 1 4.71681 11.007 7.87416 -8.90467 1.82362e-05
243 1 6.28946 9.43451 6.30497 -8.88813 1.48458e-05
244 1 7.86171 11.007 7.87407 -8.9047 2.43812e-05
245 1 9.43436 9.4345 6.30499 -8.88814 1.52354e-05
246 1 11.0067 11.007 7.87411 -8.90473 2.87907e-05
247 1 12.5793 9.43451 6.30509 -8.88814 1.13324e-05
248 1 14.1516 11.007 7.87431 -8.90469 1.82193e-05
249 1 15.7241 9.43452 6.3052 -8.88812 3.77447e-06
250 1 17.2964 11.007 7.87446 -8.90466 3.69633e-06
251 1 18.8689 9.43453 6.30522 -8.88811 3.41647e-06
252 1 20.4411 11.007 7.87444 -8.90467 4.63078e-06
253 1 -0.0002379 12.5794 6.30514 -8.88812 1.03901e-05
254 1 1.57202 14.1518 7.87429 -8.90467 1.70848e-05
255 1 3.14459 12.5794 6.30504 -8.88812 1.44708e-05
256 1 4.71685 14.1518 7.87417 -8.90467 2.03297e-05
257 1 6.28946 12.5794 6.30497 -8.88813 1.48458e-05
258 1 7.86175 14.1519 7.87411 -8.90469 2.23737e-05
259 1 9.43436 12.5794 6.30499 -8.88814 1.52354e-05
260 1 11.0067 14.1519 7.87418 -8.9047 2.2742e-05
261 1 12.5793 12.5794 6.30509 -8.88814 1.13324e-05
262 1 14.1516 14.1519 7.87434 -8.90468 1.3437e-05
263 1 15.7241 12.5794 6.3052 -8.88812 3.77447e-06
264 1 17.2964 14.1518 7.87445 -8.90466 3.96627e-06
265 1 18.8689 12.5794 6.30522 -8.88811 3.41647e-06
266 1 20.4411 14.1518 7.87442 -8.90467 8.04593e-06
267 1 -0.000206329 15.7242 6.30509 -8.88812 1.59952e-05
268 1 1.57209 17.2966 7.87424 -8.90467 2.67459e-05
269 1 3.14463 15.7242 6.30501 -8.88812 1.92487e-05
270 1 4.71695 17.2967 7.87418 -8.90467 2.76331e-05
271 1 6.28951 15.7243 6.30498 -8.88812 1.71592e-05
272 1 7.86185 17.2967 7.87419 -8.90467 2.32965e-05
273 1 9.4344 15.7243 6.30503 -8.88812 1.36733e-05
274 1 11.0068 17.2967 7.87429 -8.90467 1.71122e-05
275 1 12.5793 15.7243 6.30512 -8.88812 8.75486e-06
276 1 14.1516 17.2967 7.8744 -8.90466 9.89084e-06
277 1 15.7241 15.7242 6.30519 -8.88811 4.87469e-06
278 1 17.2964 17.2967 7.87443 -8.90466 8.71286e-06
279 1 18.8689 15.7242 6.30518 -8.88811 8.22584e-06
280 1 20.4412 17.2966 7.87436 -8.90467 1.75776e-05
281 1 -0.000166921 18.8691 6.30504 -8.88812 2.39597e-05
282 1 1.57214 20.4415 7.87421 -8.90467 3.58392e-05
283 1 3.14469 18.8691 6.30498 -8.88812 2.64952e-05
284 1 4.71702 20.4415 7.87418 -8.90467 3.60098e-05
285 1 6.28957 18.8691 6.30499 -8.88812 2.28664e-05
286 1 7.86192 20.4415 7.87424 -8.90467 2.92733e-05
287 1 9.43445 18.8691 6.30506 -8.88812 1.66643e-05
288 1 11.0068 20.4415 7.87434 -8.90467 2.02503e-05
289 1 12.5793 18.8691 6.30514 -8.88811 1.11525e-05
290 1 14.1516 20.4415 7.87441 -8.90467 1.40799e-05
291 1 15.7241 18.8691 6.30517 -8.88811 1.02419e-05
292 1 17.2964 20.4415 7.8744 -8.90467 1.66195e-05
293 1 18.8689 18.8691 6.30513 -8.88811 1.61443e-05
294 1 20.4412 20.4415 7.8743 -8.90467 2.70574e-05
295 1 -0.00043798 -4.56811e-16 9.44256 -8.89866 4.23512e-05
296 1 1.57178 1.57242 11.0106 -8.9001 5.7744e-05
297 1 3.14443 -6.55792e-16 9.44247 -8.89866 5.01802e-05
298 1 4.71668 1.57239 11.0106 -8.90009 5.93106e-05
299 1 6.28934 -6.35754e-16 9.4425 -8.89866 4.56791e-05
300 1 7.8616 1.57236 11.0107 -8.90009 4.81074e-05
301 1 9.43424 -1.52433e-16 9.44261 -8.89866 3.42341e-05
302 1 11.0065 1.57236 11.0108 -8.90009 3.32184e-05
303 1 12.5791 7.43375e-16 9.44273 -8.89866 2.20045e-05
304 1 14.1513 1.57238 11.011 -8.90009 1.99501e-05
305 1 15.7239 -1.27143e-16 9.44277 -8.89865 1.72806e-05
306 1 17.2961 1.57242 11.0109 -8.90009 2.03991e-05
307 1 18.8687 -3.67535e-16 9.44269 -8.89866 2.65209e-05
308 1 20.4408 1.57243 11.0108 -8.9001 3.91542e-05
309 1 -0.000476621 3.14484 9.44259 -8.89866 3.4284e-05
310 1 1.57165 4.71725 11.0107 -8.90009 3.74538e-05
311 1 3.14437 3.14481 9.44248 -8.89865 4.22516e-05
312 1 4.7165 4.71716 11.0106 -8.90006 3.96602e-05
313 1 6.28927 3.14477 9.44247 -8.89865 3.84625e-05
314 1 7.86142 4.71708 11.0105 -8.90007 3.62101e-05
315 1 9.43419 3.14475 9.44256 -8.89865 2.96529e-05
316 1 11.0064 4.71706 11.0106 -8.90007 3.40528e-05
317 1 12.5791 3.14476 9.44269 -8.89865 1.90537e-05
318 1 14.1513 4.71713 11.0108 -8.90006 2.1317e-05
319 1 15.7239 3.1448 9.44277 -8.89865 1.21973e-05
320 1 17.296 4.71723 11.011 -8.90006 9.40079e-06
321 1 18.8686 3.14484 9.44272 -8.89865 1.88408e-05
322 1 20.4408 4.71728 11.0109 -8.90009 2.0102e-05
323 1 -0.000563173 6.28968 9.44266 -8.89865 1.87734e-05
324 1 1.5715 7.86209 11.0107 -8.90009 1.78384e-05
325 1 3.14425 6.28964 9.4425 -8.89865 2.7463e-05
326 1 4.71629 7.862 11.0105 -8.90007 2.48662e-05
327 1 6.28912 6.28957 9.44238 -8.89864 2.87934e-05
328 1 7.86118 7.8619 11.0102 -8.90011 4.24198e-05
329 1 9.43406 6.28953 9.44238 -8.89865 3.14099e-05
330 1 11.0063 7.86187 11.0102 -8.90014 6.80336e-05
331 1 12.579 6.28955 9.44254 -8.89865 2.69251e-05
332 1 14.1513 7.86194 11.0106 -8.90009 5.46256e-05
333 1 15.7238 6.28961 9.44273 -8.89863 1.15516e-05
334 1 17.296 7.86206 11.0109 -8.90006 1.44009e-05
335 1 18.8686 6.28968 9.44278 -8.89865 6.89789e-06
336 1 20.4407 7.86211 11.011 -8.90009 4.7946e-06
337 1 -0.000632429 9.43453 9.44272 -8.89866 9.00853e-06
338 1 1.57143 11.007 11.0108 -8.90009 1.1238e-05
339 1 3.14414 9.43451 9.44251 -8.89865 1.87572e-05
340 1 4.71619 11.007 11.0104 -8.90007 2.19599e-05
341 1 6.28899 9.43447 9.44229 -8.89865 2.7879e-05
342 1 7.86107 11.007 11.01 -8.90014 5.32748e-05
343 1 9.43396 9.43444 9.44217 -8.89872 4.54677e-05
344 1 11.0062 11.007 11.0099 -8.90035 9.57632e-05
345 1 12.579 9.43445 9.44234 -8.89872 4.83005e-05
346 1 14.1512 11.007 11.0104 -8.90013 8.11252e-05
347 1 15.7238 9.43449 9.44267 -8.89864 2.20003e-05
348 1 17.296 11.007 11.0109 -8.90006 2.34064e-05
349 1 18.8685 9.43452 9.44282 -8.89865 2.68075e-06
350 1 20.4406 11.007 11.011 -8.90009 1.06049e-06
351 1 -0.000632429 12.5794 9.44272 -8.89866 9.00853e-06
352 1 1.5715 14.1518 11.0107 -8.90009 1.78384e-05
353 1 3.14414 12.5794 9.44251 -8.89865 1.87572e-05
354 1 4.71629 14.1519 11.0105 -8.90007 2.48662e-05
355 1 6.28899 12.5794 9.44229 -8.89865 2.7879e-05
356 1 7.86118 14.152 11.0102 -8.90011 4.24198e-05
357 1 9.43396 12.5795 9.44217 -8.89872 4.54677e-05
358 1 11.0063 14.152 11.0102 -8.90014 6.80336e-05
359 1 12.579 12.5794 9.44234 -8.89872 4.83005e-05
360 1 14.1513 14.152 11.0106 -8.90009 5.46256e-05
361 1 15.7238 12.5794 9.44267 -8.89864 2.20003e-05
362 1 17.296 14.1518 11.0109 -8.90006 1.44009e-05
363 1 18.8685 12.5794 9.44282 -8.89865 2.68075e-06
364 1 20.4407 14.1518 11.011 -8.90009 4.7946e-06
365 1 -0.000563173 15.7242 9.44266 -8.89865 1.87734e-05
366 1 1.57165 17.2967 11.0107 -8.90009 3.74538e-05
367 1 3.14425 15.7243 9.4425 -8.89865 2.7463e-05
368 1 4.7165 17.2967 11.0106 -8.90006 3.96602e-05
369 1 6.28912 15.7243 9.44238 -8.89864 2.87934e-05
370 1 7.86142 17.2968 11.0105 -8.90007 3.62101e-05
371 1 9.43406 15.7244 9.44238 -8.89865 3.14099e-05
372 1 11.0064 17.2968 11.0106 -8.90007 3.40528e-05
373 1 12.579 15.7244 9.44254 -8.89865 2.69251e-05
374 1 14.1513 17.2968 11.0108 -8.90006 2.1317e-05
375 1 15.7238 15.7243 9.44273 -8.89863 1.15516e-05
376 1 17.296 17.2967 11.011 -8.90006 9.40079e-06
377 1 18.8686 15.7242 9.44278 -8.89865 6.89789e-06
378 1 20.4408 17.2966 11.0109 -8.90009 2.0102e-05
379 1 -0.000476621 18.8691 9.44259 -8.89866 3.4284e-05
380 1 1.57178 20.4415 11.0106 -8.9001 5.7744e-05
381 1 3.14437 18.8691 9.44248 -8.89865 4.22516e-05
382 1 4.71668 20.4415 11.0106 -8.90009 5.93106e-05
383 1 6.28927 18.8691 9.44247 -8.89865 3.84625e-05
384 1 7.8616 20.4415 11.0107 -8.90009 4.81074e-05
385 1 9.43419 18.8692 9.44256 -8.89865 2.96529e-05
386 1 11.0065 20.4415 11.0108 -8.90009 3.32184e-05
387 1 12.5791 18.8691 9.44269 -8.89865 1.90537e-05
388 1 14.1513 20.4415 11.011 -8.90009 1.99501e-05
389 1 15.7239 18.8691 9.44277 -8.89865 1.21973e-05
390 1 17.2961 20.4415 11.0109 -8.90009 2.03991e-05
391 1 18.8686 18.8691 9.44272 -8.89865 1.88408e-05
392 1 20.4408 20.4415 11.0108 -8.9001 3.91542e-05
393 1 -0.000869306 -6.36515e-16 12.5788 -8.89869 6.63854e-05
394 1 3.14404 -1.60793e-15 12.5787 -8.89868 7.95456e-05
395 1 6.28896 -1.10656e-15 12.5788 -8.89868 6.94338e-05
396 1 9.43387 -6.03804e-16 12.5789 -8.89868 5.0886e-05
397 1 12.5787 1.55077e-16 12.5791 -8.89868 3.21132e-05
398 1 15.7235 -2.80597e-16 12.5792 -8.89867 2.2368e-05
399 1 18.8682 1.60628e-17 12.579 -8.89868 3.72505e-05
400 1 22.013 3.14488 12.5789 -8.89868 4.89358e-05
401 1 3.14393 3.14481 12.5787 -8.89867 6.10815e-05
402 1 6.28883 3.14472 12.5787 -8.89864 5.11622e-05
403 1 9.43376 3.14466 12.5788 -8.89865 4.0143e-05
404 1 12.5787 3.1447 12.579 -8.89865 2.87826e-05
405 1 15.7234 3.1448 12.5792 -8.89864 1.48521e-05
406 1 18.8682 3.14488 12.5791 -8.89867 2.19448e-05
407 1 22.0128 6.28971 12.579 -8.89867 1.85721e-05
408 1 3.14366 6.28962 12.5788 -8.89864 2.85826e-05
409 1 6.28847 6.28943 12.5785 -8.89854 2.91682e-05
410 1 9.43347 6.28931 12.5783 -8.8986 5.3788e-05
411 1 12.5786 6.28936 12.5786 -8.8986 7.02003e-05
412 1 15.7234 6.28953 12.579 -8.89853 3.54275e-05
413 1 18.8681 6.28969 12.5792 -8.89864 5.89005e-06
414 1 22.0126 9.43454 12.5791 -8.89868 3.45219e-06
415 1 3.14345 9.43449 12.5787 -8.89865 1.21793e-05
416 1 6.28818 9.43439 12.5782 -8.8986 3.22552e-05
417 1 9.43319 9.43427 12.5775 -8.89878 0.000106409
418 1 12.5785 9.43429 12.5778 -8.89878 0.000155693
419 1 15.7234 9.43443 12.5788 -8.8986 9.02957e-05
420 1 18.868 9.43452 12.5792 -8.89865 1.18528e-05
421 1 22.0126 12.5794 12.5791 -8.89868 3.45219e-06
422 1 3.14345 12.5794 12.5787 -8.89865 1.21793e-05
423 1 6.28818 12.5795 12.5782 -8.8986 3.22552e-05
424 1 9.43319 12.5796 12.5775 -8.89878 0.000106409
425 1 12.5785 12.5796 12.5778 -8.89878 0.000155693
426 1 15.7234 12.5795 12.5788 -8.8986 9.02957e-05
427 1 18.868 12.5794 12.5792 -8.89865 1.18528e-05
428 1 22.0128 15.7242 12.579 -8.89867 1.85721e-05
429 1 3.14366 15.7243 12.5788 -8.89864 2.85826e-05
430 1 6.28847 15.7245 12.5785 -8.89854 2.91682e-05
431 1 9.43347 15.7246 12.5783 -8.8986 5.3788e-05
432 1 12.5786 15.7245 12.5786 -8.8986 7.02003e-05
433 1 15.7234 15.7244 12.579 -8.89853 3.54275e-05
434 1 18.8681 15.7242 12.5792 -8.89864 5.89005e-06
435 1 22.013 18.869 12.5789 -8.89868 4.89358e-05
436 1 3.14393 18.8691 12.5787 -8.89867 6.10815e-05
437 1 6.28883 18.8692 12.5787 -8.89864 5.11622e-05
438 1 9.43376 18.8692 12.5788 -8.89865 4.0143e-05
439 1 12.5787 18.8692 12.579 -8.89865 2.87826e-05
440 1 15.7234 18.8691 12.5792 -8.89864 1.48521e-05
441 1 18.8682 18.869 12.5791 -8.89867 2.19448e-05
442 1 1.57132 1.57246 14.1471 -8.9047 8.62376e-05
443 1 4.71626 1.5724 14.1471 -8.90468 8.16588e-05
444 1 7.86117 1.57235 14.1472 -8.9047 5.91579e-05
445 1 11.006 1.57235 14.1474 -8.90469 4.07984e-05
446 1 14.1508 1.5724 14.1476 -8.90469 2.42953e-05
447 1 17.2955 1.57246 14.1476 -8.90468 2.48404e-05
448 1 20.4403 1.57248 14.1473 -8.9047 5.67868e-05
449 1 1.5711 4.71731 14.1472 -8.90468 4.5791e-05
450 1 4.71595 4.71715 14.1471 -8.90465 3.78372e-05
451 1 7.86081 4.71695 14.1469 -8.90465 3.02086e-05
452 1 11.0058 4.71693 14.1471 -8.90466 4.92289e-05
453 1 14.1507 4.71708 14.1475 -8.90465 4.19938e-05
454 1 17.2954 4.7173 14.1477 -8.90465 1.1118e-05
455 1 20.4401 4.71737 14.1475 -8.90468 2.09002e-05
456 1 1.5708 7.86212 14.1473 -8.90469 1.20615e-05
457 1 4.71549 7.86193 14.1468 -8.90465 9.40897e-06
458 1 7.86019 7.86159 14.146 -8.90441 5.56406e-05
459 1 11.0055 7.86152 14.1457 -8.90466 0.00016663
460 1 14.1508 7.86169 14.1466 -8.90438 0.000172028
461 1 17.2954 7.86205 14.1476 -8.90465 5.55495e-05
462 1 20.44 7.86216 14.1476 -8.90469 3.20641e-06
463 1 1.57067 11.007 14.1473 -8.90469 3.51221e-06
464 1 4.71529 11.007 14.1467 -8.90466 7.23049e-06
465 1 7.85995 11.007 14.1454 -8.90467 9.23204e-05
466 1 11.0054 11.007 14.1445 -8.90675 0.00026248
467 1 14.1508 11.007 14.1461 -8.90465 0.000269216
468 1 17.2953 11.007 14.1475 -8.90465 9.79947e-05
469 1 20.4399 11.007 14.1477 -8.90469 5.3878e-06
470 1 1.5708 14.1518 14.1473 -8.90469 1.20615e-05
471 1 4.71549 14.152 14.1468 -8.90465 9.40897e-06
472 1 7.86019 14.1523 14.146 -8.90441 5.56406e-05
473 1 11.0055 14.1524 14.1457 -8.90466 0.00016663
474 1 14.1508 14.1522 14.1466 -8.90438 0.000172028
475 1 17.2954 14.1519 14.1476 -8.90465 5.55495e-05
476 1 20.44 14.1517 14.1476 -8.90469 3.20641e-06
477 1 1.5711 17.2966 14.1472 -8.90468 4.5791e-05
478 1 4.71595 17.2967 14.1471 -8.90465 3.78372e-05
479 1 7.86081 17.2969 14.1469 -8.90465 3.02086e-05
480 1 11.0058 17.297 14.1471 -8.90466 4.92289e-05
481 1 14.1507 17.2968 14.1475 -8.90465 4.19938e-05
482 1 17.2954 17.2966 14.1477 -8.90465 1.1118e-05
483 1 20.4401 17.2965 14.1475 -8.90468 2.09002e-05
484 1 1.57132 20.4414 14.1471 -8.9047 8.62376e-05
485 1 4.71626 20.4415 14.1471 -8.90468 8.16588e-05
486 1 7.86117 20.4416 14.1472 -8.9047 5.91579e-05
487 1 11.006 20.4416 14.1474 -8.90469 4.07984e-05
488 1 14.1508 20.4415 14.1476 -8.90469 2.42953e-05
489 1 17.2955 20.4414 14.1476 -8.90468 2.48404e-05
490 1 20.4403 20.4414 14.1473 -8.9047 5.67868e-05
491 1 22.0125 -3.20394e-16 15.7163 -8.88819 9.75495e-05
492 1 1.57093 1.57255 17.2779 -8.90298 0.000112937
493 1 3.14367 -8.91813e-16 15.7162 -8.88819 0.000109224
494 1 4.71601 1.57258 17.2781 -8.90304 9.26156e-05
495 1 6.2886 -1.14973e-15 15.7164 -8.88817 8.32619e-05
496 1 7.86082 1.57254 17.2784 -8.90311 5.14503e-05
497 1 9.43344 -8.14754e-16 15.7167 -8.8882 5.55877e-05
498 1 11.0055 1.57255 17.2788 -8.9031 3.37647e-05
499 1 12.5782 -3.76963e-16 15.7169 -8.88819 3.74321e-05
500 1 14.1501 1.57263 17.279 -8.90309 2.43248e-05
501 1 15.7229 8.86318e-17 15.717 -8.88817 2.8898e-05
502 1 17.2947 1.57269 17.2787 -8.90303 3.20345e-05
503 1 18.8676 5.54157e-17 15.7167 -8.8882 5.41781e-05
504 1 20.4397 1.5726 17.2782 -8.90298 7.85706e-05
505 1 22.0124 3.145 15.7165 -8.88819 6.64826e-05
506 1 1.57067 4.71755 17.2783 -8.90303 5.80316e-05
507 1 3.14352 3.14493 15.7163 -8.88818 7.5622e-05
508 1 4.71578 4.71758 17.2784 -8.90324 3.01526e-05
509 1 6.28839 3.1448 15.7164 -8.88809 4.50059e-05
510 1 7.86029 4.7172 17.2783 -8.90294 4.10331e-06
511 1 9.43324 3.14471 15.7166 -8.88817 2.9265e-05
512 1 11.0051 4.71718 17.2784 -8.90285 5.64971e-05
513 1 12.5781 3.14479 15.7169 -8.88817 2.93393e-05
514 1 14.1498 4.71746 17.279 -8.90291 7.21343e-05
515 1 15.7228 3.14496 15.7171 -8.88809 1.43339e-05
516 1 17.2942 4.71786 17.2792 -8.90323 1.40637e-05
517 1 18.8675 3.14505 15.7168 -8.88818 2.49615e-05
518 1 20.4393 4.71766 17.2786 -8.90303 2.44912e-05
519 1 22.0121 6.28983 15.7167 -8.88817 1.98782e-05
520 1 1.57022 7.86227 17.2785 -8.90311 2.78455e-05
521 1 3.14309 6.2897 15.7165 -8.88808 2.19776e-05
522 1 4.71493 7.86206 17.2781 -8.90294 9.63668e-06
523 1 6.28775 6.28938 15.7161 -8.88769 5.35889e-06
524 1 7.85874 7.86103 17.2766 -8.90274 8.89716e-05
525 1 9.43266 6.28906 15.7156 -8.88787 7.23606e-05
526 1 11.0046 7.86112 17.2752 -8.90499 0.000378042
527 1 12.5779 6.28917 15.716 -8.88788 0.000157192
528 1 14.1503 7.86127 17.2776 -8.90264 0.000460624
529 1 15.7227 6.2896 15.717 -8.88772 9.46964e-05
530 1 17.2942 7.8623 17.2793 -8.90291 0.000158303
531 1 18.8672 6.28985 15.7171 -8.88809 1.00878e-05
532 1 20.439 7.86236 17.279 -8.9031 2.2091e-05
533 1 22.0119 9.43458 15.7169 -8.88819 7.966e-06
534 1 1.57001 11.007 17.2786 -8.9031 2.95792e-05
535 1 3.1427 9.43451 15.7164 -8.88817 3.17384e-06
536 1 4.71458 11.007 17.2778 -8.90286 2.43556e-05
537 1 6.28709 9.43428 15.7153 -8.88786 2.78214e-05
538 1 7.85848 11.007 17.2747 -8.90506 0.00019699
539 1 9.43176 9.43373 15.7129 -8.8871 0.000233548
540 1 11.0043 11.007 17.268 -8.91712 0.000592616
541 1 12.5782 9.43378 15.7134 -8.88712 0.000425081
542 1 14.1501 11.007 17.2758 -8.90491 0.000728587
543 1 15.7228 9.43438 15.7163 -8.88789 0.000278782
544 1 17.2941 11.007 17.279 -8.90284 0.000285104
545 1 18.8671 9.43458 15.7172 -8.88818 5.3446e-05
546 1 20.4388 11.007 17.2791 -8.90309 4.64683e-05
547 1 22.0119 12.5793 15.7169 -8.88819 7.966e-06
548 1 1.57022 14.1516 17.2785 -8.90311 2.78455e-05
549 1 3.1427 12.5794 15.7164 -8.88817 3.17384e-06
550 1 4.71493 14.1518 17.2781 -8.90294 9.63668e-06
551 1 6.28709 12.5796 15.7153 -8.88786 2.78214e-05
552 1 7.85874 14.1529 17.2766 -8.90274 8.89716e-05
553 1 9.43176 12.5802 15.7129 -8.8871 0.000233548
554 1 11.0046 14.1528 17.2752 -8.90499 0.000378042
555 1 12.5782 12.5801 15.7134 -8.88712 0.000425081
556 1 14.1503 14.1526 17.2776 -8.90264 0.000460624
557 1 15.7228 12.5795 15.7163 -8.88789 0.000278782
558 1 17.2942 14.1516 17.2793 -8.90291 0.000158303
559 1 18.8671 12.5793 15.7172 -8.88818 5.3446e-05
560 1 20.439 14.1515 17.279 -8.9031 2.2091e-05
561 1 22.0121 15.7241 15.7167 -8.88817 1.98782e-05
562 1 1.57067 17.2963 17.2783 -8.90303 5.80316e-05
563 1 3.14309 15.7242 15.7165 -8.88808 2.19776e-05
564 1 4.71578 17.2963 17.2784 -8.90324 3.01526e-05
565 1 6.28775 15.7245 15.7161 -8.88769 5.35889e-06
566 1 7.86029 17.2967 17.2783 -8.90294 4.10331e-06
567 1 9.43266 15.7248 15.7156 -8.88787 7.23606e-05
568 1 11.0051 17.2967 17.2784 -8.90285 5.64971e-05
569 1 12.5779 15.7247 15.716 -8.88788 0.000157192
570 1 14.1498 17.2964 17.279 -8.90291 7.21343e-05
571 1 15.7227 15.7243 15.717 -8.88772 9.46964e-05
572 1 17.2942 17.296 17.2792 -8.90323 1.40637e-05
573 1 18.8672 15.724 15.7171 -8.88809 1.00878e-05
574 1 20.4393 17.2962 17.2786 -8.90303 2.44912e-05
575 1 22.0124 18.8689 15.7165 -8.88819 6.64826e-05
576 1 1.57093 20.4413 17.2779 -8.90298 0.000112937
577 1 3.14352 18.869 15.7163 -8.88818 7.5622e-05
578 1 4.71601 20.4413 17.2781 -8.90304 9.26156e-05
579 1 6.28839 18.8691 15.7164 -8.88809 4.50059e-05
580 1 7.86082 20.4414 17.2784 -8.90311 5.14503e-05
581 1 9.43324 18.8692 15.7166 -8.88817 2.9265e-05
582 1 11.0055 20.4414 17.2788 -8.9031 3.37647e-05
583 1 12.5781 18.8691 15.7169 -8.88817 2.93393e-05