ITEM: TIMESTEP
178
ITEM: NUMBER OF ATOMS
736
ITEM: BOX BOUNDS pp pp pp
0.0000000000000000e+00 2.2013900999999997e+01
0.0000000000000000e+00 2.2013900999999997e+01
0.0000000000000000e+00 5.3462330999999999e+01
ITEM: ATOMS id type x y z c_pot c_ke
1 1 -0.000279223 1.20245e-15 0.0975217 -7.40186 1.23813e-06
2 1 1.57209 1.5724 1.62429 -8.68379 1.37917e-06
3 1 3.14454 1.18777e-15 0.0974924 -7.40185 1.4596e-06
4 1 4.71692 1.5724 1.62423 -8.68379 1.44159e-06
5 1 6.28938 4.99864e-16 0.0974565 -7.40183 1.52232e-06
6 1 7.86178 1.5724 1.62419 -8.68378 1.34877e-06
7 1 9.43426 -3.73796e-17 0.0974411 -7.40183 1.38728e-06
8 1 11.0067 1.5724 1.62419 -8.68378 1.18775e-06
9 1 12.5791 6.32892e-16 0.0974576 -7.40183 1.15043e-06
10 1 14.1515 1.5724 1.62423 -8.68378 1.03955e-06
11 1 15.724 1.27871e-15 0.0974937 -7.40185 9.8444e-07
12 1 17.2964 1.5724 1.62428 -8.68379 1.01652e-06
13 1 18.8688 1.23205e-15 0.0975222 -7.40186 1.02259e-06
14 1 20.4412 1.5724 1.62431 -8.68379 1.1759e-06
15 1 -0.000281968 3.14481 0.0975082 -7.40185 1.17409e-06
16 1 1.57209 4.71723 1.62425 -8.68379 1.2145e-06
17 1 3.14453 3.14481 0.0974761 -7.40184 1.39639e-06
18 1 4.71691 4.71722 1.62418 -8.68378 1.2926e-06
19 1 6.28938 3.1448 0.0974341 -7.40182 1.46953e-06
20 1 7.86177 4.71721 1.62412 -8.68378 1.23849e-06
21 1 9.43426 3.14479 0.0974138 -7.40182 1.34743e-06
22 1 11.0067 4.71721 1.62411 -8.68377 1.11216e-06
23 1 12.5791 3.14479 0.0974306 -7.40182 1.11605e-06
24 1 14.1515 4.71721 1.62416 -8.68378 9.65079e-07
25 1 15.724 3.1448 0.0974717 -7.40184 9.43295e-07
26 1 17.2964 4.71722 1.62423 -8.68378 9.08177e-07
27 1 18.8688 3.14481 0.0975063 -7.40185 9.68043e-07
28 1 20.4412 4.71723 1.62427 -8.68379 1.0279e-06
29 1 -0.000288136 6.28965 0.0974781 -7.40184 1.03818e-06
30 1 1.57208 7.86208 1.6242 -8.68378 1.04713e-06
31 1 3.14452 6.28964 0.0974395 -7.40183 1.26229e-06
32 1 4.71689 7.86207 1.62412 -8.68378 1.14615e-06
33 1 6.28936 6.28963 0.0973833 -7.4018 1.35974e-06
34 1 7.86176 7.86206 1.62403 -8.68377 1.14446e-06
35 1 9.43425 6.28962 0.0973518 -7.40179 1.26795e-06
36 1 11.0066 7.86206 1.62401 -8.68377 1.0653e-06
37 1 12.5791 6.28962 0.097369 -7.4018 1.04952e-06
38 1 14.1515 7.86206 1.62407 -8.68377 9.20138e-07
39 1 15.724 6.28963 0.097422 -7.40182 8.61058e-07
40 1 17.2964 7.86207 1.62417 -8.68378 8.17729e-07
41 1 18.8688 6.28964 0.0974705 -7.40184 8.54485e-07
42 1 20.4412 7.86208 1.62423 -8.68378 8.83602e-07
43 1 -0.000293081 9.43451 0.097454 -7.40183 9.37195e-07
44 1 1.57207 11.007 1.62418 -8.68378 9.86195e-07
45 1 3.14451 9.43451 0.0974102 -7.40182 1.16267e-06
46 1 4.71689 11.007 1.62409 -8.68377 1.09503e-06
47 1 6.28935 9.4345 0.0973423 -7.40179 1.28053e-06
48 1 7.86175 11.007 1.62399 -8.68377 1.11815e-06
49 1 9.43424 9.4345 0.0973011 -7.40177 1.21429e-06
50 1 11.0066 11.007 1.62397 -8.68376 1.06138e-06
51 1 12.5791 9.4345 0.0973187 -7.40178 1.00688e-06
52 1 14.1515 11.007 1.62403 -8.68377 9.1724e-07
53 1 15.724 9.4345 0.0973817 -7.4018 8.05322e-07
54 1 17.2964 11.007 1.62414 -8.68378 7.93396e-07
55 1 18.8688 9.43451 0.0974418 -7.40183 7.72417e-07
56 1 20.4412 11.007 1.62421 -8.68378 8.33739e-07
57 1 -0.000293081 12.5794 0.097454 -7.40183 9.37195e-07
58 1 1.57208 14.1518 1.6242 -8.68378 1.04713e-06
59 1 3.14451 12.5794 0.0974102 -7.40182 1.16267e-06
60 1 4.71689 14.1518 1.62412 -8.68378 1.14615e-06
61 1 6.28935 12.5794 0.0973423 -7.40179 1.28053e-06
62 1 7.86176 14.1518 1.62403 -8.68377 1.14446e-06
63 1 9.43424 12.5794 0.0973011 -7.40177 1.21429e-06
64 1 11.0066 14.1518 1.62401 -8.68377 1.0653e-06
65 1 12.5791 12.5794 0.0973187 -7.40178 1.00688e-06
66 1 14.1515 14.1518 1.62407 -8.68377 9.20138e-07
67 1 15.724 12.5794 0.0973817 -7.4018 8.05322e-07
68 1 17.2964 14.1518 1.62417 -8.68378 8.17729e-07
69 1 18.8688 12.5794 0.0974418 -7.40183 7.72417e-07
70 1 20.4412 14.1518 1.62423 -8.68378 8.83602e-07
71 1 -0.000288136 15.7243 0.0974781 -7.40184 1.03818e-06
72 1 1.57209 17.2967 1.62425 -8.68379 1.2145e-06
73 1 3.14452 15.7243 0.0974395 -7.40183 1.26229e-06
74 1 4.71691 17.2967 1.62418 -8.68378 1.2926e-06
75 1 6.28936 15.7243 0.0973833 -7.4018 1.35974e-06
76 1 7.86177 17.2967 1.62412 -8.68378 1.23849e-06
77 1 9.43425 15.7243 0.0973518 -7.40179 1.26795e-06
78 1 11.0067 17.2967 1.62411 -8.68377 1.11216e-06
79 1 12.5791 15.7243 0.097369 -7.4018 1.04952e-06
80 1 14.1515 17.2967 1.62416 -8.68378 9.65079e-07
81 1 15.724 15.7243 0.097422 -7.40182 8.61058e-07
82 1 17.2964 17.2967 1.62423 -8.68378 9.08177e-07
83 1 18.8688 15.7243 0.0974705 -7.40184 8.54485e-07
84 1 20.4412 17.2967 1.62427 -8.68379 1.0279e-06
85 1 -0.000281968 18.8691 0.0975082 -7.40185 1.17409e-06
86 1 1.57209 20.4415 1.62429 -8.68379 1.37917e-06
87 1 3.14453 18.8691 0.0974761 -7.40184 1.39639e-06
88 1 4.71692 20.4415 1.62423 -8.68379 1.44159e-06
89 1 6.28938 18.8691 0.0974341 -7.40182 1.46953e-06
90 1 7.86178 20.4415 1.62419 -8.68378 1.34877e-06
91 1 9.43426 18.8691 0.0974138 -7.40182 1.34743e-06
92 1 11.0067 20.4415 1.62419 -8.68378 1.18775e-06
93 1 12.5791 18.8691 0.0974306 -7.40182 1.11605e-06
94 1 14.1515 20.4415 1.62423 -8.68378 1.03955e-06
95 1 15.724 18.8691 0.0974717 -7.40184 9.43295e-07
96 1 17.2964 20.4415 1.62428 -8.68379 1.01652e-06
97 1 18.8688 18.8691 0.0975063 -7.40185 9.68043e-07
98 1 20.4412 20.4415 1.62431 -8.68379 1.1759e-06
99 1 -0.000359733 9.34955e-16 3.15442 -8.93805 1.25706e-06
100 1 1.57196 1.5724 4.7437 -8.90301 1.19173e-06
101 1 3.14445 8.07581e-16 3.15438 -8.93806 1.35725e-06
102 1 4.71678 1.57239 4.74363 -8.90301 1.19689e-06
103 1 6.2893 -2.9052e-16 3.15432 -8.93807 1.30289e-06
104 1 7.86164 1.57239 4.74357 -8.90301 1.09928e-06
105 1 9.43417 -4.33218e-16 3.15429 -8.93807 1.18074e-06
106 1 11.0065 1.57239 4.74356 -8.90301 9.99503e-07
107 1 12.579 1.19773e-16 3.15431 -8.93807 1.06341e-06
108 1 14.1514 1.57239 4.74361 -8.90301 9.20505e-07
109 1 15.7239 7.5627e-16 3.15437 -8.93806 1.00204e-06
110 1 17.2963 1.5724 4.74369 -8.90301 9.1786e-07
111 1 18.8687 1.07439e-15 3.15442 -8.93805 1.07877e-06
112 1 20.4411 1.5724 4.74373 -8.90301 1.04751e-06
113 1 -0.000362833 3.14481 3.1544 -8.93806 1.15957e-06
114 1 1.57195 4.71722 4.74365 -8.90301 1.00906e-06
115 1 3.14445 3.14481 3.15435 -8.93806 1.25876e-06
116 1 4.71676 4.7172 4.74356 -8.90301 1.02894e-06
117 1 6.28929 3.1448 3.15428 -8.93807 1.21997e-06
118 1 7.86162 4.71719 4.74347 -8.90301 9.73308e-07
119 1 9.43416 3.14479 3.15424 -8.93808 1.12028e-06
120 1 11.0065 4.71718 4.74344 -8.90301 9.13982e-07
121 1 12.579 3.1448 3.15427 -8.93807 1.01489e-06
122 1 14.1514 4.71719 4.74351 -8.90301 8.39825e-07
123 1 15.7239 3.1448 3.15433 -8.93807 9.4413e-07
124 1 17.2963 4.7172 4.74361 -8.90301 8.01547e-07
125 1 18.8687 3.14481 3.15439 -8.93806 9.98515e-07
126 1 20.4411 4.71722 4.74367 -8.90301 8.86118e-07
127 1 -0.000369789 6.28965 3.15435 -8.93806 9.75712e-07
128 1 1.57193 7.86207 4.74358 -8.90301 8.30357e-07
129 1 3.14443 6.28964 3.15429 -8.93807 1.0721e-06
130 1 4.71674 7.86206 4.74346 -8.90301 8.6965e-07
131 1 6.28927 6.28963 3.15419 -8.93808 1.07062e-06
132 1 7.8616 7.86204 4.74333 -8.90301 8.70781e-07
133 1 9.43415 6.28962 3.15413 -8.93809 1.025e-06
134 1 11.0065 7.86204 4.74329 -8.90302 8.66522e-07
135 1 12.579 6.28962 3.15415 -8.93809 9.486e-07
136 1 14.1514 7.86204 4.74337 -8.90301 7.995e-07
137 1 15.7239 6.28963 3.15424 -8.93808 8.55663e-07
138 1 17.2963 7.86206 4.74352 -8.90301 7.13511e-07
139 1 18.8687 6.28964 3.15433 -8.93807 8.56447e-07
140 1 20.4411 7.86207 4.74361 -8.90301 7.36908e-07
141 1 -0.000375358 9.43451 3.15431 -8.93807 8.63453e-07
142 1 1.57193 11.007 4.74355 -8.90301 7.68342e-07
143 1 3.14442 9.43451 3.15424 -8.93808 9.57068e-07
144 1 4.71673 11.007 4.74342 -8.90301 8.16673e-07
145 1 6.28926 9.4345 3.15412 -8.93809 9.87877e-07
146 1 7.86159 11.007 4.74326 -8.90302 8.44663e-07
147 1 9.43414 9.4345 3.15404 -8.93811 9.8924e-07
148 1 11.0065 11.007 4.74321 -8.90302 8.6656e-07
149 1 12.579 9.4345 3.15406 -8.93811 9.38205e-07
150 1 14.1514 11.007 4.74331 -8.90302 8.03056e-07
151 1 15.7239 9.4345 3.15417 -8.93809 8.2633e-07
152 1 17.2963 11.007 4.74347 -8.90301 6.94631e-07
153 1 18.8687 9.43451 3.15428 -8.93807 7.8072e-07
154 1 20.4411 11.007 4.74358 -8.90301 6.89046e-07
155 1 -0.000375358 12.5794 3.15431 -8.93807 8.63453e-07
156 1 1.57193 14.1518 4.74358 -8.90301 8.30357e-07
157 1 3.14442 12.5794 3.15424 -8.93808 9.57068e-07
158 1 4.71674 14.1518 4.74346 -8.90301 8.6965e-07
159 1 6.28926 12.5794 3.15412 -8.93809 9.87877e-07
160 1 7.8616 14.1519 4.74333 -8.90301 8.70781e-07
161 1 9.43414 12.5794 3.15404 -8.93811 9.8924e-07
162 1 11.0065 14.1519 4.74329 -8.90302 8.66522e-07
163 1 12.579 12.5794 3.15406 -8.93811 9.38205e-07
164 1 14.1514 14.1519 4.74337 -8.90301 7.995e-07
165 1 15.7239 12.5794 3.15417 -8.93809 8.2633e-07
166 1 17.2963 14.1518 4.74352 -8.90301 7.13511e-07
167 1 18.8687 12.5794 3.15428 -8.93807 7.8072e-07
168 1 20.4411 14.1518 4.74361 -8.90301 7.36908e-07
169 1 -0.000369789 15.7243 3.15435 -8.93806 9.75712e-07
170 1 1.57195 17.2967 4.74365 -8.90301 1.00906e-06
171 1 3.14443 15.7243 3.15429 -8.93807 1.0721e-06
172 1 4.71676 17.2967 4.74356 -8.90301 1.02894e-06
173 1 6.28927 15.7243 3.15419 -8.93808 1.07062e-06
174 1 7.86162 17.2967 4.74347 -8.90301 9.73308e-07
175 1 9.43415 15.7243 3.15413 -8.93809 1.025e-06
176 1 11.0065 17.2967 4.74344 -8.90301 9.13982e-07
177 1 12.579 15.7243 3.15415 -8.93809 9.486e-07
178 1 14.1514 17.2967 4.74351 -8.90301 8.39825e-07
179 1 15.7239 15.7243 3.15424 -8.93808 8.55663e-07
180 1 17.2963 17.2967 4.74361 -8.90301 8.01547e-07
181 1 18.8687 15.7243 3.15433 -8.93807 8.56447e-07
182 1 20.4411 17.2967 4.74367 -8.90301 8.86118e-07
183 1 -0.000362833 18.8691 3.1544 -8.93806 1.15957e-06
184 1 1.57196 20.4415 4.7437 -8.90301 1.19173e-06
185 1 3.14445 18.8691 3.15435 -8.93806 1.25876e-06
186 1 4.71678 20.4415 4.74363 -8.90301 1.19689e-06
187 1 6.28929 18.8691 3.15428 -8.93807 1.21997e-06
188 1 7.86164 20.4415 4.74357 -8.90301 1.09928e-06
189 1 9.43416 18.8691 3.15424 -8.93808 1.12028e-06
190 1 11.0065 20.4415 4.74356 -8.90301 9.99503e-07
191 1 12.579 18.8691 3.15427 -8.93807 1.01489e-06
192 1 14.1514 20.4415 4.74361 -8.90301 9.20505e-07
193 1 15.7239 18.8691 3.15433 -8.93807 9.4413e-07
194 1 17.2963 20.4415 4.74369 -8.90301 9.1786e-07
195 1 18.8687 18.8691 3.15439 -8.93806 9.98515e-07
196 1 20.4411 20.4415 4.74373 -8.90301 1.04751e-06
197 1 -0.000554643 -2.85913e-16 6.30549 -8.88811 9.91686e-07
198 1 1.5717 1.57238 7.8747 -8.90467 8.49668e-07
199 1 3.14424 -4.31903e-17 6.30543 -8.88811 1.09376e-06
200 1 4.7165 1.57237 7.8746 -8.90467 8.70606e-07
201 1 6.28908 -5.60666e-16 6.30535 -8.88812 1.03779e-06
202 1 7.86137 1.57236 7.8745 -8.90467 7.74738e-07
203 1 9.43396 -2.35808e-17 6.3053 -8.88812 9.27616e-07
204 1 11.0063 1.57235 7.87447 -8.90467 6.7807e-07
205 1 12.5789 3.73066e-16 6.30532 -8.88812 8.26137e-07
206 1 14.1512 1.57236 7.87455 -8.90467 5.84478e-07
207 1 15.7237 5.01676e-16 6.3054 -8.88812 7.57018e-07
208 1 17.296 1.57237 7.87466 -8.90467 5.51144e-07
209 1 18.8686 2.10907e-16 6.30548 -8.88811 8.15802e-07
210 1 20.4408 1.57239 7.87473 -8.90467 6.7813e-07
211 1 -0.000559447 3.14479 6.30546 -8.88811 8.76866e-07
212 1 1.57168 4.71718 7.87462 -8.90467 6.31954e-07
213 1 3.14423 3.14478 6.30539 -8.88811 9.75787e-07
214 1 4.71646 4.71715 7.87447 -8.90466 6.67181e-07
215 1 6.28906 3.14476 6.30528 -8.88812 9.37946e-07
216 1 7.86133 4.7171 7.8743 -8.90467 6.25302e-07
217 1 9.43395 3.14475 6.30521 -8.88812 8.56234e-07
218 1 11.0063 4.71709 7.87424 -8.90467 5.87348e-07
219 1 12.5789 3.14475 6.30523 -8.88812 7.72058e-07
220 1 14.1512 4.71711 7.87435 -8.90467 5.08155e-07
221 1 15.7237 3.14476 6.30534 -8.88811 6.93323e-07
222 1 17.2961 4.71715 7.87453 -8.90466 4.30449e-07
223 1 18.8686 3.14478 6.30543 -8.88811 7.24121e-07
224 1 20.4408 4.71718 7.87465 -8.90467 4.94315e-07
225 1 -0.000570202 6.28962 6.30538 -8.88812 6.65372e-07
226 1 1.57165 7.86204 7.87451 -8.90467 4.28328e-07
227 1 3.14419 6.28961 6.30529 -8.88812 7.55763e-07
228 1 4.7164 7.86201 7.87429 -8.90467 4.81722e-07
229 1 6.28902 6.28958 6.30512 -8.88812 7.61105e-07
230 1 7.86127 7.86197 7.87402 -8.90469 5.13141e-07
231 1 9.43392 6.28956 6.305 -8.88813 7.48076e-07
232 1 11.0063 7.86195 7.87391 -8.90471 5.55918e-07
233 1 12.5789 6.28956 6.30503 -8.88813 7.06236e-07
234 1 14.1512 7.86197 7.87407 -8.90469 4.97622e-07
235 1 15.7238 6.28958 6.30518 -8.88812 6.05231e-07
236 1 17.2961 7.86201 7.87436 -8.90467 3.60671e-07
237 1 18.8686 6.28961 6.30533 -8.88811 5.6902e-07
238 1 20.4408 7.86204 7.87454 -8.90467 3.38335e-07
239 1 -0.000578794 9.4345 6.30531 -8.88812 5.42172e-07
240 1 1.57163 11.007 7.87446 -8.90467 3.61906e-07
241 1 3.14417 9.43449 6.3052 -8.88812 6.24397e-07
242 1 4.71638 11.007 7.87421 -8.90467 4.23585e-07
243 1 6.28899 9.43448 6.30498 -8.88813 6.66894e-07
244 1 7.86125 11.007 7.87389 -8.90471 4.89836e-07
245 1 9.4339 9.43447 6.30482 -8.88815 7.13727e-07
246 1 11.0063 11.007 7.87375 -8.90474 5.7123e-07
247 1 12.5789 9.43447 6.30484 -8.88815 7.09167e-07
248 1 14.1513 11.007 7.87394 -8.90471 5.23053e-07
249 1 15.7238 9.43448 6.30504 -8.88813 5.89423e-07
250 1 17.2961 11.007 7.87428 -8.90467 3.58216e-07
251 1 18.8686 9.43449 6.30525 -8.88812 4.95288e-07
252 1 20.4408 11.007 7.87449 -8.90467 2.94924e-07
253 1 -0.000578794 12.5794 6.30531 -8.88812 5.42172e-07
254 1 1.57165 14.1519 7.87451 -8.90467 4.28328e-07
255 1 3.14417 12.5794 6.3052 -8.88812 6.24397e-07
256 1 4.7164 14.1519 7.87429 -8.90467 4.81722e-07
257 1 6.28899 12.5794 6.30498 -8.88813 6.66894e-07
258 1 7.86127 14.1519 7.87402 -8.90469 5.13141e-07
259 1 9.4339 12.5794 6.30482 -8.88815 7.13727e-07
260 1 11.0063 14.152 7.87391 -8.90471 5.55918e-07
261 1 12.5789 12.5794 6.30484 -8.88815 7.09167e-07
262 1 14.1512 14.1519 7.87407 -8.90469 4.97622e-07
263 1 15.7238 12.5794 6.30504 -8.88813 5.89423e-07
264 1 17.2961 14.1519 7.87436 -8.90467 3.60671e-07
265 1 18.8686 12.5794 6.30525 -8.88812 4.95288e-07
266 1 20.4408 14.1519 7.87454 -8.90467 3.38335e-07
267 1 -0.000570202 15.7243 6.30538 -8.88812 6.65372e-07
268 1 1.57168 17.2967 7.87462 -8.90467 6.31954e-07
269 1 3.14419 15.7243 6.30529 -8.88812 7.55763e-07
270 1 4.71646 17.2968 7.87447 -8.90466 6.67181e-07
271 1 6.28902 15.7243 6.30512 -8.88812 7.61105e-07
272 1 7.86133 17.2968 7.8743 -8.90467 6.25302e-07
273 1 9.43392 15.7243 6.305 -8.88813 7.48076e-07
274 1 11.0063 17.2968 7.87424 -8.90467 5.87348e-07
275 1 12.5789 15.7243 6.30503 -8.88813 7.06236e-07
276 1 14.1512 17.2968 7.87435 -8.90467 5.08155e-07
277 1 15.7238 15.7243 6.30518 -8.88812 6.05231e-07
278 1 17.2961 17.2968 7.87453 -8.90466 4.30449e-07
279 1 18.8686 15.7243 6.30533 -8.88811 5.6902e-07
280 1 20.4408 17.2967 7.87465 -8.90467 4.94315e-07
281 1 -0.000559447 18.8691 6.30546 -8.88811 8.76866e-07
282 1 1.5717 20.4415 7.8747 -8.90467 8.49668e-07
283 1 3.14423 18.8691 6.30539 -8.88811 9.75787e-07
284 1 4.7165 20.4415 7.8746 -8.90467 8.70606e-07
285 1 6.28906 18.8691 6.30528 -8.88812 9.37946e-07
286 1 7.86137 20.4415 7.8745 -8.90467 7.74738e-07
287 1 9.43395 18.8692 6.30521 -8.88812 8.56234e-07
288 1 11.0063 20.4416 7.87447 -8.90467 6.7807e-07
289 1 12.5789 18.8692 6.30523 -8.88812 7.72058e-07
290 1 14.1512 20.4415 7.87455 -8.90467 5.84478e-07
291 1 15.7237 18.8691 6.30534 -8.88811 6.93323e-07
292 1 17.296 20.4415 7.87466 -8.90467 5.51144e-07
293 1 18.8686 18.8691 6.30543 -8.88811 7.24121e-07
294 1 20.4408 20.4415 7.87473 -8.90467 6.7813e-07
295 1 -0.000835765 -3.91394e-16 9.44309 -8.89866 6.09037e-07
296 1 1.57138 1.57238 11.0112 -8.9001 4.94846e-07
297 1 3.14394 -3.66776e-16 9.44301 -8.89865 7.29683e-07
298 1 4.71616 1.57235 11.0111 -8.90009 4.85592e-07
299 1 6.28877 -2.91366e-16 9.44288 -8.89865 6.53883e-07
300 1 7.86103 1.57231 11.0109 -8.90009 3.41269e-07
301 1 9.43367 1.88876e-16 9.4428 -8.89865 5.32241e-07
302 1 11.006 1.5723 11.0109 -8.90009 2.53395e-07
303 1 12.5786 2.5957e-16 9.44283 -8.89865 4.35738e-07
304 1 14.1509 1.57231 11.011 -8.90009 1.80039e-07
305 1 15.7235 1.38343e-16 9.44295 -8.89865 3.52565e-07
306 1 17.2958 1.57235 11.0112 -8.90009 1.41261e-07
307 1 18.8683 -2.91936e-16 9.44306 -8.89865 4.03543e-07
308 1 20.4405 1.57238 11.0113 -8.9001 2.90625e-07
309 1 -0.000843627 3.14477 9.44304 -8.89865 4.74162e-07
310 1 1.57133 4.71716 11.0111 -8.90009 2.49781e-07
311 1 3.14391 3.14475 9.44294 -8.89865 5.85817e-07
312 1 4.71607 4.71707 11.0109 -8.90006 2.52674e-07
313 1 6.28873 3.1447 9.44276 -8.89864 5.32941e-07
314 1 7.86094 4.71697 11.0105 -8.90007 1.90371e-07
315 1 9.43365 3.14466 9.44264 -8.89865 4.53724e-07
316 1 11.006 4.71693 11.0104 -8.90008 2.07943e-07
317 1 12.5786 3.14466 9.44267 -8.89865 3.88577e-07
318 1 14.151 4.71697 11.0106 -8.90007 1.75968e-07
319 1 15.7235 3.1447 9.44283 -8.89864 2.96439e-07
320 1 17.2958 4.71708 11.0109 -8.90006 7.10617e-08
321 1 18.8683 3.14475 9.44299 -8.89865 3.0613e-07
322 1 20.4405 4.71716 11.0111 -8.90009 1.10967e-07
323 1 -0.000861158 6.28959 9.44292 -8.89865 2.43965e-07
324 1 1.57127 7.86201 11.0109 -8.90009 6.08865e-08
325 1 3.14384 6.28956 9.44277 -8.89864 3.31567e-07
326 1 4.71594 7.86193 11.0105 -8.90007 7.79575e-08
327 1 6.28863 6.28948 9.44245 -8.89864 3.33404e-07
328 1 7.86079 7.86181 11.0099 -8.90011 1.29302e-07
329 1 9.43359 6.28942 9.4422 -8.89865 3.57841e-07
330 1 11.0059 7.86176 11.0096 -8.90015 2.95171e-07
331 1 12.5786 6.28942 9.44224 -8.89865 3.70643e-07
332 1 14.1511 7.86181 11.01 -8.90011 3.23027e-07
333 1 15.7236 6.28948 9.44253 -8.89864 2.58566e-07
334 1 17.2959 7.86194 11.0106 -8.90007 1.28431e-07
335 1 18.8683 6.28956 9.44283 -8.89864 1.68575e-07
336 1 20.4405 7.86202 11.011 -8.90009 1.60099e-08
337 1 -0.00087511 9.43449 9.44282 -8.89865 1.31834e-07
338 1 1.57124 11.007 11.0109 -8.90009 1.84364e-08
339 1 3.14379 9.43447 9.44263 -8.89865 1.96747e-07
340 1 4.71588 11.007 11.0104 -8.90008 4.17148e-08
341 1 6.28856 9.43443 9.44218 -8.89865 2.45941e-07
342 1 7.86073 11.007 11.0096 -8.90015 1.48079e-07
343 1 9.43354 9.43439 9.44178 -8.89872 3.62045e-07
344 1 11.0059 11.007 11.0092 -8.90036 3.85948e-07
345 1 12.5787 9.43439 9.44181 -8.89872 4.44214e-07
346 1 14.1511 11.007 11.0097 -8.90015 4.421e-07
347 1 15.7236 9.43443 9.44226 -8.89865 3.15568e-07
348 1 17.2959 11.007 11.0105 -8.90007 2.04826e-07
349 1 18.8684 9.43447 9.44269 -8.89865 1.38662e-07
350 1 20.4406 11.007 11.0109 -8.90009 1.93722e-08
351 1 -0.00087511 12.5794 9.44282 -8.89865 1.31834e-07
352 1 1.57127 14.1519 11.0109 -8.90009 6.08865e-08
353 1 3.14379 12.5794 9.44263 -8.89865 1.96747e-07
354 1 4.71594 14.152 11.0105 -8.90007 7.79575e-08
355 1 6.28856 12.5795 9.44218 -8.89865 2.45941e-07
356 1 7.86079 14.1521 11.0099 -8.90011 1.29302e-07
357 1 9.43354 12.5795 9.44178 -8.89872 3.62045e-07
358 1 11.0059 14.1521 11.0096 -8.90015 2.95171e-07
359 1 12.5787 12.5795 9.44181 -8.89872 4.44214e-07
360 1 14.1511 14.1521 11.01 -8.90011 3.23027e-07
361 1 15.7236 12.5795 9.44226 -8.89865 3.15568e-07
362 1 17.2959 14.152 11.0106 -8.90007 1.28431e-07
363 1 18.8684 12.5794 9.44269 -8.89865 1.38662e-07
364 1 20.4405 14.1519 11.011 -8.90009 1.60099e-08
365 1 -0.000861158 15.7243 9.44292 -8.89865 2.43965e-07
366 1 1.57133 17.2967 11.0111 -8.90009 2.49781e-07
367 1 3.14384 15.7243 9.44277 -8.89864 3.31567e-07
368 1 4.71607 17.2968 11.0109 -8.90006 2.52674e-07
369 1 6.28863 15.7244 9.44245 -8.89864 3.33404e-07
370 1 7.86094 17.2969 11.0105 -8.90007 1.90371e-07
371 1 9.43359 15.7245 9.4422 -8.89865 3.57841e-07
372 1 11.006 17.297 11.0104 -8.90008 2.07943e-07
373 1 12.5786 15.7245 9.44224 -8.89865 3.70643e-07
374 1 14.151 17.2969 11.0106 -8.90007 1.75968e-07
375 1 15.7236 15.7244 9.44253 -8.89864 2.58566e-07
376 1 17.2958 17.2968 11.0109 -8.90006 7.10617e-08
377 1 18.8683 15.7243 9.44283 -8.89864 1.68575e-07
378 1 20.4405 17.2967 11.0111 -8.90009 1.10967e-07
379 1 -0.000843627 18.8691 9.44304 -8.89865 4.74162e-07
380 1 1.57138 20.4415 11.0112 -8.9001 4.94846e-07
381 1 3.14391 18.8692 9.44294 -8.89865 5.85817e-07
382 1 4.71616 20.4416 11.0111 -8.90009 4.85592e-07
383 1 6.28873 18.8692 9.44276 -8.89864 5.32941e-07
384 1 7.86103 20.4416 11.0109 -8.90009 3.41269e-07
385 1 9.43365 18.8692 9.44264 -8.89865 4.53724e-07
386 1 11.006 20.4416 11.0109 -8.90009 2.53395e-07
387 1 12.5786 18.8692 9.44267 -8.89865 3.88577e-07
388 1 14.1509 20.4416 11.011 -8.90009 1.80039e-07
389 1 15.7235 18.8692 9.44283 -8.89864 2.96439e-07
390 1 17.2958 20.4416 11.0112 -8.90009 1.41261e-07
391 1 18.8683 18.8692 9.44299 -8.89865 3.0613e-07
392 1 20.4405 20.4415 11.0113 -8.9001 2.90625e-07
393 1 -0.00117011 9.20711e-17 12.5795 -8.89868 3.67227e-07
394 1 3.14362 -2.72553e-16 12.5794 -8.89868 4.70443e-07
395 1 6.28845 3.93545e-16 12.5792 -8.89867 2.90527e-07
396 1 9.43334 4.55277e-16 12.5791 -8.89868 1.23729e-07
397 1 12.5783 6.37538e-16 12.5792 -8.89868 7.51848e-08
398 1 15.7231 5.28226e-16 12.5793 -8.89867 2.88783e-08
399 1 18.8679 3.8629e-16 12.5794 -8.89868 1.0863e-07
400 1 22.0127 3.14479 12.5794 -8.89868 2.29184e-07
401 1 3.14357 3.14475 12.5793 -8.89866 3.119e-07
402 1 6.28837 3.14464 12.579 -8.89864 1.64746e-07
403 1 9.4333 3.14456 12.5788 -8.89865 6.96711e-08
404 1 12.5783 3.14456 12.5789 -8.89865 8.45643e-08
405 1 15.7232 3.14465 12.5791 -8.89864 3.14451e-08
406 1 18.868 3.14475 12.5794 -8.89866 3.93444e-08
407 1 22.0127 6.2896 12.5793 -8.89867 5.39934e-08
408 1 3.14344 6.28953 12.579 -8.89864 8.11793e-08
409 1 6.28815 6.28934 12.5785 -8.89854 1.3645e-08
410 1 9.43316 6.28919 12.5779 -8.8986 9.87452e-08
411 1 12.5784 6.28919 12.578 -8.8986 2.7658e-07
412 1 15.7234 6.28935 12.5786 -8.89854 2.10372e-07
413 1 18.868 6.28954 12.5791 -8.89864 3.86996e-08
414 1 22.0127 9.43449 12.5791 -8.89868 4.77086e-08
415 1 3.14333 9.43445 12.5788 -8.89865 2.18487e-08
416 1 6.28797 9.43435 12.5779 -8.8986 2.51933e-08
417 1 9.43301 9.43421 12.5768 -8.89878 2.74895e-07
418 1 12.5785 9.43422 12.5769 -8.89878 5.99057e-07
419 1 15.7235 9.43435 12.578 -8.8986 5.21546e-07
420 1 18.8681 9.43445 12.5789 -8.89865 1.90763e-07
421 1 22.0127 12.5794 12.5791 -8.89868 4.77086e-08
422 1 3.14333 12.5794 12.5788 -8.89865 2.18487e-08
423 1 6.28797 12.5796 12.5779 -8.8986 2.51933e-08
424 1 9.43301 12.5797 12.5768 -8.89878 2.74895e-07
425 1 12.5785 12.5797 12.5769 -8.89878 5.99057e-07
426 1 15.7235 12.5796 12.578 -8.8986 5.21546e-07
427 1 18.8681 12.5794 12.5789 -8.89865 1.90763e-07
428 1 22.0127 15.7243 12.5793 -8.89867 5.39934e-08
429 1 3.14344 15.7244 12.579 -8.89864 8.11793e-08
430 1 6.28815 15.7246 12.5785 -8.89854 1.3645e-08
431 1 9.43316 15.7247 12.5779 -8.8986 9.87452e-08
432 1 12.5784 15.7247 12.578 -8.8986 2.7658e-07
433 1 15.7234 15.7246 12.5786 -8.89854 2.10372e-07
434 1 18.868 15.7244 12.5791 -8.89864 3.86996e-08
435 1 22.0127 18.8691 12.5794 -8.89868 2.29184e-07
436 1 3.14357 18.8692 12.5793 -8.89866 3.119e-07
437 1 6.28837 18.8693 12.579 -8.89864 1.64746e-07
438 1 9.4333 18.8693 12.5788 -8.89865 6.96711e-08
439 1 12.5783 18.8693 12.5789 -8.89865 8.45643e-08
440 1 15.7232 18.8693 12.5791 -8.89864 3.14451e-08
441 1 18.868 18.8691 12.5794 -8.89866 3.93444e-08
442 1 1.57108 1.57242 14.1478 -8.9047 4.65033e-07
443 1 4.7159 1.57238 14.1477 -8.90468 3.42782e-07
444 1 7.86073 1.57231 14.1475 -8.9047 6.76048e-08
445 1 11.0056 1.57228 14.1474 -8.90469 9.37968e-09
446 1 14.1505 1.57231 14.1476 -8.9047 2.90469e-08
447 1 17.2953 1.57238 14.1478 -8.90468 2.98774e-08
448 1 20.4401 1.57242 14.1479 -8.9047 2.32467e-07
449 1 1.57101 4.71723 14.1477 -8.90468 2.62298e-07
450 1 4.71573 4.71709 14.1474 -8.90465 1.54479e-07
451 1 7.86054 4.71686 14.1469 -8.90465 1.41089e-08
452 1 11.0056 4.71677 14.1467 -8.90466 1.52747e-07
453 1 14.1507 4.71687 14.147 -8.90465 2.7058e-07
454 1 17.2954 4.7171 14.1475 -8.90465 1.5528e-07
455 1 20.4402 4.71723 14.1478 -8.90468 1.50607e-07
456 1 1.5709 7.86205 14.1475 -8.9047 2.30691e-07
457 1 4.71547 7.86188 14.1469 -8.90465 1.38782e-07
458 1 7.86013 7.86151 14.1455 -8.9044 1.94555e-07
459 1 11.0056 7.86139 14.1448 -8.90466 6.25653e-07
460 1 14.151 7.86152 14.1456 -8.9044 8.91756e-07
461 1 17.2956 7.86189 14.147 -8.90465 6.04846e-07
462 1 20.4402 7.86205 14.1476 -8.9047 3.00431e-07
463 1 1.57086 11.007 14.1474 -8.90469 2.95764e-07
464 1 4.71536 11.007 14.1466 -8.90466 2.10712e-07
465 1 7.85998 11.007 14.1448 -8.90466 3.65267e-07
466 1 11.0056 11.007 14.1433 -8.90675 9.40502e-07
467 1 14.1511 11.007 14.1449 -8.90466 1.27375e-06
468 1 17.2957 11.007 14.1467 -8.90466 9.06741e-07
469 1 20.4402 11.007 14.1475 -8.90469 4.56012e-07
470 1 1.5709 14.1519 14.1475 -8.9047 2.30691e-07
471 1 4.71547 14.152 14.1469 -8.90465 1.38782e-07
472 1 7.86013 14.1524 14.1455 -8.9044 1.94555e-07
473 1 11.0056 14.1525 14.1448 -8.90466 6.25653e-07
474 1 14.151 14.1524 14.1456 -8.9044 8.91756e-07
475 1 17.2956 14.152 14.147 -8.90465 6.04846e-07
476 1 20.4402 14.1518 14.1476 -8.9047 3.00431e-07
477 1 1.57101 17.2967 14.1477 -8.90468 2.62298e-07
478 1 4.71573 17.2968 14.1474 -8.90465 1.54479e-07
479 1 7.86054 17.297 14.1469 -8.90465 1.41089e-08
480 1 11.0056 17.2971 14.1467 -8.90466 1.52747e-07
481 1 14.1507 17.297 14.147 -8.90465 2.7058e-07
482 1 17.2954 17.2968 14.1475 -8.90465 1.5528e-07
483 1 20.4402 17.2967 14.1478 -8.90468 1.50607e-07
484 1 1.57108 20.4415 14.1478 -8.9047 4.65033e-07
485 1 4.7159 20.4415 14.1477 -8.90468 3.42782e-07
486 1 7.86073 20.4416 14.1475 -8.9047 6.76048e-08
487 1 11.0056 20.4416 14.1474 -8.90469 9.37968e-09
488 1 14.1505 20.4416 14.1476 -8.9047 2.90469e-08
489 1 17.2953 20.4415 14.1478 -8.90468 2.98774e-08
490 1 20.4401 20.4415 14.1479 -8.9047 2.32467e-07
491 1 22.0124 4.90849e-16 15.7171 -8.88818 5.88259e-07
492 1 1.57091 1.57255 17.2788 -8.90297 9.87577e-07
493 1 3.14344 3.1048e-16 15.7171 -8.88819 6.61716e-07
494 1 4.71592 1.5726 17.2788 -8.90303 7.58897e-07
495 1 6.28827 7.0921e-16 15.717 -8.88817 2.93927e-07
496 1 7.86064 1.57254 17.2788 -8.9031 3.08281e-07
497 1 9.43308 4.8932e-16 15.7169 -8.8882 3.74068e-08
498 1 11.0053 1.57251 17.2787 -8.90309 2.5808e-07
499 1 12.5779 6.71555e-16 15.7169 -8.8882 7.13783e-08
500 1 14.15 1.57255 17.2789 -8.9031 3.61418e-07
501 1 15.7227 6.18666e-16 15.7171 -8.88817 9.60533e-08
502 1 17.2947 1.57261 17.279 -8.90303 3.80357e-07
503 1 18.8675 4.88609e-16 15.7172 -8.88819 2.32935e-07
504 1 20.4397 1.57256 17.2789 -8.90297 6.65048e-07
505 1 22.0124 3.14493 15.7171 -8.88819 4.92204e-07
506 1 1.57092 4.71755 17.2789 -8.90303 9.62711e-07
507 1 3.14341 3.14491 15.717 -8.88818 5.38296e-07
508 1 4.71597 4.71764 17.2788 -8.90324 7.96926e-07
509 1 6.28819 3.14478 15.7168 -8.88809 2.27383e-07
510 1 7.86044 4.71722 17.2782 -8.90292 5.74254e-07
511 1 9.43301 3.14464 15.7165 -8.88817 8.85968e-08
512 1 11.0053 4.71707 17.2778 -8.90284 8.42908e-07
513 1 12.5779 3.14465 15.7166 -8.88817 2.36791e-07
514 1 14.1501 4.71724 17.2783 -8.90292 1.11645e-06
515 1 15.7227 3.1448 15.7169 -8.88809 2.50298e-07
516 1 17.2946 4.71766 17.279 -8.90324 8.86687e-07
517 1 18.8675 3.14492 15.7171 -8.88818 2.53375e-07
518 1 20.4396 4.71756 17.2789 -8.90303 8.11017e-07
519 1 22.0123 6.28975 15.717 -8.88817 5.3354e-07
520 1 1.57081 7.86227 17.2788 -8.9031 1.33395e-06
521 1 3.14324 6.28968 15.7168 -8.88809 4.99059e-07
522 1 4.71549 7.86211 17.2782 -8.90292 1.25809e-06
523 1 6.28782 6.28936 15.7161 -8.8877 3.3275e-07
524 1 7.85932 7.86105 17.276 -8.90268 1.39279e-06
525 1 9.43274 6.28898 15.715 -8.88787 5.08903e-07
526 1 11.0052 7.86103 17.2739 -8.90498 2.23189e-06
527 1 12.5781 6.28898 15.7151 -8.88788 9.77089e-07
528 1 14.1511 7.86106 17.2761 -8.90267 2.8162e-06
529 1 15.723 6.28938 15.7162 -8.8877 9.75594e-07
530 1 17.2949 7.86212 17.2784 -8.90292 2.14351e-06
531 1 18.8676 6.28969 15.7169 -8.88809 6.11784e-07
532 1 20.4396 7.86228 17.2789 -8.9031 1.46762e-06
533 1 22.0123 9.43455 15.7169 -8.8882 8.22991e-07
534 1 1.57075 11.007 17.2787 -8.90309 1.64292e-06
535 1 3.14306 9.4345 15.7165 -8.88817 7.04274e-07
536 1 4.71531 11.007 17.2777 -8.90284 1.60826e-06
537 1 6.2874 9.43427 15.715 -8.88787 6.75724e-07
538 1 7.85927 11.007 17.2738 -8.90498 1.94425e-06
539 1 9.43212 9.43369 15.7119 -8.88714 1.1695e-06
540 1 11.0052 11.007 17.2664 -8.9171 3.06514e-06
541 1 12.5786 9.43369 15.712 -8.88714 1.92559e-06
542 1 14.1511 11.007 17.274 -8.90497 3.7432e-06
543 1 15.7233 9.43428 15.7151 -8.88788 1.90087e-06
544 1 17.2951 11.007 17.2779 -8.90284 2.9034e-06
545 1 18.8677 9.4345 15.7166 -8.88817 1.20432e-06
546 1 20.4396 11.007 17.2788 -8.90309 1.92788e-06
547 1 22.0123 12.5794 15.7169 -8.8882 8.22991e-07
548 1 1.57081 14.1516 17.2788 -8.9031 1.33395e-06
549 1 3.14306 12.5794 15.7165 -8.88817 7.04274e-07
550 1 4.71549 14.1518 17.2782 -8.90292 1.25809e-06
551 1 6.2874 12.5796 15.715 -8.88787 6.75724e-07
552 1 7.85932 14.1529 17.276 -8.90268 1.39279e-06
553 1 9.43212 12.5802 15.7119 -8.88714 1.1695e-06
554 1 11.0052 14.1529 17.2739 -8.90498 2.23189e-06
555 1 12.5786 12.5802 15.712 -8.88714 1.92559e-06
556 1 14.1511 14.1528 17.2761 -8.90267 2.8162e-06
557 1 15.7233 12.5796 15.7151 -8.88788 1.90087e-06
558 1 17.2949 14.1518 17.2784 -8.90292 2.14351e-06
559 1 18.8677 12.5794 15.7166 -8.88817 1.20432e-06
560 1 20.4396 14.1516 17.2789 -8.9031 1.46762e-06
561 1 22.0123 15.7242 15.717 -8.88817 5.3354e-07
562 1 1.57092 17.2963 17.2789 -8.90303 9.62711e-07
563 1 3.14324 15.7242 15.7168 -8.88809 4.99059e-07
564 1 4.71597 17.2963 17.2788 -8.90324 7.96926e-07
565 1 6.28782 15.7245 15.7161 -8.8877 3.3275e-07
566 1 7.86044 17.2967 17.2782 -8.90292 5.74254e-07
567 1 9.43274 15.7249 15.715 -8.88787 5.08903e-07
568 1 11.0053 17.2968 17.2778 -8.90284 8.42908e-07
569 1 12.5781 15.7249 15.7151 -8.88788 9.77089e-07
570 1 14.1501 17.2967 17.2783 -8.90292 1.11645e-06
571 1 15.723 15.7245 15.7162 -8.8877 9.75594e-07
572 1 17.2946 17.2962 17.279 -8.90324 8.86687e-07
573 1 18.8676 15.7242 15.7169 -8.88809 6.11784e-07
574 1 20.4396 17.2963 17.2789 -8.90303 8.11017e-07
575 1 22.0124 18.869 15.7171 -8.88819 4.92204e-07
576 1 1.57091 20.4413 17.2788 -8.90297 9.87577e-07
577 1 3.14341 18.869 15.717 -8.88818 5.38296e-07
578 1 4.71592 20.4413 17.2788 -8.90303 7.58897e-07
579 1 6.28819 18.8691 15.7168 -8.88809 2.27383e-07
580 1 7.86064 20.4414 17.2788 -8.9031 3.08281e-07
581 1 9.43301 18.8693 15.7165 -8.88817 8.85968e-08
582 1 11.0053 20.4414 17.2787 -8.90309 2.5808e-07
583 1 12.5779 18.8693 15.7166 -8.88817 2.36791e-07
584 1 14.15 20.4414 17.2789 -8.9031 3.61418e-07