ITEM: TIMESTEP
420
ITEM: NUMBER OF ATOMS
736
ITEM: BOX BOUNDS pp pp pp
0.0000000000000000e+00 2.2013900999999997e+01
0.0000000000000000e+00 2.2013900999999997e+01
0.0000000000000000e+00 5.3462330999999999e+01
ITEM: ATOMS id type x y z c_pot c_ke
1 1 -0.00103198 -6.79378e-16 0.0976351 -7.40188 4.68836e-09
2 1 1.57136 1.5724 1.62442 -8.68379 4.17676e-09
3 1 3.14376 -6.80183e-17 0.0976086 -7.40187 4.69031e-09
4 1 4.71618 1.57239 1.62435 -8.68379 4.17872e-09
5 1 6.28859 8.82327e-16 0.0975492 -7.40185 4.69358e-09
6 1 7.86103 1.57239 1.62427 -8.68378 4.18083e-09
7 1 9.43347 -2.31448e-17 0.0975016 -7.40183 4.69568e-09
8 1 11.0059 1.57239 1.62423 -8.68378 4.18152e-09
9 1 12.5784 -7.3807e-16 0.0975016 -7.40183 4.69507e-09
10 1 14.1508 1.57239 1.62427 -8.68378 4.18028e-09
11 1 15.7232 -5.21601e-16 0.0975492 -7.40185 4.6922e-09
12 1 17.2957 1.57239 1.62435 -8.68379 4.17803e-09
13 1 18.8681 -8.99589e-16 0.0976086 -7.40187 4.68921e-09
14 1 20.4405 1.5724 1.62442 -8.68379 4.17646e-09
15 1 -0.00103198 3.14479 0.0976086 -7.40187 4.68895e-09
16 1 1.57136 4.71721 1.62435 -8.68379 4.17781e-09
17 1 3.14375 3.14479 0.0975793 -7.40186 4.69084e-09
18 1 4.71617 4.7172 1.62427 -8.68378 4.17963e-09
19 1 6.28858 3.14478 0.0975136 -7.40184 4.69396e-09
20 1 7.86102 4.71719 1.62417 -8.68377 4.18156e-09
21 1 9.43347 3.14477 0.0974609 -7.40182 4.69595e-09
22 1 11.0059 4.71719 1.62412 -8.68377 4.18217e-09
23 1 12.5784 3.14477 0.0974609 -7.40182 4.69534e-09
24 1 14.1508 4.71719 1.62417 -8.68377 4.18102e-09
25 1 15.7233 3.14478 0.0975136 -7.40184 4.69259e-09
26 1 17.2957 4.7172 1.62427 -8.68378 4.17895e-09
27 1 18.8681 3.14479 0.0975793 -7.40186 4.68974e-09
28 1 20.4405 4.71721 1.62435 -8.68379 4.17751e-09
29 1 -0.00103197 6.28962 0.0975492 -7.40185 4.69028e-09
30 1 1.57136 7.86206 1.62427 -8.68378 4.17917e-09
31 1 3.14375 6.28962 0.0975136 -7.40184 4.69204e-09
32 1 4.71616 7.86206 1.62417 -8.68377 4.18082e-09
33 1 6.28857 6.28961 0.0974333 -7.40181 4.69485e-09
34 1 7.86102 7.86205 1.62404 -8.68377 4.18252e-09
35 1 9.43346 6.2896 0.0973686 -7.40178 4.69657e-09
36 1 11.0059 7.86205 1.62398 -8.68376 4.18302e-09
37 1 12.5784 6.2896 0.0973686 -7.40178 4.69596e-09
38 1 14.1508 7.86205 1.62404 -8.68377 4.18198e-09
39 1 15.7233 6.28961 0.0974333 -7.40181 4.69348e-09
40 1 17.2957 7.86206 1.62417 -8.68377 4.18014e-09
41 1 18.8681 6.28962 0.0975136 -7.40184 4.69094e-09
42 1 20.4405 7.86206 1.62427 -8.68378 4.17887e-09
43 1 -0.00103197 9.4345 0.0975016 -7.40183 4.69136e-09
44 1 1.57136 11.007 1.62423 -8.68378 4.17978e-09
45 1 3.14374 9.4345 0.0974609 -7.40182 4.69302e-09
46 1 4.71616 11.007 1.62412 -8.68377 4.18137e-09
47 1 6.28857 9.43449 0.0973686 -7.40178 4.69557e-09
48 1 7.86101 11.007 1.62398 -8.68376 4.18297e-09
49 1 9.43346 9.43449 0.0972937 -7.40175 4.69707e-09
50 1 11.0059 11.007 1.62392 -8.68376 4.18341e-09
51 1 12.5784 9.43449 0.0972937 -7.40175 4.69646e-09
52 1 14.1508 11.007 1.62398 -8.68376 4.18243e-09
53 1 15.7233 9.43449 0.0973686 -7.40178 4.6942e-09
54 1 17.2957 11.007 1.62412 -8.68377 4.18069e-09
55 1 18.8681 9.4345 0.0974609 -7.40182 4.69191e-09
56 1 20.4405 11.007 1.62423 -8.68378 4.17948e-09
57 1 -0.00103197 12.5794 0.0975016 -7.40183 4.69136e-09
58 1 1.57136 14.1518 1.62427 -8.68378 4.17917e-09
59 1 3.14374 12.5794 0.0974609 -7.40182 4.69302e-09
60 1 4.71616 14.1518 1.62417 -8.68377 4.18082e-09
61 1 6.28857 12.5794 0.0973686 -7.40178 4.69557e-09
62 1 7.86102 14.1519 1.62404 -8.68377 4.18252e-09
63 1 9.43346 12.5794 0.0972937 -7.40175 4.69707e-09
64 1 11.0059 14.1519 1.62398 -8.68376 4.18302e-09
65 1 12.5784 12.5794 0.0972937 -7.40175 4.69646e-09
66 1 14.1508 14.1519 1.62404 -8.68377 4.18198e-09
67 1 15.7233 12.5794 0.0973686 -7.40178 4.6942e-09
68 1 17.2957 14.1518 1.62417 -8.68377 4.18014e-09
69 1 18.8681 12.5794 0.0974609 -7.40182 4.69191e-09
70 1 20.4405 14.1518 1.62427 -8.68378 4.17887e-09
71 1 -0.00103197 15.7243 0.0975492 -7.40185 4.69028e-09
72 1 1.57136 17.2967 1.62435 -8.68379 4.17781e-09
73 1 3.14375 15.7243 0.0975136 -7.40184 4.69204e-09
74 1 4.71617 17.2967 1.62427 -8.68378 4.17963e-09
75 1 6.28857 15.7243 0.0974333 -7.40181 4.69485e-09
76 1 7.86102 17.2967 1.62417 -8.68377 4.18156e-09
77 1 9.43346 15.7243 0.0973686 -7.40178 4.69657e-09
78 1 11.0059 17.2967 1.62412 -8.68377 4.18217e-09
79 1 12.5784 15.7243 0.0973686 -7.40178 4.69596e-09
80 1 14.1508 17.2967 1.62417 -8.68377 4.18102e-09
81 1 15.7233 15.7243 0.0974333 -7.40181 4.69348e-09
82 1 17.2957 17.2967 1.62427 -8.68378 4.17895e-09
83 1 18.8681 15.7243 0.0975136 -7.40184 4.69094e-09
84 1 20.4405 17.2967 1.62435 -8.68379 4.17751e-09
85 1 -0.00103198 18.8691 0.0976086 -7.40187 4.68895e-09
86 1 1.57136 20.4415 1.62442 -8.68379 4.17676e-09
87 1 3.14375 18.8691 0.0975793 -7.40186 4.69084e-09
88 1 4.71618 20.4415 1.62435 -8.68379 4.17872e-09
89 1 6.28858 18.8691 0.0975136 -7.40184 4.69396e-09
90 1 7.86103 20.4415 1.62427 -8.68378 4.18083e-09
91 1 9.43347 18.8691 0.0974609 -7.40182 4.69595e-09
92 1 11.0059 20.4415 1.62423 -8.68378 4.18152e-09
93 1 12.5784 18.8691 0.0974609 -7.40182 4.69534e-09
94 1 14.1508 20.4415 1.62427 -8.68378 4.18028e-09
95 1 15.7233 18.8691 0.0975136 -7.40184 4.69259e-09
96 1 17.2957 20.4415 1.62435 -8.68379 4.17803e-09
97 1 18.8681 18.8691 0.0975793 -7.40186 4.68974e-09
98 1 20.4405 20.4415 1.62442 -8.68379 4.17646e-09
99 1 -0.00103684 -5.42537e-16 3.15455 -8.93805 3.51682e-09
100 1 1.57136 1.5724 4.74383 -8.90301 2.62568e-09
101 1 3.14377 1.73544e-16 3.15451 -8.93805 3.51765e-09
102 1 4.71617 1.57239 4.74374 -8.90301 2.62683e-09
103 1 6.2886 5.5326e-16 3.15442 -8.93806 3.51931e-09
104 1 7.86102 1.57239 4.74364 -8.90301 2.62825e-09
105 1 9.43347 -9.21504e-17 3.15435 -8.93807 3.52056e-09
106 1 11.0059 1.57238 4.74359 -8.90301 2.62888e-09
107 1 12.5784 -6.84115e-16 3.15435 -8.93807 3.52046e-09
108 1 14.1508 1.57239 4.74364 -8.90301 2.62824e-09
109 1 15.7232 -6.5383e-16 3.15442 -8.93806 3.51908e-09
110 1 17.2956 1.57239 4.74374 -8.90301 2.62682e-09
111 1 18.8681 -6.63357e-16 3.15451 -8.93805 3.51746e-09
112 1 20.4405 1.5724 4.74383 -8.90301 2.62568e-09
113 1 -0.00103683 3.14481 3.15451 -8.93805 3.51743e-09
114 1 1.57135 4.71721 4.74374 -8.90301 2.62681e-09
115 1 3.14376 3.1448 3.15446 -8.93806 3.51823e-09
116 1 4.71616 4.7172 4.74364 -8.90301 2.62788e-09
117 1 6.2886 3.14479 3.15436 -8.93807 3.51983e-09
118 1 7.86101 4.71718 4.7435 -8.90301 2.62923e-09
119 1 9.43347 3.14479 3.15428 -8.93808 3.52103e-09
120 1 11.0059 4.71718 4.74344 -8.90301 2.62982e-09
121 1 12.5784 3.14479 3.15428 -8.93808 3.52093e-09
122 1 14.1508 4.71718 4.7435 -8.90301 2.62922e-09
123 1 15.7232 3.14479 3.15436 -8.93807 3.5196e-09
124 1 17.2957 4.7172 4.74364 -8.90301 2.62788e-09
125 1 18.8681 3.1448 3.15446 -8.93806 3.51804e-09
126 1 20.4405 4.71721 4.74374 -8.90301 2.62681e-09
127 1 -0.00103683 6.28964 3.15442 -8.93806 3.51885e-09
128 1 1.57135 7.86206 4.74364 -8.90301 2.62834e-09
129 1 3.14376 6.28963 3.15436 -8.93807 3.5196e-09
130 1 4.71614 7.86205 4.7435 -8.90301 2.62937e-09
131 1 6.28859 6.28962 3.15424 -8.93808 3.52108e-09
132 1 7.861 7.86204 4.74333 -8.90301 2.63063e-09
133 1 9.43346 6.28962 3.15413 -8.9381 3.52215e-09
134 1 11.0059 7.86203 4.74325 -8.90302 2.63116e-09
135 1 12.5784 6.28962 3.15413 -8.9381 3.52205e-09
136 1 14.1508 7.86204 4.74333 -8.90301 2.63063e-09
137 1 15.7232 6.28962 3.15424 -8.93808 3.52085e-09
138 1 17.2957 7.86205 4.7435 -8.90301 2.62937e-09
139 1 18.8681 6.28963 3.15436 -8.93807 3.51942e-09
140 1 20.4405 7.86206 4.74364 -8.90301 2.62834e-09
141 1 -0.00103682 9.43451 3.15435 -8.93807 3.52005e-09
142 1 1.57134 11.007 4.74359 -8.90301 2.62907e-09
143 1 3.14375 9.43451 3.15428 -8.93808 3.52077e-09
144 1 4.71614 11.007 4.74344 -8.90301 2.6301e-09
145 1 6.28858 9.4345 3.15413 -8.9381 3.52216e-09
146 1 7.86099 11.007 4.74325 -8.90302 2.63132e-09
147 1 9.43346 9.4345 3.15401 -8.93812 3.52313e-09
148 1 11.0059 11.007 4.74316 -8.90302 2.63183e-09
149 1 12.5784 9.4345 3.15401 -8.93812 3.52303e-09
150 1 14.1508 11.007 4.74325 -8.90302 2.63132e-09
151 1 15.7232 9.4345 3.15413 -8.9381 3.52193e-09
152 1 17.2957 11.007 4.74344 -8.90301 2.63009e-09
153 1 18.8681 9.43451 3.15428 -8.93808 3.52059e-09
154 1 20.4405 11.007 4.74359 -8.90301 2.62907e-09
155 1 -0.00103682 12.5794 3.15435 -8.93807 3.52005e-09
156 1 1.57135 14.1518 4.74364 -8.90301 2.62834e-09
157 1 3.14375 12.5794 3.15428 -8.93808 3.52077e-09
158 1 4.71614 14.1518 4.7435 -8.90301 2.62937e-09
159 1 6.28858 12.5794 3.15413 -8.9381 3.52216e-09
160 1 7.861 14.1519 4.74333 -8.90301 2.63063e-09
161 1 9.43346 12.5794 3.15401 -8.93812 3.52313e-09
162 1 11.0059 14.1519 4.74325 -8.90302 2.63116e-09
163 1 12.5784 12.5794 3.15401 -8.93812 3.52303e-09
164 1 14.1508 14.1519 4.74333 -8.90301 2.63063e-09
165 1 15.7232 12.5794 3.15413 -8.9381 3.52193e-09
166 1 17.2957 14.1518 4.7435 -8.90301 2.62937e-09
167 1 18.8681 12.5794 3.15428 -8.93808 3.52059e-09
168 1 20.4405 14.1518 4.74364 -8.90301 2.62834e-09
169 1 -0.00103683 15.7243 3.15442 -8.93806 3.51885e-09
170 1 1.57135 17.2967 4.74374 -8.90301 2.62681e-09
171 1 3.14376 15.7243 3.15436 -8.93807 3.5196e-09
172 1 4.71616 17.2967 4.74364 -8.90301 2.62788e-09
173 1 6.28859 15.7243 3.15424 -8.93808 3.52108e-09
174 1 7.86101 17.2967 4.7435 -8.90301 2.62923e-09
175 1 9.43346 15.7243 3.15413 -8.9381 3.52215e-09
176 1 11.0059 17.2967 4.74344 -8.90301 2.62982e-09
177 1 12.5784 15.7243 3.15413 -8.9381 3.52205e-09
178 1 14.1508 17.2967 4.7435 -8.90301 2.62922e-09
179 1 15.7232 15.7243 3.15424 -8.93808 3.52085e-09
180 1 17.2957 17.2967 4.74364 -8.90301 2.62788e-09
181 1 18.8681 15.7243 3.15436 -8.93807 3.51942e-09
182 1 20.4405 17.2967 4.74374 -8.90301 2.62681e-09
183 1 -0.00103683 18.8691 3.15451 -8.93805 3.51743e-09
184 1 1.57136 20.4415 4.74383 -8.90301 2.62568e-09
185 1 3.14376 18.8691 3.15446 -8.93806 3.51823e-09
186 1 4.71617 20.4415 4.74374 -8.90301 2.62683e-09
187 1 6.2886 18.8691 3.15436 -8.93807 3.51983e-09
188 1 7.86102 20.4415 4.74364 -8.90301 2.62825e-09
189 1 9.43347 18.8691 3.15428 -8.93808 3.52103e-09
190 1 11.0059 20.4415 4.74359 -8.90301 2.62888e-09
191 1 12.5784 18.8691 3.15428 -8.93808 3.52093e-09
192 1 14.1508 20.4415 4.74364 -8.90301 2.62824e-09
193 1 15.7232 18.8691 3.15436 -8.93807 3.5196e-09
194 1 17.2956 20.4415 4.74374 -8.90301 2.62682e-09
195 1 18.8681 18.8691 3.15446 -8.93806 3.51804e-09
196 1 20.4405 20.4415 4.74383 -8.90301 2.62568e-09
197 1 -0.00104704 -5.11049e-16 6.3056 -8.88811 1.60259e-09
198 1 1.57133 1.57238 7.87482 -8.90467 7.84358e-10
199 1 3.14374 -2.13009e-16 6.30555 -8.88811 1.60323e-09
200 1 4.71612 1.57237 7.8747 -8.90467 7.853e-10
201 1 6.28857 1.79082e-16 6.30544 -8.88812 1.60471e-09
202 1 7.86098 1.57235 7.87456 -8.90467 7.86556e-10
203 1 9.43345 4.38709e-16 6.30534 -8.88812 1.60592e-09
204 1 11.0059 1.57235 7.87449 -8.90467 7.87141e-10
205 1 12.5784 -3.56343e-16 6.30534 -8.88812 1.60593e-09
206 1 14.1508 1.57235 7.87456 -8.90467 7.86573e-10
207 1 15.7232 -1.17008e-16 6.30544 -8.88812 1.60472e-09
208 1 17.2957 1.57237 7.8747 -8.90467 7.85319e-10
209 1 18.8681 -8.47895e-17 6.30555 -8.88811 1.60324e-09
210 1 20.4405 1.57238 7.87482 -8.90467 7.84365e-10
211 1 -0.00104703 3.14479 6.30555 -8.88811 1.60311e-09
212 1 1.57132 4.71717 7.8747 -8.90467 7.85037e-10
213 1 3.14373 3.14478 6.30549 -8.88811 1.60373e-09
214 1 4.71609 4.71714 7.87454 -8.90466 7.85946e-10
215 1 6.28856 3.14476 6.30535 -8.88812 1.60519e-09
216 1 7.86095 4.7171 7.87433 -8.90467 7.87228e-10
217 1 9.43344 3.14474 6.30524 -8.88812 1.60638e-09
218 1 11.0059 4.71708 7.87423 -8.90467 7.87824e-10
219 1 12.5784 3.14474 6.30524 -8.88812 1.60639e-09
220 1 14.1508 4.7171 7.87433 -8.90467 7.87245e-10
221 1 15.7233 3.14476 6.30535 -8.88812 1.6052e-09
222 1 17.2957 4.71714 7.87454 -8.90466 7.85966e-10
223 1 18.8681 3.14478 6.30549 -8.88811 1.60374e-09
224 1 20.4405 4.71717 7.8747 -8.90467 7.85045e-10
225 1 -0.00104702 6.28962 6.30544 -8.88812 1.60448e-09
226 1 1.5713 7.86203 7.87456 -8.90467 7.86175e-10
227 1 3.14371 6.2896 6.30535 -8.88812 1.60508e-09
228 1 4.71604 7.862 7.87433 -8.90467 7.87144e-10
229 1 6.28853 6.28957 6.30515 -8.88812 1.6065e-09
230 1 7.86091 7.86196 7.87401 -8.90469 7.88479e-10
231 1 9.43343 6.28955 6.30499 -8.88813 1.60764e-09
232 1 11.0059 7.86194 7.87386 -8.90471 7.89067e-10
233 1 12.5784 6.28955 6.30499 -8.88813 1.60765e-09
234 1 14.1509 7.86196 7.87401 -8.90469 7.88498e-10
235 1 15.7233 6.28957 6.30515 -8.88812 1.60651e-09
236 1 17.2958 7.862 7.87433 -8.90467 7.87166e-10
237 1 18.8681 6.2896 6.30535 -8.88812 1.60509e-09
238 1 20.4405 7.86203 7.87456 -8.90467 7.86184e-10
239 1 -0.00104701 9.4345 6.30534 -8.88812 1.60574e-09
240 1 1.57129 11.007 7.87449 -8.90467 7.86775e-10
241 1 3.14369 9.43449 6.30524 -8.88812 1.60636e-09
242 1 4.71603 11.007 7.87423 -8.90467 7.87809e-10
243 1 6.2885 9.43448 6.30499 -8.88813 1.6078e-09
244 1 7.86089 11.007 7.87386 -8.90471 7.89206e-10
245 1 9.43342 9.43447 6.30478 -8.88815 1.60891e-09
246 1 11.0059 11.007 7.87367 -8.90475 7.89792e-10
247 1 12.5784 9.43447 6.30478 -8.88815 1.60891e-09
248 1 14.1509 11.007 7.87386 -8.90471 7.89225e-10
249 1 15.7233 9.43448 6.30499 -8.88813 1.60781e-09
250 1 17.2958 11.007 7.87423 -8.90467 7.87831e-10
251 1 18.8681 9.43449 6.30524 -8.88812 1.60637e-09
252 1 20.4405 11.007 7.87449 -8.90467 7.86785e-10
253 1 -0.00104701 12.5794 6.30534 -8.88812 1.60574e-09
254 1 1.5713 14.1519 7.87456 -8.90467 7.86175e-10
255 1 3.14369 12.5794 6.30524 -8.88812 1.60636e-09
256 1 4.71604 14.1519 7.87433 -8.90467 7.87144e-10
257 1 6.2885 12.5794 6.30499 -8.88813 1.6078e-09
258 1 7.86091 14.1519 7.87401 -8.90469 7.88479e-10
259 1 9.43342 12.5794 6.30478 -8.88815 1.60891e-09
260 1 11.0059 14.152 7.87386 -8.90471 7.89067e-10
261 1 12.5784 12.5794 6.30478 -8.88815 1.60891e-09
262 1 14.1509 14.1519 7.87401 -8.90469 7.88498e-10
263 1 15.7233 12.5794 6.30499 -8.88813 1.60781e-09
264 1 17.2958 14.1519 7.87433 -8.90467 7.87166e-10
265 1 18.8681 12.5794 6.30524 -8.88812 1.60637e-09
266 1 20.4405 14.1519 7.87456 -8.90467 7.86184e-10
267 1 -0.00104702 15.7243 6.30544 -8.88812 1.60448e-09
268 1 1.57132 17.2967 7.8747 -8.90467 7.85037e-10
269 1 3.14371 15.7243 6.30535 -8.88812 1.60508e-09
270 1 4.71609 17.2968 7.87454 -8.90466 7.85946e-10
271 1 6.28853 15.7243 6.30515 -8.88812 1.6065e-09
272 1 7.86095 17.2968 7.87433 -8.90467 7.87228e-10
273 1 9.43343 15.7244 6.30499 -8.88813 1.60764e-09
274 1 11.0059 17.2968 7.87423 -8.90467 7.87824e-10
275 1 12.5784 15.7244 6.30499 -8.88813 1.60765e-09
276 1 14.1508 17.2968 7.87433 -8.90467 7.87245e-10
277 1 15.7233 15.7243 6.30515 -8.88812 1.60651e-09
278 1 17.2957 17.2968 7.87454 -8.90466 7.85966e-10
279 1 18.8681 15.7243 6.30535 -8.88812 1.60509e-09
280 1 20.4405 17.2967 7.8747 -8.90467 7.85045e-10
281 1 -0.00104703 18.8691 6.30555 -8.88811 1.60311e-09
282 1 1.57133 20.4415 7.87482 -8.90467 7.84358e-10
283 1 3.14373 18.8691 6.30549 -8.88811 1.60373e-09
284 1 4.71612 20.4415 7.8747 -8.90467 7.853e-10
285 1 6.28856 18.8691 6.30535 -8.88812 1.60519e-09
286 1 7.86098 20.4415 7.87456 -8.90467 7.86556e-10
287 1 9.43344 18.8692 6.30524 -8.88812 1.60638e-09
288 1 11.0059 20.4416 7.87449 -8.90467 7.87141e-10
289 1 12.5784 18.8692 6.30524 -8.88812 1.60639e-09
290 1 14.1508 20.4415 7.87456 -8.90467 7.86573e-10
291 1 15.7233 18.8691 6.30535 -8.88812 1.6052e-09
292 1 17.2957 20.4415 7.8747 -8.90467 7.85319e-10
293 1 18.8681 18.8691 6.30549 -8.88811 1.60374e-09
294 1 20.4405 20.4415 7.87482 -8.90467 7.84365e-10
295 1 -0.00106065 -5.33935e-16 9.44319 -8.89866 2.04697e-10
296 1 1.57131 1.57237 11.0113 -8.9001 1.97361e-14
297 1 3.1437 -7.3222e-17 9.44312 -8.89865 2.04977e-10
298 1 4.71608 1.57234 11.0112 -8.90009 3.03433e-14
299 1 6.28852 5.07516e-16 9.44296 -8.89865 2.05703e-10
300 1 7.86094 1.57231 11.011 -8.90009 3.72148e-14
301 1 9.43342 5.94603e-16 9.44283 -8.89865 2.06337e-10
302 1 11.0059 1.57229 11.0109 -8.90009 3.84761e-14
303 1 12.5784 4.35938e-16 9.44283 -8.89865 2.06337e-10
304 1 14.1508 1.57231 11.011 -8.90009 3.64603e-14
305 1 15.7233 1.12602e-16 9.44296 -8.89865 2.05702e-10
306 1 17.2957 1.57234 11.0112 -8.90009 2.75031e-14
307 1 18.8681 -2.03199e-16 9.44312 -8.89865 2.04975e-10
308 1 20.4405 1.57237 11.0113 -8.9001 1.78435e-14
309 1 -0.00106065 3.14476 9.44312 -8.89865 2.0479e-10
310 1 1.57128 4.71715 11.0112 -8.90009 2.00025e-14
311 1 3.14368 3.14474 9.44304 -8.89865 2.05054e-10
312 1 4.716 4.71707 11.0109 -8.90006 3.2478e-14
313 1 6.28849 3.14469 9.44283 -8.89864 2.05796e-10
314 1 7.86086 4.71696 11.0106 -8.90007 3.97736e-14
315 1 9.43341 3.14465 9.44265 -8.89865 2.06462e-10
316 1 11.0059 4.71692 11.0104 -8.90008 4.083e-14
317 1 12.5784 3.14465 9.44265 -8.89865 2.06462e-10
318 1 14.1509 4.71696 11.0106 -8.90007 4.04945e-14
319 1 15.7233 3.14469 9.44283 -8.89864 2.05796e-10
320 1 17.2958 4.71707 11.0109 -8.90006 3.11168e-14
321 1 18.8681 3.14474 9.44304 -8.89865 2.05052e-10
322 1 20.4405 4.71715 11.0112 -8.90009 1.86687e-14
323 1 -0.00106064 6.28958 9.44296 -8.89865 2.05228e-10
324 1 1.57124 7.86201 11.011 -8.90009 2.39463e-14
325 1 3.14363 6.28955 9.44283 -8.89864 2.05497e-10
326 1 4.71589 7.86193 11.0106 -8.90007 3.68793e-14
327 1 6.28841 6.28947 9.44248 -8.89864 2.06264e-10
328 1 7.86074 7.8618 11.0099 -8.90011 4.81843e-14
329 1 9.43337 6.28941 9.44217 -8.89865 2.06999e-10
330 1 11.0059 7.86175 11.0096 -8.90015 5.35808e-14
331 1 12.5784 6.28941 9.44217 -8.89865 2.07001e-10
332 1 14.151 7.8618 11.0099 -8.90011 5.06443e-14
333 1 15.7234 6.28947 9.44248 -8.89864 2.06265e-10
334 1 17.2959 7.86193 11.0106 -8.90007 3.7916e-14
335 1 18.8681 6.28955 9.44283 -8.89864 2.05497e-10
336 1 20.4405 7.86201 11.011 -8.90009 2.36206e-14
337 1 -0.00106063 9.43448 9.44283 -8.89865 2.05767e-10
338 1 1.57122 11.007 11.0109 -8.90009 2.72754e-14
339 1 3.14359 9.43447 9.44265 -8.89865 2.0609e-10
340 1 4.71585 11.007 11.0104 -8.90008 4.05868e-14
341 1 6.28835 9.43443 9.44217 -8.89865 2.06979e-10
342 1 7.86068 11.007 11.0096 -8.90015 5.65947e-14
343 1 9.43333 9.43439 9.44171 -8.89872 2.0779e-10
344 1 11.0059 11.007 11.0091 -8.90037 6.6087e-14
345 1 12.5784 9.43439 9.44171 -8.89872 2.07792e-10
346 1 14.1511 11.007 11.0096 -8.90015 5.91951e-14
347 1 15.7234 9.43443 9.44217 -8.89865 2.06982e-10
348 1 17.2959 11.007 11.0104 -8.90008 4.24844e-14
349 1 18.8682 9.43447 9.44265 -8.89865 2.06091e-10
350 1 20.4405 11.007 11.0109 -8.90009 2.73851e-14
351 1 -0.00106063 12.5794 9.44283 -8.89865 2.05767e-10
352 1 1.57124 14.1519 11.011 -8.90009 2.39463e-14
353 1 3.14359 12.5794 9.44265 -8.89865 2.0609e-10
354 1 4.71589 14.152 11.0106 -8.90007 3.68794e-14
355 1 6.28835 12.5795 9.44217 -8.89865 2.06979e-10
356 1 7.86074 14.1521 11.0099 -8.90011 4.81843e-14
357 1 9.43333 12.5795 9.44171 -8.89872 2.0779e-10
358 1 11.0059 14.1522 11.0096 -8.90015 5.35808e-14
359 1 12.5784 12.5795 9.44171 -8.89872 2.07792e-10
360 1 14.151 14.1521 11.0099 -8.90011 5.06443e-14
361 1 15.7234 12.5795 9.44217 -8.89865 2.06982e-10
362 1 17.2959 14.152 11.0106 -8.90007 3.7916e-14
363 1 18.8682 12.5794 9.44265 -8.89865 2.06091e-10
364 1 20.4405 14.1519 11.011 -8.90009 2.36206e-14
365 1 -0.00106064 15.7243 9.44296 -8.89865 2.05228e-10
366 1 1.57128 17.2968 11.0112 -8.90009 2.00025e-14
367 1 3.14363 15.7243 9.44283 -8.89864 2.05497e-10
368 1 4.716 17.2968 11.0109 -8.90006 3.2478e-14
369 1 6.28841 15.7244 9.44248 -8.89864 2.06264e-10
370 1 7.86086 17.2969 11.0106 -8.90007 3.97736e-14
371 1 9.43337 15.7245 9.44217 -8.89865 2.06999e-10
372 1 11.0059 17.297 11.0104 -8.90008 4.08299e-14
373 1 12.5784 15.7245 9.44217 -8.89865 2.07001e-10
374 1 14.1509 17.2969 11.0106 -8.90007 4.04945e-14
375 1 15.7234 15.7244 9.44248 -8.89864 2.06265e-10
376 1 17.2958 17.2968 11.0109 -8.90006 3.11168e-14
377 1 18.8681 15.7243 9.44283 -8.89864 2.05497e-10
378 1 20.4405 17.2968 11.0112 -8.90009 1.86687e-14
379 1 -0.00106065 18.8691 9.44312 -8.89865 2.0479e-10
380 1 1.57131 20.4415 11.0113 -8.9001 1.97361e-14
381 1 3.14368 18.8692 9.44304 -8.89865 2.05054e-10
382 1 4.71608 20.4416 11.0112 -8.90009 3.03433e-14
383 1 6.28849 18.8692 9.44283 -8.89864 2.05796e-10
384 1 7.86094 20.4416 11.011 -8.90009 3.72148e-14
385 1 9.43341 18.8692 9.44265 -8.89865 2.06462e-10
386 1 11.0059 20.4416 11.0109 -8.90009 3.84761e-14
387 1 12.5784 18.8692 9.44265 -8.89865 2.06462e-10
388 1 14.1508 20.4416 11.011 -8.90009 3.64603e-14
389 1 15.7233 18.8692 9.44283 -8.89864 2.05796e-10
390 1 17.2957 20.4416 11.0112 -8.90009 2.75031e-14
391 1 18.8681 18.8692 9.44304 -8.89865 2.05052e-10
392 1 20.4405 20.4415 11.0113 -8.9001 1.78435e-14
393 1 -0.00107565 7.30445e-16 12.5796 -8.89868 1.97216e-10
394 1 3.1437 8.04629e-16 12.5795 -8.89867 1.9704e-10
395 1 6.28851 7.15134e-16 12.5793 -8.89867 1.96302e-10
396 1 9.43341 1.08186e-15 12.5791 -8.89868 1.95526e-10
397 1 12.5783 1.50694e-15 12.5791 -8.89868 1.95536e-10
398 1 15.7232 1.46809e-15 12.5793 -8.89867 1.96322e-10
399 1 18.868 8.25026e-16 12.5795 -8.89867 1.97055e-10
400 1 22.0128 3.14478 12.5795 -8.89867 1.97483e-10
401 1 3.14366 3.14474 12.5794 -8.89866 1.9734e-10
402 1 6.28845 3.14464 12.5791 -8.89864 1.96586e-10
403 1 9.43337 3.14455 12.5788 -8.89865 1.95679e-10
404 1 12.5784 3.14455 12.5788 -8.89865 1.95689e-10
405 1 15.7233 3.14464 12.5791 -8.89864 1.96608e-10
406 1 18.8681 3.14474 12.5794 -8.89866 1.97356e-10
407 1 22.0128 6.28959 12.5793 -8.89867 1.9758e-10
408 1 3.14356 6.28952 12.5791 -8.89864 1.97481e-10
409 1 6.28826 6.28933 12.5785 -8.89854 1.96815e-10
410 1 9.43327 6.28917 12.5779 -8.8986 1.95515e-10
411 1 12.5785 6.28917 12.5779 -8.8986 1.95528e-10
412 1 15.7235 6.28933 12.5785 -8.89854 1.96841e-10
413 1 18.8682 6.28952 12.5791 -8.89864 1.975e-10
414 1 22.0128 9.43448 12.5791 -8.89868 1.97217e-10
415 1 3.14348 9.43445 12.5788 -8.89865 1.96977e-10
416 1 6.2881 9.43434 12.5779 -8.8986 1.95924e-10
417 1 9.43313 9.43421 12.5768 -8.89878 1.94288e-10
418 1 12.5786 9.43421 12.5768 -8.89878 1.943e-10
419 1 15.7237 9.43434 12.5779 -8.8986 1.95952e-10
420 1 18.8683 9.43445 12.5788 -8.89865 1.96997e-10
421 1 22.0128 12.5794 12.5791 -8.89868 1.97217e-10
422 1 3.14348 12.5795 12.5788 -8.89865 1.96977e-10
423 1 6.2881 12.5796 12.5779 -8.8986 1.95924e-10
424 1 9.43313 12.5797 12.5768 -8.89878 1.94288e-10
425 1 12.5786 12.5797 12.5768 -8.89878 1.943e-10
426 1 15.7237 12.5796 12.5779 -8.8986 1.95952e-10
427 1 18.8683 12.5795 12.5788 -8.89865 1.96997e-10
428 1 22.0128 15.7243 12.5793 -8.89867 1.9758e-10
429 1 3.14356 15.7244 12.5791 -8.89864 1.97481e-10
430 1 6.28826 15.7246 12.5785 -8.89854 1.96815e-10
431 1 9.43327 15.7247 12.5779 -8.8986 1.95515e-10
432 1 12.5785 15.7247 12.5779 -8.8986 1.95528e-10
433 1 15.7235 15.7246 12.5785 -8.89854 1.96841e-10
434 1 18.8682 15.7244 12.5791 -8.89864 1.975e-10
435 1 22.0128 18.8691 12.5795 -8.89867 1.97483e-10
436 1 3.14366 18.8692 12.5794 -8.89866 1.9734e-10
437 1 6.28845 18.8693 12.5791 -8.89864 1.96586e-10
438 1 9.43337 18.8693 12.5788 -8.89865 1.95679e-10
439 1 12.5784 18.8693 12.5788 -8.89865 1.95689e-10
440 1 15.7233 18.8693 12.5791 -8.89864 1.96608e-10
441 1 18.8681 18.8692 12.5794 -8.89866 1.97356e-10
442 1 1.57133 1.57241 14.1479 -8.9047 7.69387e-10
443 1 4.71613 1.57237 14.1478 -8.90468 7.68851e-10
444 1 7.86096 1.5723 14.1475 -8.9047 7.67062e-10
445 1 11.0059 1.57227 14.1474 -8.9047 7.66052e-10
446 1 14.1508 1.5723 14.1475 -8.9047 7.6711e-10
447 1 17.2956 1.57237 14.1478 -8.90468 7.68909e-10
448 1 20.4404 1.57241 14.1479 -8.9047 7.69412e-10
449 1 1.57129 4.71722 14.1478 -8.90468 7.70954e-10
450 1 4.716 4.71708 14.1475 -8.90465 7.7105e-10
451 1 7.86079 4.71685 14.1469 -8.90465 7.68702e-10
452 1 11.0059 4.71676 14.1466 -8.90466 7.67124e-10
453 1 14.1509 4.71685 14.1469 -8.90465 7.68756e-10
454 1 17.2957 4.71708 14.1475 -8.90465 7.71115e-10
455 1 20.4404 4.71722 14.1478 -8.90468 7.70981e-10
456 1 1.57122 7.86204 14.1475 -8.9047 7.71331e-10
457 1 4.71577 7.86188 14.1469 -8.90465 7.71207e-10
458 1 7.86042 7.8615 14.1455 -8.9044 7.69075e-10
459 1 11.0059 7.86138 14.1447 -8.90466 7.66039e-10
460 1 14.1513 7.8615 14.1455 -8.9044 7.69138e-10
461 1 17.296 7.86188 14.1469 -8.90465 7.71278e-10
462 1 20.4405 7.86204 14.1475 -8.9047 7.7136e-10
463 1 1.57119 11.007 14.1474 -8.9047 7.70914e-10
464 1 4.71568 11.007 14.1466 -8.90466 7.70133e-10
465 1 7.86029 11.007 14.1447 -8.90466 7.66788e-10
466 1 11.0059 11.007 14.1432 -8.90674 7.6311e-10
467 1 14.1514 11.007 14.1447 -8.90466 7.6685e-10
468 1 17.2961 11.007 14.1466 -8.90466 7.70205e-10
469 1 20.4405 11.007 14.1474 -8.9047 7.70944e-10
470 1 1.57122 14.1519 14.1475 -8.9047 7.71331e-10
471 1 4.71577 14.152 14.1469 -8.90465 7.71207e-10
472 1 7.86042 14.1524 14.1455 -8.9044 7.69075e-10
473 1 11.0059 14.1525 14.1447 -8.90466 7.66039e-10
474 1 14.1513 14.1524 14.1455 -8.9044 7.69138e-10
475 1 17.296 14.152 14.1469 -8.90465 7.71278e-10
476 1 20.4405 14.1519 14.1475 -8.9047 7.7136e-10
477 1 1.57129 17.2967 14.1478 -8.90468 7.70954e-10
478 1 4.716 17.2968 14.1475 -8.90465 7.7105e-10
479 1 7.86079 17.297 14.1469 -8.90465 7.68702e-10
480 1 11.0059 17.2971 14.1466 -8.90466 7.67124e-10
481 1 14.1509 17.297 14.1469 -8.90465 7.68756e-10
482 1 17.2957 17.2968 14.1475 -8.90465 7.71115e-10
483 1 20.4404 17.2967 14.1478 -8.90468 7.70981e-10
484 1 1.57133 20.4415 14.1479 -8.9047 7.69387e-10
485 1 4.71613 20.4415 14.1478 -8.90468 7.68851e-10
486 1 7.86096 20.4416 14.1475 -8.9047 7.67062e-10
487 1 11.0059 20.4416 14.1474 -8.9047 7.66052e-10
488 1 14.1508 20.4416 14.1475 -8.9047 7.6711e-10
489 1 17.2956 20.4415 14.1478 -8.90468 7.68909e-10
490 1 20.4404 20.4415 14.1479 -8.9047 7.69412e-10
491 1 22.0128 1.12948e-15 15.7172 -8.88818 1.58165e-09
492 1 1.57146 1.57255 17.279 -8.90297 2.60029e-09
493 1 3.14383 1.49174e-15 15.7172 -8.88819 1.58102e-09
494 1 4.71645 1.5726 17.279 -8.90302 2.5988e-09
495 1 6.28865 1.35098e-15 15.7171 -8.88817 1.57951e-09
496 1 7.86117 1.57254 17.2788 -8.9031 2.5962e-09
497 1 9.43345 1.1134e-15 15.7169 -8.8882 1.57732e-09
498 1 11.0059 1.5725 17.2787 -8.90309 2.59416e-09
499 1 12.5783 7.27323e-16 15.7169 -8.8882 1.57735e-09
500 1 14.1505 1.57254 17.2788 -8.9031 2.59623e-09
501 1 15.7231 1.41071e-15 15.7171 -8.88817 1.57957e-09
502 1 17.2953 1.5726 17.279 -8.90302 2.59884e-09
503 1 18.8679 8.35547e-16 15.7172 -8.88819 1.58107e-09
504 1 20.4403 1.57255 17.279 -8.90297 2.60031e-09
505 1 22.0128 3.14492 15.7172 -8.88819 1.58301e-09
506 1 1.57151 4.71755 17.279 -8.90302 2.60433e-09
507 1 3.14382 3.14491 15.7171 -8.88818 1.5824e-09
508 1 4.71655 4.71764 17.2789 -8.90324 2.60346e-09
509 1 6.28858 3.14478 15.7169 -8.88809 1.58171e-09
510 1 7.86101 4.71722 17.2782 -8.90292 2.60482e-09
511 1 9.43341 3.14464 15.7165 -8.88817 1.57896e-09
512 1 11.0059 4.71706 17.2777 -8.90284 2.6005e-09
513 1 12.5783 3.14464 15.7165 -8.88817 1.57899e-09
514 1 14.1507 4.71722 17.2782 -8.90292 2.60487e-09
515 1 15.7231 3.14478 15.7169 -8.88809 1.58178e-09
516 1 17.2952 4.71764 17.2789 -8.90324 2.6035e-09
517 1 18.8679 3.14491 15.7171 -8.88818 1.58245e-09
518 1 20.4402 4.71755 17.279 -8.90302 2.60435e-09
519 1 22.0128 6.28974 15.7171 -8.88817 1.5859e-09
520 1 1.57145 7.86227 17.2788 -8.9031 2.60879e-09
521 1 3.14369 6.28967 15.7169 -8.88809 1.58639e-09
522 1 4.71613 7.86211 17.2782 -8.90292 2.61251e-09
523 1 6.28827 6.28936 15.7161 -8.8877 1.58908e-09
524 1 7.85995 7.86105 17.2759 -8.90267 2.61882e-09
525 1 9.43318 6.28897 15.7149 -8.88787 1.58294e-09
526 1 11.0059 7.86102 17.2737 -8.90497 2.60573e-09
527 1 12.5785 6.28897 15.7149 -8.88787 1.58298e-09
528 1 14.1518 7.86105 17.2759 -8.90267 2.61892e-09
529 1 15.7235 6.28936 15.7161 -8.8877 1.58916e-09
530 1 17.2956 7.86211 17.2782 -8.90292 2.61258e-09
531 1 18.868 6.28967 15.7169 -8.88809 1.58644e-09
532 1 20.4403 7.86227 17.2788 -8.9031 2.60881e-09
533 1 22.0128 9.43454 15.7169 -8.8882 1.58649e-09
534 1 1.57141 11.007 17.2787 -8.90309 2.60947e-09
535 1 3.14355 9.4345 15.7165 -8.88817 1.58672e-09
536 1 4.71597 11.007 17.2777 -8.90284 2.61224e-09
537 1 6.28788 9.43427 15.7149 -8.88787 1.58745e-09
538 1 7.85992 11.007 17.2737 -8.90497 2.61401e-09
539 1 9.4326 9.43369 15.7118 -8.88714 1.57913e-09
540 1 11.0059 11.007 17.2662 -8.91709 2.61128e-09
541 1 12.5791 9.43369 15.7118 -8.88714 1.57916e-09
542 1 14.1518 11.007 17.2737 -8.90497 2.6141e-09
543 1 15.7238 9.43427 15.7149 -8.88787 1.58754e-09
544 1 17.2957 11.007 17.2777 -8.90284 2.61232e-09
545 1 18.8682 9.4345 15.7165 -8.88817 1.58678e-09
546 1 20.4403 11.007 17.2787 -8.90309 2.60949e-09
547 1 22.0128 12.5794 15.7169 -8.8882 1.58649e-09
548 1 1.57145 14.1516 17.2788 -8.9031 2.60879e-09
549 1 3.14355 12.5794 15.7165 -8.88817 1.58672e-09
550 1 4.71613 14.1518 17.2782 -8.90292 2.61251e-09
551 1 6.28788 12.5796 15.7149 -8.88787 1.58745e-09
552 1 7.85995 14.1529 17.2759 -8.90267 2.61882e-09
553 1 9.4326 12.5802 15.7118 -8.88714 1.57913e-09
554 1 11.0059 14.1529 17.2737 -8.90497 2.60573e-09
555 1 12.5791 12.5802 15.7118 -8.88714 1.57916e-09
556 1 14.1518 14.1529 17.2759 -8.90267 2.61892e-09
557 1 15.7238 12.5796 15.7149 -8.88787 1.58754e-09
558 1 17.2956 14.1518 17.2782 -8.90292 2.61258e-09
559 1 18.8682 12.5794 15.7165 -8.88817 1.58678e-09
560 1 20.4403 14.1516 17.2788 -8.9031 2.60881e-09
561 1 22.0128 15.7242 15.7171 -8.88817 1.5859e-09
562 1 1.57151 17.2964 17.279 -8.90302 2.60433e-09
563 1 3.14369 15.7242 15.7169 -8.88809 1.58639e-09
564 1 4.71655 17.2963 17.2789 -8.90324 2.60346e-09
565 1 6.28827 15.7245 15.7161 -8.8877 1.58908e-09
566 1 7.86101 17.2967 17.2782 -8.90292 2.60482e-09
567 1 9.43318 15.7249 15.7149 -8.88787 1.58294e-09
568 1 11.0059 17.2968 17.2777 -8.90284 2.6005e-09
569 1 12.5785 15.7249 15.7149 -8.88787 1.58298e-09
570 1 14.1507 17.2967 17.2782 -8.90292 2.60487e-09
571 1 15.7235 15.7245 15.7161 -8.8877 1.58916e-09
572 1 17.2952 17.2963 17.2789 -8.90324 2.6035e-09
573 1 18.868 15.7242 15.7169 -8.88809 1.58644e-09
574 1 20.4402 17.2964 17.279 -8.90302 2.60435e-09
575 1 22.0128 18.869 15.7172 -8.88819 1.58301e-09
576 1 1.57146 20.4413 17.279 -8.90297 2.60029e-09
577 1 3.14382 18.869 15.7171 -8.88818 1.5824e-09
578 1 4.71645 20.4413 17.279 -8.90302 2.5988e-09
579 1 6.28858 18.8691 15.7169 -8.88809 1.58171e-09
580 1 7.86117 20.4414 17.2788 -8.9031 2.5962e-09
581 1 9.43341 18.8693 15.7165 -8.88817 1.57896e-09
582 1 11.0059 20.4414 17.2787 -8.90309 2.59416e-09
583 1 12.5783 18.8693 15.7165 -8.88817 1.57899e-09