ITEM: TIMESTEP
253
ITEM: NUMBER OF ATOMS
736
ITEM: BOX BOUNDS pp pp pp
0.0000000000000000e+00 2.2013900999999997e+01
0.0000000000000000e+00 2.2013900999999997e+01
0.0000000000000000e+00 5.3462330999999999e+01
ITEM: ATOMS id type x y z c_pot c_ke
1 1 -0.000836452 7.63035e-16 0.0976332 -7.40188 2.00191e-07
2 1 1.57155 1.5724 1.62442 -8.68379 1.80129e-07
3 1 3.14395 1.43794e-15 0.0976065 -7.40187 2.02882e-07
4 1 4.71636 1.57239 1.62435 -8.68379 1.81569e-07
5 1 6.28878 7.41029e-16 0.0975475 -7.40185 2.05112e-07
6 1 7.86122 1.57239 1.62427 -8.68378 1.82236e-07
7 1 9.43366 9.88271e-16 0.0975006 -7.40183 2.05218e-07
8 1 11.0061 1.57239 1.62423 -8.68378 1.81665e-07
9 1 12.5786 -1.12503e-16 0.0975011 -7.40183 2.0312e-07
10 1 14.151 1.57239 1.62427 -8.68378 1.80255e-07
11 1 15.7234 1.65511e-16 0.0975486 -7.40185 2.00383e-07
12 1 17.2958 1.57239 1.62435 -8.68379 1.79043e-07
13 1 18.8683 4.60089e-16 0.0976074 -7.40187 1.99074e-07
14 1 20.4407 1.5724 1.62442 -8.68379 1.78985e-07
15 1 -0.000836482 3.14479 0.097607 -7.40187 1.99895e-07
16 1 1.57155 4.71721 1.62435 -8.68379 1.79608e-07
17 1 3.14395 3.14479 0.0975775 -7.40186 2.0258e-07
18 1 4.71635 4.7172 1.62427 -8.68378 1.81048e-07
19 1 6.28878 3.14478 0.0975121 -7.40184 2.04813e-07
20 1 7.86121 4.7172 1.62417 -8.68377 1.81738e-07
21 1 9.43366 3.14477 0.0974601 -7.40182 2.04927e-07
22 1 11.0061 4.71719 1.62412 -8.68377 1.81197e-07
23 1 12.5786 3.14477 0.0974606 -7.40182 2.02838e-07
24 1 14.151 4.7172 1.62417 -8.68377 1.79801e-07
25 1 15.7234 3.14478 0.0975132 -7.40184 2.00104e-07
26 1 17.2958 4.7172 1.62427 -8.68378 1.78577e-07
27 1 18.8683 3.14479 0.0975784 -7.40186 1.98789e-07
28 1 20.4407 4.71721 1.62435 -8.68379 1.78488e-07
29 1 -0.000836547 6.28962 0.0975481 -7.40185 1.99241e-07
30 1 1.57154 7.86206 1.62427 -8.68378 1.7899e-07
31 1 3.14394 6.28962 0.0975123 -7.40184 2.01912e-07
32 1 4.71635 7.86206 1.62417 -8.68377 1.80429e-07
33 1 6.28877 6.28961 0.0974324 -7.40181 2.04149e-07
34 1 7.8612 7.86205 1.62404 -8.68377 1.81149e-07
35 1 9.43366 6.2896 0.0973683 -7.40178 2.04283e-07
36 1 11.0061 7.86205 1.62398 -8.68376 1.80644e-07
37 1 12.5786 6.2896 0.0973688 -7.40178 2.02215e-07
38 1 14.151 7.86205 1.62404 -8.68377 1.79265e-07
39 1 15.7235 6.28961 0.0974335 -7.40181 1.99486e-07
40 1 17.2959 7.86206 1.62417 -8.68377 1.78026e-07
41 1 18.8683 6.28962 0.0975132 -7.40184 1.98157e-07
42 1 20.4407 7.86206 1.62427 -8.68378 1.77901e-07
43 1 -0.000836599 9.4345 0.0975009 -7.40183 1.98726e-07
44 1 1.57154 11.007 1.62423 -8.68378 1.78726e-07
45 1 3.14394 9.4345 0.09746 -7.40182 2.01385e-07
46 1 4.71634 11.007 1.62412 -8.68377 1.80165e-07
47 1 6.28876 9.43449 0.0973681 -7.40178 2.03627e-07
48 1 7.8612 11.007 1.62398 -8.68376 1.80898e-07
49 1 9.43365 9.43449 0.0972938 -7.40175 2.03777e-07
50 1 11.0061 11.007 1.62392 -8.68376 1.8041e-07
51 1 12.5786 9.43449 0.0972943 -7.40175 2.01724e-07
52 1 14.151 11.007 1.62399 -8.68376 1.79038e-07
53 1 15.7235 9.43449 0.0973691 -7.40178 1.99e-07
54 1 17.2959 11.007 1.62412 -8.68377 1.77792e-07
55 1 18.8683 9.4345 0.0974609 -7.40182 1.9766e-07
56 1 20.4407 11.007 1.62423 -8.68378 1.7765e-07
57 1 -0.000836599 12.5794 0.0975009 -7.40183 1.98726e-07
58 1 1.57154 14.1518 1.62427 -8.68378 1.7899e-07
59 1 3.14394 12.5794 0.09746 -7.40182 2.01385e-07
60 1 4.71635 14.1518 1.62417 -8.68377 1.80429e-07
61 1 6.28876 12.5794 0.0973681 -7.40178 2.03627e-07
62 1 7.8612 14.1518 1.62404 -8.68377 1.81149e-07
63 1 9.43365 12.5794 0.0972938 -7.40175 2.03777e-07
64 1 11.0061 14.1519 1.62398 -8.68376 1.80644e-07
65 1 12.5786 12.5794 0.0972943 -7.40175 2.01724e-07
66 1 14.151 14.1518 1.62404 -8.68377 1.79265e-07
67 1 15.7235 12.5794 0.0973691 -7.40178 1.99e-07
68 1 17.2959 14.1518 1.62417 -8.68377 1.78026e-07
69 1 18.8683 12.5794 0.0974609 -7.40182 1.9766e-07
70 1 20.4407 14.1518 1.62427 -8.68378 1.77901e-07
71 1 -0.000836547 15.7243 0.0975481 -7.40185 1.99241e-07
72 1 1.57155 17.2967 1.62435 -8.68379 1.79608e-07
73 1 3.14394 15.7243 0.0975123 -7.40184 2.01912e-07
74 1 4.71635 17.2967 1.62427 -8.68378 1.81048e-07
75 1 6.28877 15.7243 0.0974324 -7.40181 2.04149e-07
76 1 7.86121 17.2967 1.62417 -8.68377 1.81738e-07
77 1 9.43366 15.7243 0.0973683 -7.40178 2.04283e-07
78 1 11.0061 17.2967 1.62412 -8.68377 1.81197e-07
79 1 12.5786 15.7243 0.0973688 -7.40178 2.02215e-07
80 1 14.151 17.2967 1.62417 -8.68377 1.79801e-07
81 1 15.7235 15.7243 0.0974335 -7.40181 1.99486e-07
82 1 17.2958 17.2967 1.62427 -8.68378 1.78577e-07
83 1 18.8683 15.7243 0.0975132 -7.40184 1.98157e-07
84 1 20.4407 17.2967 1.62435 -8.68379 1.78488e-07
85 1 -0.000836482 18.8691 0.097607 -7.40187 1.99895e-07
86 1 1.57155 20.4415 1.62442 -8.68379 1.80129e-07
87 1 3.14395 18.8691 0.0975775 -7.40186 2.0258e-07
88 1 4.71636 20.4415 1.62435 -8.68379 1.81569e-07
89 1 6.28878 18.8691 0.0975121 -7.40184 2.04813e-07
90 1 7.86122 20.4415 1.62427 -8.68378 1.82236e-07
91 1 9.43366 18.8691 0.0974601 -7.40182 2.04927e-07
92 1 11.0061 20.4415 1.62423 -8.68378 1.81665e-07
93 1 12.5786 18.8691 0.0974606 -7.40182 2.02838e-07
94 1 14.151 20.4415 1.62427 -8.68378 1.80255e-07
95 1 15.7234 18.8691 0.0975132 -7.40184 2.00104e-07
96 1 17.2958 20.4415 1.62435 -8.68379 1.79043e-07
97 1 18.8683 18.8691 0.0975784 -7.40186 1.98789e-07
98 1 20.4407 20.4415 1.62442 -8.68379 1.78985e-07
99 1 -0.000867129 4.67308e-16 3.15454 -8.93805 1.5215e-07
100 1 1.5715 1.5724 4.74382 -8.90301 1.14544e-07
101 1 3.14394 4.85444e-17 3.1545 -8.93805 1.52767e-07
102 1 4.71632 1.57239 4.74374 -8.90301 1.14746e-07
103 1 6.28877 -2.24049e-16 3.15442 -8.93806 1.53258e-07
104 1 7.86117 1.57239 4.74364 -8.90301 1.14856e-07
105 1 9.43364 -5.19514e-17 3.15435 -8.93807 1.53296e-07
106 1 11.0061 1.57238 4.74359 -8.90301 1.14831e-07
107 1 12.5785 1.67416e-17 3.15435 -8.93807 1.52858e-07
108 1 14.1509 1.57239 4.74364 -8.90301 1.14657e-07
109 1 15.7234 -2.63813e-16 3.15442 -8.93806 1.52229e-07
110 1 17.2958 1.57239 4.74374 -8.90301 1.14441e-07
111 1 18.8682 4.12444e-17 3.15451 -8.93805 1.51896e-07
112 1 20.4406 1.5724 4.74382 -8.90301 1.14387e-07
113 1 -0.000867153 3.14481 3.15451 -8.93805 1.51891e-07
114 1 1.5715 4.71721 4.74374 -8.90301 1.14121e-07
115 1 3.14393 3.1448 3.15446 -8.93806 1.52501e-07
116 1 4.7163 4.7172 4.74364 -8.90301 1.14324e-07
117 1 6.28877 3.14479 3.15436 -8.93807 1.53e-07
118 1 7.86116 4.71718 4.7435 -8.90301 1.14457e-07
119 1 9.43364 3.14479 3.15428 -8.93808 1.53053e-07
120 1 11.0061 4.71718 4.74344 -8.90301 1.14458e-07
121 1 12.5785 3.14479 3.15428 -8.93808 1.52628e-07
122 1 14.151 4.71718 4.7435 -8.90301 1.14296e-07
123 1 15.7234 3.14479 3.15436 -8.93807 1.51999e-07
124 1 17.2958 4.7172 4.74364 -8.90301 1.14067e-07
125 1 18.8682 3.1448 3.15446 -8.93806 1.51653e-07
126 1 20.4406 4.71721 4.74374 -8.90301 1.13986e-07
127 1 -0.000867204 6.28964 3.15442 -8.93806 1.51336e-07
128 1 1.57149 7.86206 4.74364 -8.90301 1.13627e-07
129 1 3.14393 6.28963 3.15436 -8.93807 1.51931e-07
130 1 4.71629 7.86205 4.7435 -8.90301 1.13833e-07
131 1 6.28876 6.28962 3.15424 -8.93808 1.52446e-07
132 1 7.86115 7.86204 4.74333 -8.90301 1.13995e-07
133 1 9.43363 6.28962 3.15413 -8.9381 1.52535e-07
134 1 11.0061 7.86203 4.74325 -8.90302 1.1403e-07
135 1 12.5785 6.28962 3.15413 -8.9381 1.52137e-07
136 1 14.151 7.86204 4.74333 -8.90301 1.13883e-07
137 1 15.7234 6.28962 3.15424 -8.93808 1.51508e-07
138 1 17.2958 7.86205 4.7435 -8.90301 1.13637e-07
139 1 18.8682 6.28963 3.15436 -8.93807 1.51134e-07
140 1 20.4406 7.86206 4.74364 -8.90301 1.1352e-07
141 1 -0.000867244 9.43451 3.15435 -8.93807 1.50917e-07
142 1 1.57149 11.007 4.74359 -8.90301 1.1342e-07
143 1 3.14392 9.43451 3.15428 -8.93808 1.515e-07
144 1 4.71628 11.007 4.74344 -8.90301 1.13627e-07
145 1 6.28875 9.4345 3.15413 -8.9381 1.52029e-07
146 1 7.86114 11.007 4.74325 -8.90302 1.13802e-07
147 1 9.43363 9.4345 3.15401 -8.93812 1.52146e-07
148 1 11.0061 11.007 4.74316 -8.90302 1.13853e-07
149 1 12.5785 9.4345 3.15401 -8.93812 1.5177e-07
150 1 14.151 11.007 4.74325 -8.90302 1.13712e-07
151 1 15.7234 9.4345 3.15413 -8.9381 1.51141e-07
152 1 17.2958 11.007 4.74345 -8.90301 1.13458e-07
153 1 18.8682 9.43451 3.15428 -8.93808 1.50744e-07
154 1 20.4406 11.007 4.74359 -8.90301 1.13325e-07
155 1 -0.000867244 12.5794 3.15435 -8.93807 1.50917e-07
156 1 1.57149 14.1518 4.74364 -8.90301 1.13627e-07
157 1 3.14392 12.5794 3.15428 -8.93808 1.515e-07
158 1 4.71629 14.1518 4.7435 -8.90301 1.13833e-07
159 1 6.28875 12.5794 3.15413 -8.9381 1.52029e-07
160 1 7.86115 14.1519 4.74333 -8.90301 1.13995e-07
161 1 9.43363 12.5794 3.15401 -8.93812 1.52146e-07
162 1 11.0061 14.1519 4.74325 -8.90302 1.1403e-07
163 1 12.5785 12.5794 3.15401 -8.93812 1.5177e-07
164 1 14.151 14.1519 4.74333 -8.90301 1.13883e-07
165 1 15.7234 12.5794 3.15413 -8.9381 1.51141e-07
166 1 17.2958 14.1518 4.7435 -8.90301 1.13637e-07
167 1 18.8682 12.5794 3.15428 -8.93808 1.50744e-07
168 1 20.4406 14.1518 4.74364 -8.90301 1.1352e-07
169 1 -0.000867204 15.7243 3.15442 -8.93806 1.51336e-07
170 1 1.5715 17.2967 4.74374 -8.90301 1.14121e-07
171 1 3.14393 15.7243 3.15436 -8.93807 1.51931e-07
172 1 4.7163 17.2967 4.74364 -8.90301 1.14324e-07
173 1 6.28876 15.7243 3.15424 -8.93808 1.52446e-07
174 1 7.86116 17.2967 4.7435 -8.90301 1.14457e-07
175 1 9.43363 15.7243 3.15413 -8.9381 1.52535e-07
176 1 11.0061 17.2967 4.74344 -8.90301 1.14458e-07
177 1 12.5785 15.7243 3.15413 -8.9381 1.52137e-07
178 1 14.151 17.2967 4.7435 -8.90301 1.14296e-07
179 1 15.7234 15.7243 3.15424 -8.93808 1.51508e-07
180 1 17.2958 17.2967 4.74364 -8.90301 1.14067e-07
181 1 18.8682 15.7243 3.15436 -8.93807 1.51134e-07
182 1 20.4406 17.2967 4.74374 -8.90301 1.13986e-07
183 1 -0.000867153 18.8691 3.15451 -8.93805 1.51891e-07
184 1 1.5715 20.4415 4.74382 -8.90301 1.14544e-07
185 1 3.14393 18.8691 3.15446 -8.93806 1.52501e-07
186 1 4.71632 20.4415 4.74374 -8.90301 1.14746e-07
187 1 6.28877 18.8691 3.15436 -8.93807 1.53e-07
188 1 7.86117 20.4415 4.74364 -8.90301 1.14856e-07
189 1 9.43364 18.8691 3.15428 -8.93808 1.53053e-07
190 1 11.0061 20.4415 4.74359 -8.90301 1.14831e-07
191 1 12.5785 18.8691 3.15428 -8.93808 1.52628e-07
192 1 14.1509 20.4415 4.74364 -8.90301 1.14657e-07
193 1 15.7234 18.8691 3.15436 -8.93807 1.51999e-07
194 1 17.2958 20.4415 4.74374 -8.90301 1.14441e-07
195 1 18.8682 18.8691 3.15446 -8.93806 1.51653e-07
196 1 20.4406 20.4415 4.74382 -8.90301 1.14387e-07
197 1 -0.000932142 4.43488e-16 6.3056 -8.88811 7.06968e-08
198 1 1.57141 1.57238 7.87481 -8.90467 3.52725e-08
199 1 3.14385 -3.06811e-16 6.30555 -8.88811 7.08761e-08
200 1 4.7162 1.57237 7.8747 -8.90467 3.54028e-08
201 1 6.28868 -4.50227e-16 6.30543 -8.88812 7.10308e-08
202 1 7.86106 1.57235 7.87456 -8.90467 3.54823e-08
203 1 9.43357 -1.8046e-16 6.30534 -8.88812 7.10857e-08
204 1 11.006 1.57235 7.87449 -8.90467 3.54893e-08
205 1 12.5785 1.27715e-16 6.30534 -8.88812 7.10066e-08
206 1 14.1509 1.57235 7.87456 -8.90467 3.53884e-08
207 1 15.7234 -6.88619e-18 6.30544 -8.88812 7.08084e-08
208 1 17.2958 1.57237 7.8747 -8.90467 3.523e-08
209 1 18.8682 -2.67245e-16 6.30555 -8.88811 7.06531e-08
210 1 20.4405 1.57238 7.87482 -8.90467 3.51756e-08
211 1 -0.000932167 3.14479 6.30555 -8.88811 7.04898e-08
212 1 1.5714 4.71717 7.8747 -8.90467 3.49666e-08
213 1 3.14385 3.14478 6.30549 -8.88811 7.06628e-08
214 1 4.71617 4.71714 7.87454 -8.90466 3.50982e-08
215 1 6.28867 3.14476 6.30535 -8.88812 7.0825e-08
216 1 7.86103 4.7171 7.87433 -8.90467 3.52024e-08
217 1 9.43356 3.14474 6.30524 -8.88812 7.08953e-08
218 1 11.006 4.71708 7.87423 -8.90467 3.52369e-08
219 1 12.5785 3.14474 6.30524 -8.88812 7.08276e-08
220 1 14.1509 4.7171 7.87433 -8.90467 3.51455e-08
221 1 15.7234 3.14476 6.30535 -8.88812 7.06282e-08
222 1 17.2958 4.71714 7.87454 -8.90466 3.49711e-08
223 1 18.8682 3.14478 6.30549 -8.88811 7.04602e-08
224 1 20.4406 4.71717 7.8747 -8.90467 3.48901e-08
225 1 -0.000932216 6.28962 6.30544 -8.88812 7.00543e-08
226 1 1.57138 7.86203 7.87456 -8.90467 3.46235e-08
227 1 3.14383 6.2896 6.30535 -8.88812 7.02137e-08
228 1 4.71612 7.862 7.87432 -8.90467 3.47599e-08
229 1 6.28864 6.28957 6.30515 -8.88812 7.03934e-08
230 1 7.86099 7.86196 7.87401 -8.90469 3.48964e-08
231 1 9.43355 6.28955 6.30499 -8.88813 7.04983e-08
232 1 11.006 7.86194 7.87386 -8.90471 3.49651e-08
233 1 12.5785 6.28955 6.30499 -8.88813 7.04567e-08
234 1 14.151 7.86196 7.87401 -8.90469 3.4887e-08
235 1 15.7234 6.28957 6.30516 -8.88812 7.02555e-08
236 1 17.2958 7.862 7.87433 -8.90467 3.46927e-08
237 1 18.8682 6.2896 6.30535 -8.88812 7.00586e-08
238 1 20.4406 7.86203 7.87456 -8.90467 3.45736e-08
239 1 -0.000932248 9.4345 6.30534 -8.88812 6.97335e-08
240 1 1.57137 11.007 7.87449 -8.90467 3.4484e-08
241 1 3.14381 9.43449 6.30524 -8.88812 6.9883e-08
242 1 4.71611 11.007 7.87423 -8.90467 3.46241e-08
243 1 6.28862 9.43448 6.30499 -8.88813 7.0079e-08
244 1 7.86097 11.007 7.87386 -8.90471 3.47768e-08
245 1 9.43353 9.43447 6.30478 -8.88815 7.02123e-08
246 1 11.006 11.007 7.87367 -8.90475 3.48608e-08
247 1 12.5785 9.43447 6.30478 -8.88815 7.01916e-08
248 1 14.151 11.007 7.87386 -8.90471 3.47883e-08
249 1 15.7234 9.43448 6.30499 -8.88813 6.99891e-08
250 1 17.2958 11.007 7.87423 -8.90467 3.45838e-08
251 1 18.8682 9.43449 6.30524 -8.88812 6.97669e-08
252 1 20.4406 11.007 7.87449 -8.90467 3.44463e-08
253 1 -0.000932248 12.5794 6.30534 -8.88812 6.97335e-08
254 1 1.57138 14.1519 7.87456 -8.90467 3.46235e-08
255 1 3.14381 12.5794 6.30524 -8.88812 6.9883e-08
256 1 4.71612 14.1519 7.87432 -8.90467 3.47599e-08
257 1 6.28862 12.5794 6.30499 -8.88813 7.0079e-08
258 1 7.86099 14.1519 7.87401 -8.90469 3.48964e-08
259 1 9.43353 12.5794 6.30478 -8.88815 7.02123e-08
260 1 11.006 14.152 7.87386 -8.90471 3.49651e-08
261 1 12.5785 12.5794 6.30478 -8.88815 7.01916e-08
262 1 14.151 14.1519 7.87401 -8.90469 3.4887e-08
263 1 15.7234 12.5794 6.30499 -8.88813 6.99891e-08
264 1 17.2958 14.1519 7.87433 -8.90467 3.46927e-08
265 1 18.8682 12.5794 6.30524 -8.88812 6.97669e-08
266 1 20.4406 14.1519 7.87456 -8.90467 3.45736e-08
267 1 -0.000932216 15.7243 6.30544 -8.88812 7.00543e-08
268 1 1.5714 17.2967 7.8747 -8.90467 3.49666e-08
269 1 3.14383 15.7243 6.30535 -8.88812 7.02137e-08
270 1 4.71617 17.2968 7.87454 -8.90466 3.50982e-08
271 1 6.28864 15.7243 6.30515 -8.88812 7.03934e-08
272 1 7.86103 17.2968 7.87433 -8.90467 3.52024e-08
273 1 9.43355 15.7244 6.30499 -8.88813 7.04983e-08
274 1 11.006 17.2968 7.87423 -8.90467 3.52369e-08
275 1 12.5785 15.7244 6.30499 -8.88813 7.04567e-08
276 1 14.1509 17.2968 7.87433 -8.90467 3.51455e-08
277 1 15.7234 15.7243 6.30516 -8.88812 7.02555e-08
278 1 17.2958 17.2968 7.87454 -8.90466 3.49711e-08
279 1 18.8682 15.7243 6.30535 -8.88812 7.00586e-08
280 1 20.4406 17.2967 7.8747 -8.90467 3.48901e-08
281 1 -0.000932167 18.8691 6.30555 -8.88811 7.04898e-08
282 1 1.57141 20.4415 7.87481 -8.90467 3.52725e-08
283 1 3.14385 18.8691 6.30549 -8.88811 7.06628e-08
284 1 4.7162 20.4415 7.8747 -8.90467 3.54028e-08
285 1 6.28867 18.8691 6.30535 -8.88812 7.0825e-08
286 1 7.86106 20.4415 7.87456 -8.90467 3.54823e-08
287 1 9.43356 18.8692 6.30524 -8.88812 7.08953e-08
288 1 11.006 20.4416 7.87449 -8.90467 3.54893e-08
289 1 12.5785 18.8692 6.30524 -8.88812 7.08276e-08
290 1 14.1509 20.4415 7.87456 -8.90467 3.53884e-08
291 1 15.7234 18.8691 6.30535 -8.88812 7.06282e-08
292 1 17.2958 20.4415 7.8747 -8.90467 3.523e-08
293 1 18.8682 18.8691 6.30549 -8.88811 7.04602e-08
294 1 20.4405 20.4415 7.87482 -8.90467 3.51756e-08
295 1 -0.00101919 3.08515e-16 9.44319 -8.89866 9.69043e-09
296 1 1.57131 1.57237 11.0113 -8.9001 1.22217e-10
297 1 3.14374 -1.50024e-16 9.44312 -8.89865 9.80669e-09
298 1 4.71608 1.57234 11.0112 -8.90009 1.22192e-10
299 1 6.28856 -3.90321e-16 9.44296 -8.89865 9.87298e-09
300 1 7.86094 1.57231 11.011 -8.90009 6.55141e-11
301 1 9.43346 -6.88272e-18 9.44283 -8.89865 9.88103e-09
302 1 11.0059 1.57229 11.0109 -8.90009 4.08221e-11
303 1 12.5784 4.05517e-16 9.44283 -8.89865 9.83288e-09
304 1 14.1508 1.57231 11.011 -8.90009 3.7888e-11
305 1 15.7233 1.84417e-16 9.44296 -8.89865 9.71857e-09
306 1 17.2957 1.57234 11.0112 -8.90009 2.55878e-11
307 1 18.8681 7.31193e-17 9.44312 -8.89865 9.63657e-09
308 1 20.4405 1.57237 11.0113 -8.9001 5.71934e-11
309 1 -0.00101924 3.14476 9.44312 -8.89865 9.57306e-09
310 1 1.57128 4.71715 11.0112 -8.90009 6.29978e-11
311 1 3.14372 3.14474 9.44303 -8.89865 9.68328e-09
312 1 4.716 4.71707 11.0109 -8.90006 6.48437e-11
313 1 6.28853 3.14469 9.44283 -8.89864 9.75819e-09
314 1 7.86086 4.71696 11.0106 -8.90007 3.291e-11
315 1 9.43345 3.14465 9.44265 -8.89865 9.78324e-09
316 1 11.0059 4.71692 11.0104 -8.90008 3.95507e-11
317 1 12.5784 3.14465 9.44265 -8.89865 9.74714e-09
318 1 14.1509 4.71696 11.0106 -8.90007 5.11097e-11
319 1 15.7233 3.14469 9.44283 -8.89864 9.63025e-09
320 1 17.2958 4.71707 11.0109 -8.90006 2.3125e-11
321 1 18.8681 3.14474 9.44304 -8.89865 9.53373e-09
322 1 20.4405 4.71715 11.0112 -8.90009 2.168e-11
323 1 -0.00101932 6.28958 9.44296 -8.89865 9.34128e-09
324 1 1.57124 7.86201 11.011 -8.90009 1.75751e-11
325 1 3.14367 6.28955 9.44283 -8.89864 9.43773e-09
326 1 4.71589 7.86193 11.0106 -8.90007 2.04392e-11
327 1 6.28845 6.28947 9.44248 -8.89864 9.53131e-09
328 1 7.86074 7.8618 11.0099 -8.90011 2.11372e-11
329 1 9.43341 6.28941 9.44217 -8.89865 9.5957e-09
330 1 11.0059 7.86175 11.0096 -8.90015 6.82119e-11
331 1 12.5785 6.28941 9.44218 -8.89865 9.58761e-09
332 1 14.151 7.8618 11.0099 -8.90011 9.72084e-11
333 1 15.7234 6.28947 9.44248 -8.89864 9.46586e-09
334 1 17.2959 7.86193 11.0106 -8.90007 5.05145e-11
335 1 18.8682 6.28955 9.44283 -8.89864 9.33786e-09
336 1 20.4405 7.86201 11.011 -8.90009 7.6048e-12
337 1 -0.00101937 9.43448 9.44283 -8.89865 9.18516e-09
338 1 1.57122 11.007 11.0109 -8.90009 7.51116e-12
339 1 3.14363 9.43447 9.44265 -8.89865 9.27168e-09
340 1 4.71585 11.007 11.0104 -8.90008 1.08244e-11
341 1 6.28839 9.43443 9.44217 -8.89865 9.38465e-09
342 1 7.86068 11.007 11.0096 -8.90015 2.70621e-11
343 1 9.43337 9.43439 9.44172 -8.89872 9.48253e-09
344 1 11.0059 11.007 11.0091 -8.90037 9.18029e-11
345 1 12.5785 9.43439 9.44172 -8.89872 9.49617e-09
346 1 14.1511 11.007 11.0096 -8.90015 1.26845e-10
347 1 15.7235 9.43443 9.44218 -8.89865 9.3702e-09
348 1 17.2959 11.007 11.0104 -8.90008 7.24842e-11
349 1 18.8682 9.43447 9.44265 -8.89865 9.21326e-09
350 1 20.4405 11.007 11.0109 -8.90009 1.16352e-11
351 1 -0.00101937 12.5794 9.44283 -8.89865 9.18516e-09
352 1 1.57124 14.1519 11.011 -8.90009 1.75751e-11
353 1 3.14363 12.5794 9.44265 -8.89865 9.27168e-09
354 1 4.71589 14.152 11.0106 -8.90007 2.04392e-11
355 1 6.28839 12.5795 9.44217 -8.89865 9.38465e-09
356 1 7.86074 14.1521 11.0099 -8.90011 2.11372e-11
357 1 9.43337 12.5795 9.44172 -8.89872 9.48253e-09
358 1 11.0059 14.1522 11.0096 -8.90015 6.82119e-11
359 1 12.5785 12.5795 9.44172 -8.89872 9.49617e-09
360 1 14.151 14.1521 11.0099 -8.90011 9.72084e-11
361 1 15.7235 12.5795 9.44218 -8.89865 9.3702e-09
362 1 17.2959 14.152 11.0106 -8.90007 5.05145e-11
363 1 18.8682 12.5794 9.44265 -8.89865 9.21326e-09
364 1 20.4405 14.1519 11.011 -8.90009 7.6048e-12
365 1 -0.00101932 15.7243 9.44296 -8.89865 9.34128e-09
366 1 1.57128 17.2968 11.0112 -8.90009 6.29978e-11
367 1 3.14367 15.7243 9.44283 -8.89864 9.43773e-09
368 1 4.716 17.2968 11.0109 -8.90006 6.48437e-11
369 1 6.28845 15.7244 9.44248 -8.89864 9.53131e-09
370 1 7.86086 17.2969 11.0106 -8.90007 3.291e-11
371 1 9.43341 15.7245 9.44217 -8.89865 9.5957e-09
372 1 11.0059 17.297 11.0104 -8.90008 3.95507e-11
373 1 12.5785 15.7245 9.44218 -8.89865 9.58761e-09
374 1 14.1509 17.2969 11.0106 -8.90007 5.11097e-11
375 1 15.7234 15.7244 9.44248 -8.89864 9.46586e-09
376 1 17.2958 17.2968 11.0109 -8.90006 2.3125e-11
377 1 18.8682 15.7243 9.44283 -8.89864 9.33786e-09
378 1 20.4405 17.2968 11.0112 -8.90009 2.168e-11
379 1 -0.00101924 18.8691 9.44312 -8.89865 9.57306e-09
380 1 1.57131 20.4415 11.0113 -8.9001 1.22217e-10
381 1 3.14372 18.8692 9.44303 -8.89865 9.68328e-09
382 1 4.71608 20.4416 11.0112 -8.90009 1.22192e-10
383 1 6.28853 18.8692 9.44283 -8.89864 9.75819e-09
384 1 7.86094 20.4416 11.011 -8.90009 6.55141e-11
385 1 9.43345 18.8692 9.44265 -8.89865 9.78324e-09
386 1 11.0059 20.4416 11.0109 -8.90009 4.08221e-11
387 1 12.5784 18.8692 9.44265 -8.89865 9.74714e-09
388 1 14.1508 20.4416 11.011 -8.90009 3.7888e-11
389 1 15.7233 18.8692 9.44283 -8.89864 9.63025e-09
390 1 17.2957 20.4416 11.0112 -8.90009 2.55878e-11
391 1 18.8681 18.8692 9.44304 -8.89865 9.53373e-09
392 1 20.4405 20.4415 11.0113 -8.9001 5.71934e-11
393 1 -0.00111537 -1.54524e-17 12.5796 -8.89868 7.9246e-09
394 1 3.14366 -4.71912e-16 12.5795 -8.89867 7.84803e-09
395 1 6.28847 -1.08265e-15 12.5793 -8.89867 7.64588e-09
396 1 9.43337 -5.22415e-16 12.5791 -8.89868 7.51596e-09
397 1 12.5783 1.78311e-16 12.5791 -8.89868 7.58385e-09
398 1 15.7232 -4.25069e-16 12.5793 -8.89867 7.74334e-09
399 1 18.868 -7.14908e-17 12.5795 -8.89867 7.87135e-09
400 1 22.0128 3.14478 12.5795 -8.89867 8.02415e-09
401 1 3.14362 3.14474 12.5794 -8.89866 7.94122e-09
402 1 6.28841 3.14464 12.5791 -8.89864 7.74741e-09
403 1 9.43333 3.14455 12.5788 -8.89865 7.63128e-09
404 1 12.5783 3.14455 12.5788 -8.89865 7.71692e-09
405 1 15.7233 3.14464 12.5791 -8.89864 7.88309e-09
406 1 18.868 3.14474 12.5794 -8.89866 7.99345e-09
407 1 22.0128 6.28959 12.5793 -8.89867 8.25245e-09
408 1 3.14352 6.28952 12.5791 -8.89864 8.15312e-09
409 1 6.28822 6.28933 12.5785 -8.89854 7.98346e-09
410 1 9.43323 6.28917 12.5779 -8.8986 7.89675e-09
411 1 12.5784 6.28917 12.5779 -8.8986 8.02344e-09
412 1 15.7235 6.28933 12.5785 -8.89854 8.2095e-09
413 1 18.8681 6.28952 12.5791 -8.89864 8.27246e-09
414 1 22.0128 9.43448 12.5791 -8.89868 8.44206e-09
415 1 3.14344 9.43445 12.5788 -8.89865 8.32189e-09
416 1 6.28806 9.43434 12.5779 -8.8986 8.15403e-09
417 1 9.43309 9.43421 12.5768 -8.89878 8.09339e-09
418 1 12.5786 9.43421 12.5768 -8.89878 8.24576e-09
419 1 15.7236 9.43434 12.5779 -8.8986 8.44688e-09
420 1 18.8682 9.43445 12.5788 -8.89865 8.49453e-09
421 1 22.0128 12.5794 12.5791 -8.89868 8.44206e-09
422 1 3.14344 12.5795 12.5788 -8.89865 8.32189e-09
423 1 6.28806 12.5796 12.5779 -8.8986 8.15403e-09
424 1 9.43309 12.5797 12.5768 -8.89878 8.09339e-09
425 1 12.5786 12.5797 12.5768 -8.89878 8.24576e-09
426 1 15.7236 12.5796 12.5779 -8.8986 8.44688e-09
427 1 18.8682 12.5795 12.5788 -8.89865 8.49453e-09
428 1 22.0128 15.7243 12.5793 -8.89867 8.25245e-09
429 1 3.14352 15.7244 12.5791 -8.89864 8.15312e-09
430 1 6.28822 15.7246 12.5785 -8.89854 7.98346e-09
431 1 9.43323 15.7247 12.5779 -8.8986 7.89675e-09
432 1 12.5784 15.7247 12.5779 -8.8986 8.02344e-09
433 1 15.7235 15.7246 12.5785 -8.89854 8.2095e-09
434 1 18.8681 15.7244 12.5791 -8.89864 8.27246e-09
435 1 22.0128 18.8691 12.5795 -8.89867 8.02415e-09
436 1 3.14362 18.8692 12.5794 -8.89866 7.94122e-09
437 1 6.28841 18.8693 12.5791 -8.89864 7.74741e-09
438 1 9.43333 18.8693 12.5788 -8.89865 7.63128e-09
439 1 12.5783 18.8693 12.5788 -8.89865 7.71692e-09
440 1 15.7233 18.8693 12.5791 -8.89864 7.88309e-09
441 1 18.868 18.8692 12.5794 -8.89866 7.99345e-09
442 1 1.57125 1.57241 14.1479 -8.9047 3.22337e-08
443 1 4.71606 1.57237 14.1478 -8.90468 3.1917e-08
444 1 7.86088 1.5723 14.1475 -8.9047 3.15728e-08
445 1 11.0058 1.57227 14.1474 -8.9047 3.15534e-08
446 1 14.1507 1.5723 14.1475 -8.9047 3.18659e-08
447 1 17.2955 1.57237 14.1478 -8.90468 3.22022e-08
448 1 20.4403 1.57241 14.1479 -8.9047 3.23316e-08
449 1 1.57121 4.71722 14.1478 -8.90468 3.27353e-08
450 1 4.71592 4.71708 14.1475 -8.90465 3.24478e-08
451 1 7.86071 4.71685 14.1469 -8.90465 3.21156e-08
452 1 11.0058 4.71676 14.1466 -8.90466 3.21204e-08
453 1 14.1509 4.71685 14.1469 -8.90465 3.24876e-08
454 1 17.2957 4.71708 14.1475 -8.90465 3.28262e-08
455 1 20.4404 4.71722 14.1478 -8.90468 3.28705e-08
456 1 1.57114 7.86204 14.1475 -8.9047 3.33301e-08
457 1 4.71569 7.86188 14.1469 -8.90465 3.30398e-08
458 1 7.86034 7.8615 14.1455 -8.9044 3.27641e-08
459 1 11.0058 7.86138 14.1447 -8.90466 3.27729e-08
460 1 14.1512 7.8615 14.1455 -8.9044 3.32376e-08
461 1 17.2959 7.86188 14.1469 -8.90465 3.35272e-08
462 1 20.4404 7.86204 14.1475 -8.9047 3.35109e-08
463 1 1.57111 11.007 14.1474 -8.9047 3.35827e-08
464 1 4.7156 11.007 14.1466 -8.90466 3.32686e-08
465 1 7.86021 11.007 14.1447 -8.90466 3.2966e-08
466 1 11.0058 11.007 14.1432 -8.90674 3.2974e-08
467 1 14.1514 11.007 14.1447 -8.90466 3.3471e-08
468 1 17.296 11.007 14.1466 -8.90466 3.37996e-08
469 1 20.4405 11.007 14.1474 -8.9047 3.37827e-08
470 1 1.57114 14.1519 14.1475 -8.9047 3.33301e-08
471 1 4.71569 14.152 14.1469 -8.90465 3.30398e-08
472 1 7.86034 14.1524 14.1455 -8.9044 3.27641e-08
473 1 11.0058 14.1525 14.1447 -8.90466 3.27729e-08
474 1 14.1512 14.1524 14.1455 -8.9044 3.32376e-08
475 1 17.2959 14.152 14.1469 -8.90465 3.35272e-08
476 1 20.4404 14.1519 14.1475 -8.9047 3.35109e-08
477 1 1.57121 17.2967 14.1478 -8.90468 3.27353e-08
478 1 4.71592 17.2968 14.1475 -8.90465 3.24478e-08
479 1 7.86071 17.297 14.1469 -8.90465 3.21156e-08
480 1 11.0058 17.2971 14.1466 -8.90466 3.21204e-08
481 1 14.1509 17.297 14.1469 -8.90465 3.24876e-08
482 1 17.2957 17.2968 14.1475 -8.90465 3.28262e-08
483 1 20.4404 17.2967 14.1478 -8.90468 3.28705e-08
484 1 1.57125 20.4415 14.1479 -8.9047 3.22337e-08
485 1 4.71606 20.4415 14.1478 -8.90468 3.1917e-08
486 1 7.86088 20.4416 14.1475 -8.9047 3.15728e-08
487 1 11.0058 20.4416 14.1474 -8.9047 3.15534e-08
488 1 14.1507 20.4416 14.1475 -8.9047 3.18659e-08
489 1 17.2955 20.4415 14.1478 -8.90468 3.22022e-08
490 1 20.4403 20.4415 14.1479 -8.9047 3.23316e-08
491 1 22.0127 -4.75742e-16 15.7172 -8.88818 6.72817e-08
492 1 1.57131 1.57255 17.279 -8.90297 1.11781e-07
493 1 3.14372 -5.48267e-16 15.7172 -8.88819 6.70298e-08
494 1 4.71631 1.5726 17.279 -8.90302 1.11425e-07
495 1 6.28854 -5.80687e-16 15.7171 -8.88817 6.6595e-08
496 1 7.86103 1.57254 17.2788 -8.9031 1.10996e-07
497 1 9.43334 -7.91661e-16 15.7169 -8.8882 6.63234e-08
498 1 11.0057 1.5725 17.2787 -8.90309 1.10902e-07
499 1 12.5782 -7.70746e-16 15.7169 -8.8882 6.65097e-08
500 1 14.1504 1.57254 17.2788 -8.9031 1.11282e-07
501 1 15.723 -1.13994e-15 15.7171 -8.88817 6.6938e-08
502 1 17.2951 1.5726 17.279 -8.90302 1.11668e-07
503 1 18.8678 -6.66247e-16 15.7172 -8.88819 6.72282e-08
504 1 20.4401 1.57255 17.279 -8.90297 1.11851e-07
505 1 22.0127 3.14492 15.7172 -8.88819 6.77618e-08
506 1 1.57136 4.71755 17.279 -8.90302 1.13102e-07
507 1 3.1437 3.14491 15.7171 -8.88818 6.75021e-08
508 1 4.7164 4.71764 17.2789 -8.90324 1.12802e-07
509 1 6.28847 3.14478 15.7169 -8.88809 6.71219e-08
510 1 7.86087 4.71722 17.2782 -8.90292 1.1262e-07
511 1 9.4333 3.14464 15.7165 -8.88817 6.68559e-08
512 1 11.0057 4.71706 17.2777 -8.90284 1.1251e-07
513 1 12.5782 3.14464 15.7165 -8.88817 6.70731e-08
514 1 14.1506 4.71722 17.2782 -8.90292 1.13048e-07
515 1 15.723 3.14478 15.7169 -8.88809 6.75288e-08
516 1 17.295 4.71764 17.2789 -8.90324 1.13172e-07
517 1 18.8678 3.14491 15.7171 -8.88818 6.77436e-08
518 1 20.4401 4.71755 17.279 -8.90302 1.13222e-07
519 1 22.0127 6.28974 15.7171 -8.88817 6.88743e-08
520 1 1.5713 7.86227 17.2788 -8.9031 1.14781e-07
521 1 3.14358 6.28967 15.7169 -8.88809 6.86418e-08
522 1 4.71598 7.86211 17.2782 -8.90292 1.14732e-07
523 1 6.28815 6.28936 15.7161 -8.8877 6.84469e-08
524 1 7.85981 7.86105 17.2759 -8.90267 1.14856e-07
525 1 9.43307 6.28897 15.7149 -8.88787 6.81214e-08
526 1 11.0057 7.86102 17.2737 -8.90497 1.14561e-07
527 1 12.5784 6.28897 15.7149 -8.88787 6.84168e-08
528 1 14.1516 7.86105 17.2759 -8.90267 1.15574e-07
529 1 15.7233 6.28936 15.7161 -8.8877 6.90394e-08
530 1 17.2954 7.86211 17.2782 -8.90292 1.15317e-07
531 1 18.8679 6.28967 15.7169 -8.88809 6.89952e-08
532 1 20.4401 7.86227 17.2788 -8.9031 1.14973e-07
533 1 22.0127 9.43454 15.7169 -8.8882 6.97263e-08
534 1 1.57126 11.007 17.2787 -8.90309 1.15491e-07
535 1 3.14343 9.4345 15.7165 -8.88817 6.94709e-08
536 1 4.71582 11.007 17.2777 -8.90284 1.15431e-07
537 1 6.28777 9.43427 15.7149 -8.88787 6.9241e-08
538 1 7.85978 11.007 17.2737 -8.90497 1.15438e-07
539 1 9.43248 9.43369 15.7118 -8.88714 6.89051e-08
540 1 11.0057 11.007 17.2662 -8.91709 1.15657e-07
541 1 12.579 9.43369 15.7118 -8.88714 6.92312e-08
542 1 14.1516 11.007 17.2737 -8.90497 1.16166e-07
543 1 15.7237 9.43427 15.7149 -8.88788 6.99358e-08
544 1 17.2956 11.007 17.2777 -8.90284 1.16091e-07
545 1 18.8681 9.4345 15.7165 -8.88817 6.99061e-08
546 1 20.4402 11.007 17.2787 -8.90309 1.15713e-07
547 1 22.0127 12.5794 15.7169 -8.8882 6.97263e-08
548 1 1.5713 14.1516 17.2788 -8.9031 1.14781e-07
549 1 3.14343 12.5794 15.7165 -8.88817 6.94709e-08
550 1 4.71598 14.1518 17.2782 -8.90292 1.14732e-07
551 1 6.28777 12.5796 15.7149 -8.88787 6.9241e-08
552 1 7.85981 14.1529 17.2759 -8.90267 1.14856e-07
553 1 9.43248 12.5802 15.7118 -8.88714 6.89051e-08
554 1 11.0057 14.1529 17.2737 -8.90497 1.14561e-07
555 1 12.579 12.5802 15.7118 -8.88714 6.92312e-08
556 1 14.1516 14.1529 17.2759 -8.90267 1.15574e-07
557 1 15.7237 12.5796 15.7149 -8.88788 6.99358e-08
558 1 17.2954 14.1518 17.2782 -8.90292 1.15317e-07
559 1 18.8681 12.5794 15.7165 -8.88817 6.99061e-08
560 1 20.4401 14.1516 17.2788 -8.9031 1.14973e-07
561 1 22.0127 15.7242 15.7171 -8.88817 6.88743e-08
562 1 1.57136 17.2964 17.279 -8.90302 1.13102e-07
563 1 3.14358 15.7242 15.7169 -8.88809 6.86418e-08
564 1 4.7164 17.2963 17.2789 -8.90324 1.12802e-07
565 1 6.28815 15.7245 15.7161 -8.8877 6.84469e-08
566 1 7.86087 17.2967 17.2782 -8.90292 1.1262e-07
567 1 9.43307 15.7249 15.7149 -8.88787 6.81214e-08
568 1 11.0057 17.2968 17.2777 -8.90284 1.1251e-07
569 1 12.5784 15.7249 15.7149 -8.88787 6.84168e-08
570 1 14.1506 17.2967 17.2782 -8.90292 1.13048e-07
571 1 15.7233 15.7245 15.7161 -8.8877 6.90394e-08
572 1 17.295 17.2963 17.2789 -8.90324 1.13172e-07
573 1 18.8679 15.7242 15.7169 -8.88809 6.89952e-08
574 1 20.4401 17.2964 17.279 -8.90302 1.13222e-07
575 1 22.0127 18.869 15.7172 -8.88819 6.77618e-08
576 1 1.57131 20.4413 17.279 -8.90297 1.11781e-07
577 1 3.1437 18.869 15.7171 -8.88818 6.75021e-08
578 1 4.71631 20.4413 17.279 -8.90302 1.11425e-07
579 1 6.28847 18.8691 15.7169 -8.88809 6.71219e-08
580 1 7.86103 20.4414 17.2788 -8.9031 1.10996e-07
581 1 9.4333 18.8693 15.7165 -8.88817 6.68559e-08
582 1 11.0057 20.4414 17.2787 -8.90309 1.10902e-07
583 1 12.5782 18.8693 15.7165 -8.88817 6.70731e-08