ITEM: TIMESTEP
279
ITEM: NUMBER OF ATOMS
736
ITEM: BOX BOUNDS pp pp pp
0.0000000000000000e+00 2.2013900999999997e+01
0.0000000000000000e+00 2.2013900999999997e+01
0.0000000000000000e+00 5.3462330999999999e+01
ITEM: ATOMS id type x y z c_pot c_ke
1 1 -0.000950112 1.16615e-15 0.0976349 -7.40188 1.09254e-09
2 1 1.57144 1.5724 1.62442 -8.68379 9.75049e-10
3 1 3.14384 2.08684e-15 0.0976083 -7.40187 1.09566e-09
4 1 4.71625 1.57239 1.62435 -8.68379 9.76908e-10
5 1 6.28867 3.59613e-15 0.097549 -7.40185 1.09872e-09
6 1 7.86111 1.57239 1.62427 -8.68378 9.78108e-10
7 1 9.43355 3.66078e-15 0.0975015 -7.40183 1.09941e-09
8 1 11.006 1.57239 1.62423 -8.68378 9.7776e-10
9 1 12.5785 3.39625e-15 0.0975016 -7.40183 1.09723e-09
10 1 14.1509 1.57239 1.62427 -8.68378 9.76123e-10
11 1 15.7233 3.49583e-15 0.0975491 -7.40185 1.0938e-09
12 1 17.2957 1.57239 1.62435 -8.68379 9.74415e-10
13 1 18.8682 1.78285e-15 0.0976085 -7.40187 1.09171e-09
14 1 20.4405 1.5724 1.62442 -8.68379 9.73934e-10
15 1 -0.000950108 3.14479 0.0976084 -7.40187 1.09244e-09
16 1 1.57144 4.71721 1.62435 -8.68379 9.74904e-10
17 1 3.14384 3.14479 0.0975791 -7.40186 1.09555e-09
18 1 4.71625 4.7172 1.62427 -8.68378 9.76731e-10
19 1 6.28867 3.14478 0.0975134 -7.40184 1.09857e-09
20 1 7.8611 4.71719 1.62417 -8.68377 9.77897e-10
21 1 9.43355 3.14477 0.0974608 -7.40182 1.09925e-09
22 1 11.006 4.71719 1.62412 -8.68377 9.7754e-10
23 1 12.5785 3.14477 0.0974609 -7.40182 1.09706e-09
24 1 14.1509 4.71719 1.62417 -8.68377 9.75927e-10
25 1 15.7233 3.14478 0.0975136 -7.40184 1.09367e-09
26 1 17.2957 4.7172 1.62427 -8.68378 9.74258e-10
27 1 18.8682 3.14479 0.0975792 -7.40186 1.09161e-09
28 1 20.4405 4.71721 1.62435 -8.68379 9.73799e-10
29 1 -0.000950098 6.28962 0.0975491 -7.40185 1.09223e-09
30 1 1.57143 7.86206 1.62427 -8.68378 9.7474e-10
31 1 3.14383 6.28962 0.0975134 -7.40184 1.0953e-09
32 1 4.71624 7.86206 1.62417 -8.68377 9.76528e-10
33 1 6.28866 6.28961 0.0974332 -7.40181 1.09826e-09
34 1 7.86109 7.86205 1.62404 -8.68377 9.77652e-10
35 1 9.43354 6.2896 0.0973685 -7.40178 1.09888e-09
36 1 11.006 7.86205 1.62398 -8.68376 9.7728e-10
37 1 12.5785 6.2896 0.0973686 -7.40178 1.0967e-09
38 1 14.1509 7.86205 1.62404 -8.68377 9.75698e-10
39 1 15.7233 6.28961 0.0974334 -7.40181 1.09336e-09
40 1 17.2957 7.86206 1.62417 -8.68377 9.74079e-10
41 1 18.8682 6.28962 0.0975136 -7.40184 1.09137e-09
42 1 20.4406 7.86206 1.62427 -8.68378 9.73646e-10
43 1 -0.000950089 9.4345 0.0975016 -7.40183 1.09206e-09
44 1 1.57143 11.007 1.62423 -8.68378 9.74673e-10
45 1 3.14382 9.4345 0.0974608 -7.40182 1.09511e-09
46 1 4.71623 11.007 1.62412 -8.68377 9.76445e-10
47 1 6.28865 9.43449 0.0973685 -7.40178 1.09801e-09
48 1 7.86109 11.007 1.62398 -8.68376 9.77549e-10
49 1 9.43354 9.43449 0.0972937 -7.40175 1.09859e-09
50 1 11.006 11.007 1.62392 -8.68376 9.7717e-10
51 1 12.5785 9.43449 0.0972937 -7.40175 1.09642e-09
52 1 14.1509 11.007 1.62398 -8.68376 9.75602e-10
53 1 15.7234 9.43449 0.0973687 -7.40178 1.09313e-09
54 1 17.2958 11.007 1.62412 -8.68377 9.74005e-10
55 1 18.8682 9.4345 0.0974609 -7.40182 1.09119e-09
56 1 20.4406 11.007 1.62423 -8.68378 9.73583e-10
57 1 -0.000950089 12.5794 0.0975016 -7.40183 1.09206e-09
58 1 1.57143 14.1518 1.62427 -8.68378 9.7474e-10
59 1 3.14382 12.5794 0.0974608 -7.40182 1.09511e-09
60 1 4.71624 14.1518 1.62417 -8.68377 9.76528e-10
61 1 6.28865 12.5794 0.0973685 -7.40178 1.09801e-09
62 1 7.86109 14.1519 1.62404 -8.68377 9.77652e-10
63 1 9.43354 12.5794 0.0972937 -7.40175 1.09859e-09
64 1 11.006 14.1519 1.62398 -8.68376 9.7728e-10
65 1 12.5785 12.5794 0.0972937 -7.40175 1.09641e-09
66 1 14.1509 14.1519 1.62404 -8.68377 9.75698e-10
67 1 15.7234 12.5794 0.0973687 -7.40178 1.09313e-09
68 1 17.2957 14.1518 1.62417 -8.68377 9.74079e-10
69 1 18.8682 12.5794 0.0974609 -7.40182 1.09119e-09
70 1 20.4406 14.1518 1.62427 -8.68378 9.73646e-10
71 1 -0.000950098 15.7243 0.0975491 -7.40185 1.09223e-09
72 1 1.57144 17.2967 1.62435 -8.68379 9.74904e-10
73 1 3.14383 15.7243 0.0975134 -7.40184 1.0953e-09
74 1 4.71625 17.2967 1.62427 -8.68378 9.76731e-10
75 1 6.28866 15.7243 0.0974332 -7.40181 1.09826e-09
76 1 7.8611 17.2967 1.62417 -8.68377 9.77897e-10
77 1 9.43354 15.7243 0.0973685 -7.40178 1.09888e-09
78 1 11.006 17.2967 1.62412 -8.68377 9.7754e-10
79 1 12.5785 15.7243 0.0973686 -7.40178 1.0967e-09
80 1 14.1509 17.2967 1.62417 -8.68377 9.75927e-10
81 1 15.7233 15.7243 0.0974334 -7.40181 1.09336e-09
82 1 17.2957 17.2967 1.62427 -8.68378 9.74258e-10
83 1 18.8682 15.7243 0.0975136 -7.40184 1.09137e-09
84 1 20.4405 17.2967 1.62435 -8.68379 9.73798e-10
85 1 -0.000950108 18.8691 0.0976084 -7.40187 1.09244e-09
86 1 1.57144 20.4415 1.62442 -8.68379 9.75049e-10
87 1 3.14384 18.8691 0.0975791 -7.40186 1.09555e-09
88 1 4.71625 20.4415 1.62435 -8.68379 9.76908e-10
89 1 6.28867 18.8691 0.0975134 -7.40184 1.09857e-09
90 1 7.86111 20.4415 1.62427 -8.68378 9.78108e-10
91 1 9.43355 18.8691 0.0974608 -7.40182 1.09925e-09
92 1 11.006 20.4415 1.62423 -8.68378 9.7776e-10
93 1 12.5785 18.8691 0.0974609 -7.40182 1.09706e-09
94 1 14.1509 20.4415 1.62427 -8.68378 9.76123e-10
95 1 15.7233 18.8691 0.0975136 -7.40184 1.09367e-09
96 1 17.2957 20.4415 1.62435 -8.68379 9.74415e-10
97 1 18.8682 18.8691 0.0975792 -7.40186 1.09161e-09
98 1 20.4405 20.4415 1.62442 -8.68379 9.73934e-10
99 1 -0.000965899 4.70353e-15 3.15455 -8.93805 8.21395e-10
100 1 1.57142 1.5724 4.74383 -8.90301 6.14005e-10
101 1 3.14384 -4.88264e-16 3.15451 -8.93805 8.22097e-10
102 1 4.71623 1.57239 4.74374 -8.90301 6.1436e-10
103 1 6.28867 -1.20675e-14 3.15442 -8.93806 8.22928e-10
104 1 7.86108 1.57239 4.74364 -8.90301 6.14753e-10
105 1 9.43354 -2.04204e-14 3.15435 -8.93807 8.23273e-10
106 1 11.006 1.57238 4.74359 -8.90301 6.14898e-10
107 1 12.5784 -2.14257e-14 3.15435 -8.93807 8.2288e-10
108 1 14.1509 1.57239 4.74364 -8.90301 6.14682e-10
109 1 15.7233 -1.22463e-14 3.15442 -8.93806 8.2203e-10
110 1 17.2957 1.57239 4.74374 -8.90301 6.1426e-10
111 1 18.8681 -1.55697e-15 3.15451 -8.93805 8.21364e-10
112 1 20.4405 1.5724 4.74383 -8.90301 6.13958e-10
113 1 -0.000965893 3.14481 3.15451 -8.93805 8.21346e-10
114 1 1.57141 4.71721 4.74374 -8.90301 6.13967e-10
115 1 3.14384 3.1448 3.15446 -8.93806 8.22037e-10
116 1 4.71622 4.7172 4.74364 -8.90301 6.14317e-10
117 1 6.28867 3.14479 3.15436 -8.93807 8.22857e-10
118 1 7.86107 4.71718 4.7435 -8.90301 6.14697e-10
119 1 9.43354 3.14479 3.15428 -8.93808 8.23196e-10
120 1 11.006 4.71718 4.74344 -8.90301 6.14822e-10
121 1 12.5784 3.14479 3.15428 -8.93808 8.22806e-10
122 1 14.1509 4.71718 4.7435 -8.90301 6.14603e-10
123 1 15.7233 3.14479 3.15436 -8.93807 8.2197e-10
124 1 17.2957 4.7172 4.74364 -8.90301 6.14199e-10
125 1 18.8681 3.1448 3.15446 -8.93806 8.21315e-10
126 1 20.4405 4.71721 4.74374 -8.90301 6.13916e-10
127 1 -0.000965878 6.28964 3.15442 -8.93806 8.21256e-10
128 1 1.57141 7.86206 4.74364 -8.90301 6.13956e-10
129 1 3.14383 6.28963 3.15436 -8.93807 8.21926e-10
130 1 4.7162 7.86205 4.7435 -8.90301 6.14312e-10
131 1 6.28866 6.28962 3.15424 -8.93808 8.22726e-10
132 1 7.86106 7.86204 4.74333 -8.90301 6.14678e-10
133 1 9.43354 6.28962 3.15413 -8.9381 8.23047e-10
134 1 11.006 7.86203 4.74325 -8.90302 6.14774e-10
135 1 12.5784 6.28962 3.15413 -8.9381 8.22659e-10
136 1 14.1509 7.86204 4.74333 -8.90301 6.14552e-10
137 1 15.7233 6.28962 3.15424 -8.93808 8.21852e-10
138 1 17.2957 7.86205 4.7435 -8.90301 6.14167e-10
139 1 18.8681 6.28963 3.15436 -8.93807 8.21225e-10
140 1 20.4405 7.86206 4.74364 -8.90301 6.13899e-10
141 1 -0.000965865 9.43451 3.15435 -8.93807 8.21201e-10
142 1 1.5714 11.007 4.74359 -8.90301 6.13965e-10
143 1 3.14382 9.43451 3.15428 -8.93808 8.2186e-10
144 1 4.7162 11.007 4.74344 -8.90301 6.14326e-10
145 1 6.28865 9.4345 3.15413 -8.9381 8.2265e-10
146 1 7.86105 11.007 4.74325 -8.90302 6.14688e-10
147 1 9.43353 9.4345 3.15401 -8.93812 8.22955e-10
148 1 11.006 11.007 4.74316 -8.90302 6.14769e-10
149 1 12.5784 9.4345 3.15401 -8.93812 8.2256e-10
150 1 14.1509 11.007 4.74325 -8.90302 6.14547e-10
151 1 15.7233 9.4345 3.15413 -8.9381 8.21776e-10
152 1 17.2957 11.007 4.74344 -8.90301 6.14167e-10
153 1 18.8681 9.43451 3.15428 -8.93808 8.21171e-10
154 1 20.4405 11.007 4.74359 -8.90301 6.13903e-10
155 1 -0.000965865 12.5794 3.15435 -8.93807 8.21201e-10
156 1 1.57141 14.1518 4.74364 -8.90301 6.13956e-10
157 1 3.14382 12.5794 3.15428 -8.93808 8.2186e-10
158 1 4.7162 14.1518 4.7435 -8.90301 6.14312e-10
159 1 6.28865 12.5794 3.15413 -8.9381 8.2265e-10
160 1 7.86106 14.1519 4.74333 -8.90301 6.14677e-10
161 1 9.43353 12.5794 3.15401 -8.93812 8.22955e-10
162 1 11.006 14.1519 4.74325 -8.90302 6.14774e-10
163 1 12.5784 12.5794 3.15401 -8.93812 8.2256e-10
164 1 14.1509 14.1519 4.74333 -8.90301 6.14553e-10
165 1 15.7233 12.5794 3.15413 -8.9381 8.21776e-10
166 1 17.2957 14.1518 4.7435 -8.90301 6.14167e-10
167 1 18.8681 12.5794 3.15428 -8.93808 8.21171e-10
168 1 20.4405 14.1518 4.74364 -8.90301 6.13899e-10
169 1 -0.000965878 15.7243 3.15442 -8.93806 8.21256e-10
170 1 1.57141 17.2967 4.74374 -8.90301 6.13967e-10
171 1 3.14383 15.7243 3.15436 -8.93807 8.21926e-10
172 1 4.71622 17.2967 4.74364 -8.90301 6.14317e-10
173 1 6.28866 15.7243 3.15424 -8.93808 8.22726e-10
174 1 7.86107 17.2967 4.7435 -8.90301 6.14697e-10
175 1 9.43354 15.7243 3.15413 -8.9381 8.23047e-10
176 1 11.006 17.2967 4.74344 -8.90301 6.14822e-10
177 1 12.5784 15.7243 3.15413 -8.9381 8.22659e-10
178 1 14.1509 17.2967 4.7435 -8.90301 6.14603e-10
179 1 15.7233 15.7243 3.15424 -8.93808 8.21852e-10
180 1 17.2957 17.2967 4.74364 -8.90301 6.142e-10
181 1 18.8681 15.7243 3.15436 -8.93807 8.21225e-10
182 1 20.4405 17.2967 4.74374 -8.90301 6.13916e-10
183 1 -0.000965893 18.8691 3.15451 -8.93805 8.21346e-10
184 1 1.57142 20.4415 4.74383 -8.90301 6.14005e-10
185 1 3.14384 18.8691 3.15446 -8.93806 8.22037e-10
186 1 4.71623 20.4415 4.74374 -8.90301 6.1436e-10
187 1 6.28867 18.8691 3.15436 -8.93807 8.22857e-10
188 1 7.86108 20.4415 4.74364 -8.90301 6.14753e-10
189 1 9.43354 18.8691 3.15428 -8.93808 8.23196e-10
190 1 11.006 20.4415 4.74359 -8.90301 6.14898e-10
191 1 12.5784 18.8691 3.15428 -8.93808 8.22806e-10
192 1 14.1509 20.4415 4.74364 -8.90301 6.14682e-10
193 1 15.7233 18.8691 3.15436 -8.93807 8.21969e-10
194 1 17.2957 20.4415 4.74374 -8.90301 6.1426e-10
195 1 18.8681 18.8691 3.15446 -8.93806 8.21315e-10
196 1 20.4405 20.4415 4.74383 -8.90301 6.13958e-10
197 1 -0.000999126 -3.89145e-14 6.3056 -8.88811 3.75334e-10
198 1 1.57136 1.57238 7.87482 -8.90467 1.84155e-10
199 1 3.14379 -2.6134e-14 6.30555 -8.88811 3.75535e-10
200 1 4.71615 1.57237 7.8747 -8.90467 1.84411e-10
201 1 6.28862 -2.84536e-15 6.30544 -8.88812 3.75942e-10
202 1 7.86101 1.57235 7.87456 -8.90467 1.84722e-10
203 1 9.4335 2.31446e-14 6.30534 -8.88812 3.76254e-10
204 1 11.0059 1.57235 7.87449 -8.90467 1.84861e-10
205 1 12.5784 2.33887e-14 6.30534 -8.88812 3.76237e-10
206 1 14.1508 1.57235 7.87456 -8.90467 1.84705e-10
207 1 15.7233 -3.52495e-15 6.30544 -8.88812 3.75896e-10
208 1 17.2957 1.57237 7.8747 -8.90467 1.84367e-10
209 1 18.8681 -2.65038e-14 6.30555 -8.88811 3.75492e-10
210 1 20.4405 1.57238 7.87482 -8.90467 1.84122e-10
211 1 -0.000999117 3.14479 6.30555 -8.88811 3.75314e-10
212 1 1.57135 4.71717 7.8747 -8.90467 1.84136e-10
213 1 3.14378 3.14478 6.30549 -8.88811 3.75527e-10
214 1 4.71612 4.71714 7.87454 -8.90466 1.84331e-10
215 1 6.2886 3.14476 6.30535 -8.88812 3.75929e-10
216 1 7.86098 4.7171 7.87433 -8.90467 1.84637e-10
217 1 9.43349 3.14474 6.30524 -8.88812 3.76228e-10
218 1 11.0059 4.71708 7.87423 -8.90467 1.84835e-10
219 1 12.5784 3.14474 6.30524 -8.88812 3.762e-10
220 1 14.1509 4.7171 7.87433 -8.90467 1.84727e-10
221 1 15.7233 3.14476 6.30535 -8.88812 3.75853e-10
222 1 17.2957 4.71714 7.87454 -8.90466 1.84362e-10
223 1 18.8681 3.14478 6.30549 -8.88811 3.75451e-10
224 1 20.4405 4.71717 7.8747 -8.90467 1.84071e-10
225 1 -0.000999095 6.28962 6.30544 -8.88812 3.75317e-10
226 1 1.57133 7.86203 7.87456 -8.90467 1.84169e-10
227 1 3.14376 6.2896 6.30535 -8.88812 3.75551e-10
228 1 4.71608 7.862 7.87433 -8.90467 1.84279e-10
229 1 6.28857 6.28957 6.30515 -8.88812 3.75919e-10
230 1 7.86094 7.86196 7.87401 -8.90469 1.8457e-10
231 1 9.43348 6.28955 6.30499 -8.88813 3.76208e-10
232 1 11.0059 7.86194 7.87386 -8.90471 1.84899e-10
233 1 12.5784 6.28955 6.30499 -8.88813 3.76192e-10
234 1 14.1509 7.86196 7.87401 -8.90469 1.84909e-10
235 1 15.7233 6.28957 6.30515 -8.88812 3.75854e-10
236 1 17.2958 7.862 7.87433 -8.90467 1.84496e-10
237 1 18.8681 6.2896 6.30535 -8.88812 3.7543e-10
238 1 20.4405 7.86203 7.87456 -8.90467 1.84097e-10
239 1 -0.000999073 9.4345 6.30534 -8.88812 3.75362e-10
240 1 1.57133 11.007 7.87449 -8.90467 1.84205e-10
241 1 3.14374 9.43449 6.30524 -8.88812 3.75616e-10
242 1 4.71606 11.007 7.87423 -8.90467 1.84275e-10
243 1 6.28855 9.43448 6.30499 -8.88813 3.75951e-10
244 1 7.86092 11.007 7.87386 -8.90471 1.8456e-10
245 1 9.43347 9.43447 6.30478 -8.88815 3.76228e-10
246 1 11.0059 11.007 7.87367 -8.90475 1.84968e-10
247 1 12.5784 9.43447 6.30478 -8.88815 3.76272e-10
248 1 14.1509 11.007 7.87386 -8.90471 1.85051e-10
249 1 15.7234 9.43448 6.30499 -8.88813 3.7594e-10
250 1 17.2958 11.007 7.87423 -8.90467 1.846e-10
251 1 18.8682 9.43449 6.30524 -8.88812 3.75468e-10
252 1 20.4405 11.007 7.87449 -8.90467 1.84134e-10
253 1 -0.000999073 12.5794 6.30534 -8.88812 3.75362e-10
254 1 1.57133 14.1519 7.87456 -8.90467 1.84169e-10
255 1 3.14374 12.5794 6.30524 -8.88812 3.75615e-10
256 1 4.71608 14.1519 7.87433 -8.90467 1.8428e-10
257 1 6.28855 12.5794 6.30499 -8.88813 3.7595e-10
258 1 7.86094 14.1519 7.87401 -8.90469 1.8457e-10
259 1 9.43347 12.5794 6.30478 -8.88815 3.76228e-10
260 1 11.0059 14.152 7.87386 -8.90471 1.84899e-10
261 1 12.5784 12.5794 6.30478 -8.88815 3.76272e-10
262 1 14.1509 14.1519 7.87401 -8.90469 1.84909e-10
263 1 15.7234 12.5794 6.30499 -8.88813 3.7594e-10
264 1 17.2958 14.1519 7.87433 -8.90467 1.84496e-10
265 1 18.8682 12.5794 6.30524 -8.88812 3.75468e-10
266 1 20.4405 14.1519 7.87456 -8.90467 1.84097e-10
267 1 -0.000999095 15.7243 6.30544 -8.88812 3.75317e-10
268 1 1.57135 17.2967 7.8747 -8.90467 1.84136e-10
269 1 3.14376 15.7243 6.30535 -8.88812 3.75551e-10
270 1 4.71612 17.2968 7.87454 -8.90466 1.84331e-10
271 1 6.28857 15.7243 6.30515 -8.88812 3.75919e-10
272 1 7.86098 17.2968 7.87433 -8.90467 1.84637e-10
273 1 9.43348 15.7244 6.30499 -8.88813 3.76207e-10
274 1 11.0059 17.2968 7.87423 -8.90467 1.84835e-10
275 1 12.5784 15.7244 6.30499 -8.88813 3.76192e-10
276 1 14.1509 17.2968 7.87433 -8.90467 1.84727e-10
277 1 15.7233 15.7243 6.30515 -8.88812 3.75854e-10
278 1 17.2957 17.2968 7.87454 -8.90466 1.84363e-10
279 1 18.8681 15.7243 6.30535 -8.88812 3.7543e-10
280 1 20.4405 17.2967 7.8747 -8.90467 1.84071e-10
281 1 -0.000999117 18.8691 6.30555 -8.88811 3.75314e-10
282 1 1.57136 20.4415 7.87482 -8.90467 1.84155e-10
283 1 3.14378 18.8691 6.30549 -8.88811 3.75527e-10
284 1 4.71615 20.4415 7.8747 -8.90467 1.84411e-10
285 1 6.2886 18.8691 6.30535 -8.88812 3.75928e-10
286 1 7.86101 20.4415 7.87456 -8.90467 1.84722e-10
287 1 9.43349 18.8692 6.30524 -8.88812 3.76228e-10
288 1 11.0059 20.4416 7.87449 -8.90467 1.84861e-10
289 1 12.5784 18.8692 6.30524 -8.88812 3.762e-10
290 1 14.1508 20.4415 7.87456 -8.90467 1.84706e-10
291 1 15.7233 18.8691 6.30535 -8.88812 3.75853e-10
292 1 17.2957 20.4415 7.8747 -8.90467 1.84367e-10
293 1 18.8681 18.8691 6.30549 -8.88811 3.75451e-10
294 1 20.4405 20.4415 7.87482 -8.90467 1.84123e-10
295 1 -0.0010435 5.36644e-14 9.44319 -8.89866 4.83697e-11
296 1 1.57131 1.57237 11.0113 -8.9001 3.16873e-14
297 1 3.14372 2.57237e-13 9.44312 -8.89865 4.85e-11
298 1 4.71608 1.57234 11.0112 -8.90009 3.96687e-14
299 1 6.28854 4.92327e-13 9.44296 -8.89865 4.86961e-11
300 1 7.86094 1.57231 11.011 -8.90009 2.89867e-14
301 1 9.43344 6.36942e-13 9.44283 -8.89865 4.88443e-11
302 1 11.0059 1.57229 11.0109 -8.90009 2.08751e-14
303 1 12.5784 6.37233e-13 9.44283 -8.89865 4.88128e-11
304 1 14.1508 1.57231 11.011 -8.90009 1.96036e-14
305 1 15.7233 4.92323e-13 9.44296 -8.89865 4.86154e-11
306 1 17.2957 1.57234 11.0112 -8.90009 1.32816e-14
307 1 18.8681 2.57177e-13 9.44312 -8.89865 4.84039e-11
308 1 20.4405 1.57237 11.0113 -8.9001 1.43612e-14
309 1 -0.0010435 3.14476 9.44312 -8.89865 4.8328e-11
310 1 1.57128 4.71715 11.0112 -8.90009 2.02219e-14
311 1 3.1437 3.14474 9.44304 -8.89865 4.84216e-11
312 1 4.716 4.71707 11.0109 -8.90006 2.97134e-14
313 1 6.28851 3.14469 9.44283 -8.89864 4.85957e-11
314 1 7.86086 4.71696 11.0106 -8.90007 1.94449e-14
315 1 9.43342 3.14465 9.44265 -8.89865 4.87897e-11
316 1 11.0059 4.71692 11.0104 -8.90008 2.19935e-14
317 1 12.5784 3.14465 9.44265 -8.89865 4.88116e-11
318 1 14.1509 4.71696 11.0106 -8.90007 2.63131e-14
319 1 15.7233 3.14469 9.44283 -8.89864 4.86362e-11
320 1 17.2958 4.71707 11.0109 -8.90006 1.59289e-14
321 1 18.8681 3.14474 9.44304 -8.89865 4.83897e-11
322 1 20.4405 4.71715 11.0112 -8.90009 1.06472e-14
323 1 -0.00104348 6.28958 9.44296 -8.89865 4.82912e-11
324 1 1.57124 7.86201 11.011 -8.90009 1.04455e-14
325 1 3.14365 6.28955 9.44283 -8.89864 4.82905e-11
326 1 4.71589 7.86193 11.0106 -8.90007 1.66842e-14
327 1 6.28843 6.28947 9.44248 -8.89864 4.84866e-11
328 1 7.86074 7.8618 11.0099 -8.90011 7.60024e-14
329 1 9.43338 6.28941 9.44217 -8.89865 4.87424e-11
330 1 11.0059 7.86175 11.0096 -8.90015 1.67179e-13
331 1 12.5784 6.28941 9.44217 -8.89865 4.88563e-11
332 1 14.151 7.8618 11.0099 -8.90011 1.27728e-13
333 1 15.7234 6.28947 9.44248 -8.89864 4.86872e-11
334 1 17.2959 7.86193 11.0106 -8.90007 2.5716e-14
335 1 18.8682 6.28955 9.44283 -8.89864 4.8445e-11
336 1 20.4405 7.86201 11.011 -8.90009 1.12334e-14
337 1 -0.00104346 9.43448 9.44283 -8.89865 4.83093e-11
338 1 1.57122 11.007 11.0109 -8.90009 7.68131e-15
339 1 3.14361 9.43447 9.44265 -8.89865 4.82419e-11
340 1 4.71585 11.007 11.0104 -8.90008 1.43417e-14
341 1 6.28837 9.43443 9.44217 -8.89865 4.85213e-11
342 1 7.86068 11.007 11.0096 -8.90015 1.45982e-13
343 1 9.43335 9.43439 9.44171 -8.89872 4.88951e-11
344 1 11.0059 11.007 11.0091 -8.90037 4.28062e-13
345 1 12.5785 9.43439 9.44171 -8.89872 4.89104e-11
346 1 14.1511 11.007 11.0096 -8.90015 1.93781e-13
347 1 15.7234 9.43443 9.44217 -8.89865 4.87677e-11
348 1 17.2959 11.007 11.0104 -8.90008 3.36954e-14
349 1 18.8682 9.43447 9.44265 -8.89865 4.85485e-11
350 1 20.4405 11.007 11.0109 -8.90009 1.3204e-14
351 1 -0.00104346 12.5794 9.44283 -8.89865 4.83093e-11
352 1 1.57124 14.1519 11.011 -8.90009 1.04483e-14
353 1 3.14361 12.5794 9.44265 -8.89865 4.82423e-11
354 1 4.71589 14.152 11.0106 -8.90007 1.66969e-14
355 1 6.28837 12.5795 9.44217 -8.89865 4.85222e-11
356 1 7.86074 14.1521 11.0099 -8.90011 7.53256e-14
357 1 9.43335 12.5795 9.44171 -8.89872 4.88957e-11
358 1 11.0059 14.1522 11.0096 -8.90015 1.65393e-13
359 1 12.5785 12.5795 9.44171 -8.89872 4.891e-11
360 1 14.151 14.1521 11.0099 -8.90011 1.26688e-13
361 1 15.7234 12.5795 9.44217 -8.89865 4.87669e-11
362 1 17.2959 14.152 11.0106 -8.90007 2.56964e-14
363 1 18.8682 12.5794 9.44265 -8.89865 4.85481e-11
364 1 20.4405 14.1519 11.011 -8.90009 1.12202e-14
365 1 -0.00104348 15.7243 9.44296 -8.89865 4.82912e-11
366 1 1.57128 17.2968 11.0112 -8.90009 2.02241e-14
367 1 3.14365 15.7243 9.44283 -8.89864 4.82912e-11
368 1 4.716 17.2968 11.0109 -8.90006 2.96724e-14
369 1 6.28843 15.7244 9.44248 -8.89864 4.84875e-11
370 1 7.86086 17.2969 11.0106 -8.90007 1.94458e-14
371 1 9.43338 15.7245 9.44217 -8.89865 4.87433e-11
372 1 11.0059 17.297 11.0104 -8.90008 2.2001e-14
373 1 12.5784 15.7245 9.44217 -8.89865 4.88554e-11
374 1 14.1509 17.2969 11.0106 -8.90007 2.63243e-14
375 1 15.7234 15.7244 9.44248 -8.89864 4.86862e-11
376 1 17.2958 17.2968 11.0109 -8.90006 1.59271e-14
377 1 18.8682 15.7243 9.44283 -8.89864 4.84444e-11
378 1 20.4405 17.2968 11.0112 -8.90009 1.06318e-14
379 1 -0.0010435 18.8691 9.44312 -8.89865 4.8328e-11
380 1 1.57131 20.4415 11.0113 -8.9001 3.16912e-14
381 1 3.1437 18.8692 9.44304 -8.89865 4.84216e-11
382 1 4.71608 20.4416 11.0112 -8.90009 3.96528e-14
383 1 6.28851 18.8692 9.44283 -8.89864 4.85959e-11
384 1 7.86094 20.4416 11.011 -8.90009 2.89579e-14
385 1 9.43342 18.8692 9.44265 -8.89865 4.87898e-11
386 1 11.0059 20.4416 11.0109 -8.90009 2.08656e-14
387 1 12.5784 18.8692 9.44265 -8.89865 4.88115e-11
388 1 14.1508 20.4416 11.011 -8.90009 1.96079e-14
389 1 15.7233 18.8692 9.44283 -8.89864 4.86359e-11
390 1 17.2957 20.4416 11.0112 -8.90009 1.32765e-14
391 1 18.8681 18.8692 9.44304 -8.89865 4.83897e-11
392 1 20.4405 20.4415 11.0113 -8.9001 1.43623e-14
393 1 -0.00109242 5.75431e-13 12.5796 -8.89868 4.56074e-11
394 1 3.14369 -1.7957e-13 12.5795 -8.89867 4.55216e-11
395 1 6.2885 -1.88338e-12 12.5793 -8.89867 4.53232e-11
396 1 9.43339 -3.02409e-12 12.5791 -8.89868 4.50507e-11
397 1 12.5783 -3.02141e-12 12.5791 -8.89868 4.5026e-11
398 1 15.7232 -1.87945e-12 12.5793 -8.89867 4.52678e-11
399 1 18.868 -1.76342e-13 12.5795 -8.89867 4.55611e-11
400 1 22.0128 3.14478 12.5795 -8.89867 4.57451e-11
401 1 3.14365 3.14474 12.5794 -8.89866 4.58404e-11
402 1 6.28843 3.14464 12.5791 -8.89864 4.54e-11
403 1 9.43335 3.14455 12.5788 -8.89865 4.50949e-11
404 1 12.5784 3.14455 12.5788 -8.89865 4.52018e-11
405 1 15.7233 3.14464 12.5791 -8.89864 4.54514e-11
406 1 18.8681 3.14474 12.5794 -8.89866 4.55446e-11
407 1 22.0128 6.28959 12.5793 -8.89867 4.59401e-11
408 1 3.14354 6.28952 12.5791 -8.89864 4.5905e-11
409 1 6.28824 6.28933 12.5785 -8.89854 4.38396e-11
410 1 9.43325 6.28917 12.5779 -8.8986 4.5108e-11
411 1 12.5785 6.28917 12.5779 -8.8986 4.59584e-11
412 1 15.7235 6.28933 12.5785 -8.89854 4.7529e-11
413 1 18.8682 6.28952 12.5791 -8.89864 4.58614e-11
414 1 22.0128 9.43448 12.5791 -8.89868 4.59945e-11
415 1 3.14346 9.43445 12.5788 -8.89865 4.56914e-11
416 1 6.28808 9.43434 12.5779 -8.8986 4.26823e-11
417 1 9.43312 9.43421 12.5768 -8.89878 4.57416e-11
418 1 12.5786 9.43421 12.5768 -8.89878 4.47916e-11
419 1 15.7236 9.43434 12.5779 -8.8986 4.8614e-11
420 1 18.8683 9.43445 12.5788 -8.89865 4.61025e-11
421 1 22.0128 12.5794 12.5791 -8.89868 4.59945e-11
422 1 3.14346 12.5795 12.5788 -8.89865 4.56929e-11
423 1 6.28808 12.5796 12.5779 -8.8986 4.26886e-11
424 1 9.43312 12.5797 12.5768 -8.89878 4.57488e-11
425 1 12.5786 12.5797 12.5768 -8.89878 4.47814e-11
426 1 15.7236 12.5796 12.5779 -8.8986 4.86051e-11
427 1 18.8683 12.5795 12.5788 -8.89865 4.6101e-11
428 1 22.0128 15.7243 12.5793 -8.89867 4.59401e-11
429 1 3.14354 15.7244 12.5791 -8.89864 4.59044e-11
430 1 6.28824 15.7246 12.5785 -8.89854 4.38522e-11
431 1 9.43325 15.7247 12.5779 -8.8986 4.51065e-11
432 1 12.5785 15.7247 12.5779 -8.8986 4.59538e-11
433 1 15.7235 15.7246 12.5785 -8.89854 4.75133e-11
434 1 18.8682 15.7244 12.5791 -8.89864 4.58621e-11
435 1 22.0128 18.8691 12.5795 -8.89867 4.57451e-11
436 1 3.14365 18.8692 12.5794 -8.89866 4.58381e-11
437 1 6.28843 18.8693 12.5791 -8.89864 4.53991e-11
438 1 9.43335 18.8693 12.5788 -8.89865 4.50946e-11
439 1 12.5784 18.8693 12.5788 -8.89865 4.52021e-11
440 1 15.7233 18.8693 12.5791 -8.89864 4.54522e-11
441 1 18.8681 18.8692 12.5794 -8.89866 4.55469e-11
442 1 1.5713 1.57241 14.1479 -8.9047 1.79152e-10
443 1 4.7161 1.57237 14.1478 -8.90468 1.78949e-10
444 1 7.86093 1.5723 14.1475 -8.9047 1.78135e-10
445 1 11.0058 1.57227 14.1474 -8.9047 1.77872e-10
446 1 14.1507 1.5723 14.1475 -8.9047 1.78251e-10
447 1 17.2956 1.57237 14.1478 -8.90468 1.78684e-10
448 1 20.4404 1.57241 14.1479 -8.9047 1.78968e-10
449 1 1.57126 4.71722 14.1478 -8.90468 1.80046e-10
450 1 4.71597 4.71708 14.1475 -8.90465 1.76187e-10
451 1 7.86076 4.71685 14.1469 -8.90465 1.7643e-10
452 1 11.0058 4.71676 14.1466 -8.90466 1.78919e-10
453 1 14.1509 4.71685 14.1469 -8.90465 1.81608e-10
454 1 17.2957 4.71708 14.1475 -8.90465 1.82811e-10
455 1 20.4404 4.71722 14.1478 -8.90468 1.7945e-10
456 1 1.57119 7.86204 14.1475 -8.9047 1.79818e-10
457 1 4.71574 7.86188 14.1469 -8.90465 1.72902e-10
458 1 7.86039 7.8615 14.1455 -8.9044 1.92328e-10
459 1 11.0058 7.86138 14.1447 -8.90466 1.81107e-10
460 1 14.1513 7.8615 14.1455 -8.9044 1.69828e-10
461 1 17.2959 7.86188 14.1469 -8.90465 1.86857e-10
462 1 20.4405 7.86204 14.1475 -8.9047 1.80582e-10
463 1 1.57116 11.007 14.1474 -8.9047 1.79522e-10
464 1 4.71564 11.007 14.1466 -8.90466 1.72595e-10
465 1 7.86026 11.007 14.1447 -8.90466 1.98592e-10
466 1 11.0058 11.007 14.1432 -8.90674 1.98406e-10
467 1 14.1514 11.007 14.1447 -8.90466 1.65408e-10
468 1 17.296 11.007 14.1466 -8.90466 1.86981e-10
469 1 20.4405 11.007 14.1474 -8.9047 1.81019e-10
470 1 1.57119 14.1519 14.1475 -8.9047 1.79823e-10
471 1 4.71574 14.152 14.1469 -8.90465 1.72944e-10
472 1 7.86039 14.1524 14.1455 -8.9044 1.9229e-10
473 1 11.0058 14.1525 14.1447 -8.90466 1.81072e-10
474 1 14.1513 14.1524 14.1455 -8.9044 1.69829e-10
475 1 17.2959 14.152 14.1469 -8.90465 1.86811e-10
476 1 20.4405 14.1519 14.1475 -8.9047 1.80578e-10
477 1 1.57126 17.2967 14.1478 -8.90468 1.80042e-10
478 1 4.71597 17.2968 14.1475 -8.90465 1.76218e-10
479 1 7.86076 17.297 14.1469 -8.90465 1.76447e-10
480 1 11.0058 17.2971 14.1466 -8.90466 1.78916e-10
481 1 14.1509 17.297 14.1469 -8.90465 1.81584e-10
482 1 17.2957 17.2968 14.1475 -8.90465 1.82778e-10
483 1 20.4404 17.2967 14.1478 -8.90468 1.79454e-10
484 1 1.5713 20.4415 14.1479 -8.9047 1.7915e-10
485 1 4.7161 20.4415 14.1478 -8.90468 1.78946e-10
486 1 7.86093 20.4416 14.1475 -8.9047 1.78135e-10
487 1 11.0058 20.4416 14.1474 -8.9047 1.77872e-10
488 1 14.1507 20.4416 14.1475 -8.9047 1.78251e-10
489 1 17.2956 20.4415 14.1478 -8.90468 1.78687e-10
490 1 20.4404 20.4415 14.1479 -8.9047 1.7897e-10
491 1 22.0128 7.43064e-13 15.7172 -8.88818 3.68759e-10
492 1 1.5714 1.57255 17.279 -8.90297 6.077e-10
493 1 3.14379 -1.88366e-12 15.7172 -8.88819 3.68852e-10
494 1 4.71639 1.5726 17.279 -8.90302 6.06732e-10
495 1 6.2886 -4.17547e-12 15.7171 -8.88817 3.68416e-10
496 1 7.86111 1.57254 17.2788 -8.9031 6.04965e-10
497 1 9.4334 -3.22046e-12 15.7169 -8.8882 3.67645e-10
498 1 11.0058 1.5725 17.2787 -8.90309 6.05504e-10
499 1 12.5782 -3.21773e-12 15.7169 -8.8882 3.6694e-10
500 1 14.1505 1.57254 17.2788 -8.9031 6.06823e-10
501 1 15.723 -4.1704e-12 15.7171 -8.88817 3.67644e-10
502 1 17.2952 1.5726 17.279 -8.90302 6.06604e-10
503 1 18.8678 -1.88117e-12 15.7172 -8.88819 3.68296e-10
504 1 20.4402 1.57255 17.279 -8.90297 6.06638e-10
505 1 22.0128 3.14492 15.7172 -8.88819 3.69396e-10
506 1 1.57145 4.71755 17.279 -8.90302 6.08276e-10
507 1 3.14377 3.14491 15.7171 -8.88818 3.69378e-10
508 1 4.71649 4.71764 17.2789 -8.90324 5.96988e-10
509 1 6.28854 3.14478 15.7169 -8.88809 3.64242e-10
510 1 7.86095 4.71722 17.2782 -8.90292 6.19314e-10
511 1 9.43336 3.14464 15.7165 -8.88817 3.67878e-10
512 1 11.0058 4.71706 17.2777 -8.90284 6.09662e-10
513 1 12.5783 3.14464 15.7165 -8.88817 3.68768e-10
514 1 14.1506 4.71722 17.2782 -8.90292 6.02018e-10
515 1 15.7231 3.14478 15.7169 -8.88809 3.7308e-10
516 1 17.2951 4.71764 17.2789 -8.90324 6.19143e-10
517 1 18.8679 3.14491 15.7171 -8.88818 3.68932e-10
518 1 20.4401 4.71755 17.279 -8.90302 6.09326e-10
519 1 22.0128 6.28974 15.7171 -8.88817 3.7073e-10
520 1 1.57138 7.86227 17.2788 -8.9031 5.99498e-10
521 1 3.14364 6.28967 15.7169 -8.88809 3.62891e-10
522 1 4.71607 7.86211 17.2782 -8.90292 6.71344e-10
523 1 6.28822 6.28936 15.7161 -8.8877 3.89181e-10
524 1 7.85989 7.86105 17.2759 -8.90267 9.17059e-10
525 1 9.43314 6.28897 15.7149 -8.88787 3.88191e-10
526 1 11.0058 7.86102 17.2737 -8.90497 5.94548e-10
527 1 12.5785 6.28897 15.7149 -8.88787 3.59702e-10
528 1 14.1517 7.86105 17.2759 -8.90267 4.62484e-10
529 1 15.7234 6.28936 15.7161 -8.8877 3.55967e-10
530 1 17.2955 7.86211 17.2782 -8.90292 5.59218e-10
531 1 18.868 6.28967 15.7169 -8.88809 3.77825e-10
532 1 20.4402 7.86227 17.2788 -8.9031 6.21387e-10
533 1 22.0128 9.43454 15.7169 -8.8882 3.71347e-10
534 1 1.57135 11.007 17.2787 -8.90309 5.94398e-10
535 1 3.1435 9.4345 15.7165 -8.88817 3.59663e-10
536 1 4.7159 11.007 17.2777 -8.90284 7.00423e-10
537 1 6.28783 9.43427 15.7149 -8.88787 4.38818e-10
538 1 7.85986 11.007 17.2737 -8.90497 5.19278e-10
539 1 9.43255 9.43369 15.7118 -8.88714 4.20963e-10
540 1 11.0058 11.007 17.2662 -8.91709 3.57823e-09
541 1 12.5791 9.43369 15.7118 -8.88714 3.48599e-10
542 1 14.1517 11.007 17.2737 -8.90497 7.19751e-10
543 1 15.7238 9.43427 15.7149 -8.88787 3.16867e-10
544 1 17.2957 11.007 17.2777 -8.90284 5.34992e-10
545 1 18.8681 9.4345 15.7165 -8.88817 3.82159e-10
546 1 20.4402 11.007 17.2787 -8.90309 6.27512e-10
547 1 22.0128 12.5794 15.7169 -8.8882 3.71347e-10
548 1 1.57138 14.1516 17.2788 -8.9031 5.99605e-10
549 1 3.1435 12.5794 15.7165 -8.88817 3.59722e-10
550 1 4.71607 14.1518 17.2782 -8.90292 6.70816e-10
551 1 6.28783 12.5796 15.7149 -8.88787 4.38296e-10
552 1 7.85989 14.1529 17.2759 -8.90267 9.13546e-10
553 1 9.43255 12.5802 15.7118 -8.88714 4.20593e-10
554 1 11.0058 14.1529 17.2737 -8.90497 5.94602e-10
555 1 12.5791 12.5802 15.7118 -8.88714 3.48213e-10
556 1 14.1517 14.1529 17.2759 -8.90267 4.63352e-10
557 1 15.7238 12.5796 15.7149 -8.88787 3.17251e-10
558 1 17.2955 14.1518 17.2782 -8.90292 5.59697e-10
559 1 18.8681 12.5794 15.7165 -8.88817 3.82097e-10
560 1 20.4402 14.1516 17.2788 -8.9031 6.21279e-10
561 1 22.0128 15.7242 15.7171 -8.88817 3.7073e-10
562 1 1.57145 17.2964 17.279 -8.90302 6.08285e-10
563 1 3.14364 15.7242 15.7169 -8.88809 3.62966e-10
564 1 4.71649 17.2963 17.2789 -8.90324 5.97095e-10
565 1 6.28822 15.7245 15.7161 -8.8877 3.89051e-10
566 1 7.86095 17.2967 17.2782 -8.90292 6.19128e-10
567 1 9.43314 15.7249 15.7149 -8.88787 3.88064e-10
568 1 11.0058 17.2968 17.2777 -8.90284 6.09621e-10
569 1 12.5785 15.7249 15.7149 -8.88787 3.59695e-10
570 1 14.1506 17.2967 17.2782 -8.90292 6.02156e-10
571 1 15.7234 15.7245 15.7161 -8.8877 3.56078e-10
572 1 17.2951 17.2963 17.2789 -8.90324 6.19032e-10
573 1 18.868 15.7242 15.7169 -8.88809 3.77747e-10
574 1 20.4401 17.2964 17.279 -8.90302 6.09317e-10
575 1 22.0128 18.869 15.7172 -8.88819 3.69396e-10
576 1 1.5714 20.4413 17.279 -8.90297 6.07692e-10
577 1 3.14377 18.869 15.7171 -8.88818 3.69374e-10
578 1 4.71639 20.4413 17.279 -8.90302 6.06739e-10
579 1 6.28854 18.8691 15.7169 -8.88809 3.64284e-10
580 1 7.86111 20.4414 17.2788 -8.9031 6.04984e-10
581 1 9.43336 18.8693 15.7165 -8.88817 3.67876e-10
582 1 11.0058 20.4414 17.2787 -8.90309 6.05502e-10
583 1 12.5783 18.8693 15.7165 -8.88817 3.68765e-10