ITEM: TIMESTEP
147
ITEM: NUMBER OF ATOMS
736
ITEM: BOX BOUNDS pp pp pp
0.0000000000000000e+00 2.2013900999999997e+01
0.0000000000000000e+00 2.2013900999999997e+01
0.0000000000000000e+00 5.3462330999999999e+01
ITEM: ATOMS id type x y z c_pot c_ke
1 1 -1.43166e-05 1.22589e-16 0.0972585 -7.4018 1.97624e-06
2 1 1.57239 1.57242 1.624 -8.68379 2.4595e-06
3 1 3.14485 1.01747e-15 0.0972358 -7.4018 2.13767e-06
4 1 4.71725 1.57242 1.62398 -8.68378 2.28568e-06
5 1 6.28972 4.20874e-16 0.0972432 -7.4018 1.93197e-06
6 1 7.86211 1.57242 1.62401 -8.68378 1.7815e-06
7 1 9.43459 1.17325e-15 0.0972751 -7.40181 1.50061e-06
8 1 11.007 1.57242 1.62405 -8.68379 1.31402e-06
9 1 12.5794 8.4499e-16 0.0973074 -7.40183 1.16867e-06
10 1 14.1518 1.57242 1.62409 -8.68379 1.16571e-06
11 1 15.7242 6.67114e-16 0.0973158 -7.40183 1.19947e-06
12 1 17.2966 1.57242 1.62408 -8.68379 1.4919e-06
13 1 18.8691 1.3622e-16 0.0972941 -7.40182 1.56358e-06
14 1 20.4414 1.57242 1.62404 -8.68379 2.09702e-06
15 1 -1.93628e-05 3.14485 0.0972676 -7.40181 1.81029e-06
16 1 1.57237 4.71726 1.62401 -8.68379 1.96981e-06
17 1 3.14484 3.14485 0.0972422 -7.4018 1.98862e-06
18 1 4.71723 4.71726 1.62399 -8.68378 1.82905e-06
19 1 6.28972 3.14484 0.0972457 -7.4018 1.79635e-06
20 1 7.8621 4.71725 1.624 -8.68378 1.38681e-06
21 1 9.43458 3.14484 0.0972753 -7.40181 1.36935e-06
22 1 11.007 4.71725 1.62404 -8.68378 9.66562e-07
23 1 12.5794 3.14484 0.0973088 -7.40183 1.02509e-06
24 1 14.1518 4.71725 1.62409 -8.68379 7.76002e-07
25 1 15.7242 3.14485 0.0973209 -7.40183 1.03357e-06
26 1 17.2966 4.71726 1.62409 -8.68379 1.01676e-06
27 1 18.869 3.14485 0.0973025 -7.40182 1.38766e-06
28 1 20.4414 4.71727 1.62406 -8.68379 1.59037e-06
29 1 -3.0701e-05 6.2897 0.097288 -7.40182 1.43144e-06
30 1 1.57236 7.86211 1.62403 -8.68379 1.43565e-06
31 1 3.14483 6.28969 0.0972567 -7.40181 1.65114e-06
32 1 4.71721 7.8621 1.62399 -8.68378 1.36535e-06
33 1 6.2897 6.28969 0.0972509 -7.40181 1.49987e-06
34 1 7.86208 7.8621 1.62399 -8.68378 1.05818e-06
35 1 9.43457 6.28968 0.0972749 -7.40182 1.09422e-06
36 1 11.0069 7.86209 1.62403 -8.68378 7.4118e-07
37 1 12.5794 6.28969 0.0973109 -7.40183 7.24594e-07
38 1 14.1518 7.8621 1.62408 -8.68378 4.85341e-07
39 1 15.7242 6.28969 0.0973319 -7.40184 6.73338e-07
40 1 17.2966 7.8621 1.62411 -8.68379 5.62764e-07
41 1 18.869 6.2897 0.0973216 -7.40183 9.92366e-07
42 1 20.4414 7.86211 1.62409 -8.68379 1.04732e-06
43 1 -3.97926e-05 9.43453 0.0973044 -7.40183 1.12168e-06
44 1 1.57235 11.007 1.62404 -8.68379 1.22532e-06
45 1 3.14481 9.43453 0.0972683 -7.40181 1.37797e-06
46 1 4.7172 11.007 1.624 -8.68378 1.19688e-06
47 1 6.28969 9.43453 0.0972549 -7.40181 1.27045e-06
48 1 7.86207 11.007 1.62399 -8.68378 9.70621e-07
49 1 9.43456 9.43453 0.0972737 -7.40182 8.93577e-07
50 1 11.0069 11.007 1.62402 -8.68378 7.15488e-07
51 1 12.5794 9.43453 0.0973118 -7.40183 5.05889e-07
52 1 14.1518 11.007 1.62408 -8.68378 4.25935e-07
53 1 15.7242 9.43453 0.0973403 -7.40184 3.97023e-07
54 1 17.2966 11.007 1.62412 -8.68379 4.10211e-07
55 1 18.869 9.43453 0.0973368 -7.40184 6.75346e-07
56 1 20.4414 11.007 1.6241 -8.68379 8.37345e-07
57 1 -3.97926e-05 12.5794 0.0973044 -7.40183 1.12168e-06
58 1 1.57236 14.1518 1.62403 -8.68379 1.43565e-06
59 1 3.14481 12.5794 0.0972683 -7.40181 1.37797e-06
60 1 4.71721 14.1518 1.62399 -8.68378 1.36535e-06
61 1 6.28969 12.5794 0.0972549 -7.40181 1.27045e-06
62 1 7.86208 14.1518 1.62399 -8.68378 1.05818e-06
63 1 9.43456 12.5794 0.0972737 -7.40182 8.93577e-07
64 1 11.0069 14.1518 1.62403 -8.68378 7.4118e-07
65 1 12.5794 12.5794 0.0973118 -7.40183 5.05889e-07
66 1 14.1518 14.1518 1.62408 -8.68378 4.85341e-07
67 1 15.7242 12.5794 0.0973403 -7.40184 3.97023e-07
68 1 17.2966 14.1518 1.62411 -8.68379 5.62764e-07
69 1 18.869 12.5794 0.0973368 -7.40184 6.75346e-07
70 1 20.4414 14.1518 1.62409 -8.68379 1.04732e-06
71 1 -3.0701e-05 15.7242 0.097288 -7.40182 1.43144e-06
72 1 1.57237 17.2966 1.62401 -8.68379 1.96981e-06
73 1 3.14483 15.7242 0.0972567 -7.40181 1.65114e-06
74 1 4.71723 17.2966 1.62399 -8.68378 1.82905e-06
75 1 6.2897 15.7242 0.0972509 -7.40181 1.49987e-06
76 1 7.8621 17.2967 1.624 -8.68378 1.38681e-06
77 1 9.43457 15.7242 0.0972749 -7.40182 1.09422e-06
78 1 11.007 17.2967 1.62404 -8.68378 9.66562e-07
79 1 12.5794 15.7242 0.0973109 -7.40183 7.24594e-07
80 1 14.1518 17.2966 1.62409 -8.68379 7.76002e-07
81 1 15.7242 15.7242 0.0973319 -7.40184 6.73338e-07
82 1 17.2966 17.2966 1.62409 -8.68379 1.01676e-06
83 1 18.869 15.7242 0.0973216 -7.40183 9.92366e-07
84 1 20.4414 17.2966 1.62406 -8.68379 1.59037e-06
85 1 -1.93628e-05 18.869 0.0972676 -7.40181 1.81029e-06
86 1 1.57239 20.4415 1.624 -8.68379 2.4595e-06
87 1 3.14484 18.8691 0.0972422 -7.4018 1.98862e-06
88 1 4.71725 20.4415 1.62398 -8.68378 2.28568e-06
89 1 6.28972 18.8691 0.0972457 -7.4018 1.79635e-06
90 1 7.86211 20.4415 1.62401 -8.68378 1.7815e-06
91 1 9.43458 18.8691 0.0972753 -7.40181 1.36935e-06
92 1 11.007 20.4415 1.62405 -8.68379 1.31402e-06
93 1 12.5794 18.8691 0.0973088 -7.40183 1.02509e-06
94 1 14.1518 20.4415 1.62409 -8.68379 1.16571e-06
95 1 15.7242 18.8691 0.0973209 -7.40183 1.03357e-06
96 1 17.2966 20.4415 1.62408 -8.68379 1.4919e-06
97 1 18.869 18.869 0.0973025 -7.40182 1.38766e-06
98 1 20.4414 20.4415 1.62404 -8.68379 2.09702e-06
99 1 -7.59301e-05 2.50938e-18 3.15413 -8.93807 2.51595e-06
100 1 1.57226 1.57241 4.74342 -8.90301 2.80784e-06
101 1 3.14477 4.05086e-16 3.1541 -8.93807 2.62511e-06
102 1 4.71711 1.57241 4.74339 -8.90301 2.65715e-06
103 1 6.28963 5.47852e-16 3.1541 -8.93807 2.21904e-06
104 1 7.86198 1.5724 4.7434 -8.90301 2.1096e-06
105 1 9.43449 1.08822e-15 3.15414 -8.93807 1.67914e-06
106 1 11.0069 1.5724 4.74345 -8.90301 1.58202e-06
107 1 12.5793 8.43248e-16 3.15418 -8.93806 1.32682e-06
108 1 14.1517 1.5724 4.7435 -8.90301 1.32039e-06
109 1 15.7242 1.08875e-15 3.15421 -8.93806 1.38965e-06
110 1 17.2965 1.57241 4.74351 -8.90301 1.58456e-06
111 1 18.869 -8.56514e-17 3.15418 -8.93806 1.92229e-06
112 1 20.4413 1.57241 4.74347 -8.90301 2.29895e-06
113 1 -8.29488e-05 3.14484 3.15414 -8.93807 2.18846e-06
114 1 1.57224 4.71724 4.74342 -8.90301 2.14009e-06
115 1 3.14476 3.14483 3.1541 -8.93807 2.30723e-06
116 1 4.71708 4.71723 4.74337 -8.90301 2.03838e-06
117 1 6.28962 3.14482 3.15409 -8.93807 1.92696e-06
118 1 7.86195 4.71722 4.74337 -8.90301 1.61871e-06
119 1 9.43448 3.14482 3.15413 -8.93807 1.43042e-06
120 1 11.0068 4.71721 4.74341 -8.90301 1.2164e-06
121 1 12.5793 3.14482 3.15418 -8.93807 1.08992e-06
122 1 14.1517 4.71722 4.74347 -8.90301 9.21581e-07
123 1 15.7242 3.14483 3.1542 -8.93806 1.11048e-06
124 1 17.2965 4.71724 4.74351 -8.90301 1.03181e-06
125 1 18.869 3.14483 3.15419 -8.93806 1.60129e-06
126 1 20.4413 4.71724 4.74348 -8.90301 1.64346e-06
127 1 -9.87076e-05 6.28968 3.15416 -8.93807 1.54228e-06
128 1 1.57221 7.86209 4.74343 -8.90301 1.46082e-06
129 1 3.14473 6.28967 3.15411 -8.93807 1.68954e-06
130 1 4.71704 7.86208 4.74336 -8.90301 1.46016e-06
131 1 6.28959 6.28966 3.15408 -8.93808 1.40961e-06
132 1 7.86192 7.86207 4.74332 -8.90302 1.28544e-06
133 1 9.43446 6.28965 3.1541 -8.93808 1.06406e-06
134 1 11.0068 7.86206 4.74335 -8.90302 1.10988e-06
135 1 12.5793 6.28966 3.15415 -8.93808 7.68955e-07
136 1 14.1517 7.86207 4.74343 -8.90302 7.61353e-07
137 1 15.7242 6.28967 3.1542 -8.93807 6.59299e-07
138 1 17.2965 7.86208 4.7435 -8.90301 5.96913e-07
139 1 18.869 6.28967 3.1542 -8.93806 1.00135e-06
140 1 20.4413 7.86209 4.7435 -8.90301 1.00263e-06
141 1 -0.000111334 9.43452 3.15418 -8.93807 1.11391e-06
142 1 1.5722 11.007 4.74344 -8.90301 1.21341e-06
143 1 3.14472 9.43452 3.15411 -8.93807 1.29111e-06
144 1 4.71703 11.007 4.74335 -8.90301 1.27216e-06
145 1 6.28957 9.43452 3.15407 -8.93808 1.13432e-06
146 1 7.8619 11.007 4.74329 -8.90302 1.23729e-06
147 1 9.43445 9.43451 3.15407 -8.93809 9.63802e-07
148 1 11.0068 11.007 4.74332 -8.90303 1.18802e-06
149 1 12.5793 9.43452 3.15413 -8.93808 7.23814e-07
150 1 14.1517 11.007 4.74341 -8.90302 8.1072e-07
151 1 15.7242 9.43452 3.1542 -8.93807 4.73832e-07
152 1 17.2965 11.007 4.7435 -8.90301 4.94102e-07
153 1 18.869 9.43452 3.15422 -8.93806 6.41551e-07
154 1 20.4413 11.007 4.7435 -8.90301 7.80453e-07
155 1 -0.000111334 12.5794 3.15418 -8.93807 1.11391e-06
156 1 1.57221 14.1518 4.74343 -8.90301 1.46082e-06
157 1 3.14472 12.5794 3.15411 -8.93807 1.29111e-06
158 1 4.71704 14.1518 4.74336 -8.90301 1.46016e-06
159 1 6.28957 12.5794 3.15407 -8.93808 1.13432e-06
160 1 7.86192 14.1518 4.74332 -8.90302 1.28544e-06
161 1 9.43445 12.5794 3.15407 -8.93809 9.63802e-07
162 1 11.0068 14.1518 4.74335 -8.90302 1.10988e-06
163 1 12.5793 12.5794 3.15413 -8.93808 7.23814e-07
164 1 14.1517 14.1518 4.74343 -8.90302 7.61353e-07
165 1 15.7242 12.5794 3.1542 -8.93807 4.73832e-07
166 1 17.2965 14.1518 4.7435 -8.90301 5.96913e-07
167 1 18.869 12.5794 3.15422 -8.93806 6.41551e-07
168 1 20.4413 14.1518 4.7435 -8.90301 1.00263e-06
169 1 -9.87076e-05 15.7242 3.15416 -8.93807 1.54228e-06
170 1 1.57224 17.2967 4.74342 -8.90301 2.14009e-06
171 1 3.14473 15.7242 3.15411 -8.93807 1.68954e-06
172 1 4.71708 17.2967 4.74337 -8.90301 2.03838e-06
173 1 6.28959 15.7242 3.15408 -8.93808 1.40961e-06
174 1 7.86195 17.2967 4.74337 -8.90301 1.61871e-06
175 1 9.43446 15.7242 3.1541 -8.93808 1.06406e-06
176 1 11.0068 17.2967 4.74341 -8.90301 1.2164e-06
177 1 12.5793 15.7242 3.15415 -8.93808 7.68955e-07
178 1 14.1517 17.2967 4.74347 -8.90301 9.21581e-07
179 1 15.7242 15.7242 3.1542 -8.93807 6.59299e-07
180 1 17.2965 17.2967 4.74351 -8.90301 1.03181e-06
181 1 18.869 15.7242 3.1542 -8.93806 1.00135e-06
182 1 20.4413 17.2967 4.74348 -8.90301 1.64346e-06
183 1 -8.29488e-05 18.8691 3.15414 -8.93807 2.18846e-06
184 1 1.57226 20.4415 4.74342 -8.90301 2.80784e-06
185 1 3.14476 18.8691 3.1541 -8.93807 2.30723e-06
186 1 4.71711 20.4415 4.74339 -8.90301 2.65715e-06
187 1 6.28962 18.8691 3.15409 -8.93807 1.92696e-06
188 1 7.86198 20.4415 4.7434 -8.90301 2.1096e-06
189 1 9.43448 18.8691 3.15413 -8.93807 1.43042e-06
190 1 11.0069 20.4415 4.74345 -8.90301 1.58202e-06
191 1 12.5793 18.8691 3.15418 -8.93807 1.08992e-06
192 1 14.1517 20.4415 4.7435 -8.90301 1.32039e-06
193 1 15.7242 18.8691 3.1542 -8.93806 1.11048e-06
194 1 17.2965 20.4415 4.74351 -8.90301 1.58456e-06
195 1 18.869 18.8691 3.15419 -8.93806 1.60129e-06
196 1 20.4413 20.4415 4.74347 -8.90301 2.29895e-06
197 1 -0.000264946 -4.2321e-16 6.3052 -8.88812 3.03897e-06
198 1 1.572 1.5724 7.8744 -8.90467 3.63691e-06
199 1 3.14457 4.1922e-16 6.30514 -8.88812 3.40747e-06
200 1 4.71684 1.57239 7.87434 -8.90467 3.66555e-06
201 1 6.28943 6.50869e-16 6.30513 -8.88812 3.00634e-06
202 1 7.86173 1.57237 7.87434 -8.90467 2.99947e-06
203 1 9.43431 5.18074e-16 6.30517 -8.88812 2.30951e-06
204 1 11.0066 1.57237 7.87441 -8.90467 2.20712e-06
205 1 12.5792 1.31576e-16 6.30523 -8.88812 1.69613e-06
206 1 14.1515 1.57238 7.87448 -8.90467 1.56912e-06
207 1 15.724 9.08338e-17 6.30527 -8.88811 1.52086e-06
208 1 17.2963 1.57239 7.87452 -8.90467 1.63948e-06
209 1 18.8688 -6.93009e-16 6.30526 -8.88811 2.10909e-06
210 1 20.4411 1.5724 7.87448 -8.90467 2.64898e-06
211 1 -0.000279319 3.14482 6.3052 -8.88812 2.53949e-06
212 1 1.57195 4.71722 7.8744 -8.90467 2.53088e-06
213 1 3.14454 3.14481 6.30514 -8.88812 2.91562e-06
214 1 4.71677 4.71718 7.87429 -8.90467 2.64607e-06
215 1 6.2894 3.14479 6.3051 -8.88812 2.57761e-06
216 1 7.86166 4.71714 7.87424 -8.90467 2.28451e-06
217 1 9.43429 3.14478 6.30513 -8.88812 1.99569e-06
218 1 11.0066 4.71713 7.87428 -8.90467 1.84942e-06
219 1 12.5792 3.14478 6.30519 -8.88812 1.43932e-06
220 1 14.1515 4.71716 7.87439 -8.90466 1.22014e-06
221 1 15.724 3.1448 6.30525 -8.88811 1.18607e-06
222 1 17.2963 4.7172 7.87448 -8.90466 9.38545e-07
223 1 18.8688 3.14481 6.30526 -8.88811 1.65895e-06
224 1 20.4411 4.71722 7.87448 -8.90467 1.63691e-06
225 1 -0.00031155 6.28966 6.30521 -8.88812 1.59383e-06
226 1 1.57189 7.86207 7.87439 -8.90467 1.46442e-06
227 1 3.14449 6.28964 6.30512 -8.88812 1.99271e-06
228 1 4.71669 7.86204 7.87422 -8.90467 1.75684e-06
229 1 6.28934 6.28961 6.30504 -8.88812 1.86921e-06
230 1 7.86157 7.862 7.87407 -8.90469 1.95083e-06
231 1 9.43425 6.28959 6.30502 -8.88813 1.64639e-06
232 1 11.0065 7.86198 7.87407 -8.9047 2.12667e-06
233 1 12.5792 6.2896 6.30509 -8.88812 1.26265e-06
234 1 14.1515 7.86201 7.87424 -8.90469 1.50199e-06
235 1 15.724 6.28962 6.3052 -8.88812 7.7627e-07
236 1 17.2963 7.86205 7.87442 -8.90466 6.11457e-07
237 1 18.8688 6.28965 6.30525 -8.88811 8.88329e-07
238 1 20.441 7.86207 7.87448 -8.90467 7.4986e-07
239 1 -0.000337343 9.43452 6.30522 -8.88812 1.01221e-06
240 1 1.57186 11.007 7.87438 -8.90467 1.10196e-06
241 1 3.14445 9.43451 6.30511 -8.88812 1.43576e-06
242 1 4.71665 11.007 7.87418 -8.90467 1.4987e-06
243 1 6.2893 9.43449 6.30498 -8.88813 1.55794e-06
244 1 7.86154 11.007 7.87399 -8.90471 2.00425e-06
245 1 9.43421 9.43448 6.30492 -8.88814 1.72543e-06
246 1 11.0065 11.007 7.87396 -8.90474 2.5121e-06
247 1 12.5791 9.43449 6.305 -8.88814 1.52395e-06
248 1 14.1515 11.007 7.87416 -8.9047 1.88438e-06
249 1 15.724 9.4345 6.30515 -8.88812 7.90031e-07
250 1 17.2963 11.007 7.8744 -8.90467 6.60307e-07
251 1 18.8688 9.43451 6.30525 -8.88811 5.10254e-07
252 1 20.441 11.007 7.87448 -8.90467 4.88639e-07
253 1 -0.000337343 12.5794 6.30522 -8.88812 1.01221e-06
254 1 1.57189 14.1518 7.87439 -8.90467 1.46442e-06
255 1 3.14445 12.5794 6.30511 -8.88812 1.43576e-06
256 1 4.71669 14.1519 7.87422 -8.90467 1.75684e-06
257 1 6.2893 12.5794 6.30498 -8.88813 1.55794e-06
258 1 7.86157 14.1519 7.87407 -8.90469 1.95083e-06
259 1 9.43421 12.5794 6.30492 -8.88814 1.72543e-06
260 1 11.0065 14.1519 7.87407 -8.9047 2.12667e-06
261 1 12.5791 12.5794 6.305 -8.88814 1.52395e-06
262 1 14.1515 14.1519 7.87424 -8.90469 1.50199e-06
263 1 15.724 12.5794 6.30515 -8.88812 7.90031e-07
264 1 17.2963 14.1519 7.87442 -8.90466 6.11457e-07
265 1 18.8688 12.5794 6.30525 -8.88811 5.10254e-07
266 1 20.441 14.1518 7.87448 -8.90467 7.4986e-07
267 1 -0.00031155 15.7242 6.30521 -8.88812 1.59383e-06
268 1 1.57195 17.2967 7.8744 -8.90467 2.53088e-06
269 1 3.14449 15.7243 6.30512 -8.88812 1.99271e-06
270 1 4.71677 17.2967 7.87429 -8.90467 2.64607e-06
271 1 6.28934 15.7243 6.30504 -8.88812 1.86921e-06
272 1 7.86166 17.2968 7.87424 -8.90467 2.28451e-06
273 1 9.43425 15.7243 6.30502 -8.88813 1.64639e-06
274 1 11.0066 17.2968 7.87428 -8.90467 1.84942e-06
275 1 12.5792 15.7243 6.30509 -8.88812 1.26265e-06
276 1 14.1515 17.2967 7.87439 -8.90466 1.22014e-06
277 1 15.724 15.7243 6.3052 -8.88812 7.7627e-07
278 1 17.2963 17.2967 7.87448 -8.90466 9.38545e-07
279 1 18.8688 15.7243 6.30525 -8.88811 8.88329e-07
280 1 20.4411 17.2967 7.87448 -8.90467 1.63691e-06
281 1 -0.000279319 18.8691 6.3052 -8.88812 2.53949e-06
282 1 1.572 20.4415 7.8744 -8.90467 3.63691e-06
283 1 3.14454 18.8691 6.30514 -8.88812 2.91562e-06
284 1 4.71684 20.4415 7.87434 -8.90467 3.66555e-06
285 1 6.2894 18.8691 6.3051 -8.88812 2.57761e-06
286 1 7.86173 20.4415 7.87434 -8.90467 2.99947e-06
287 1 9.43429 18.8691 6.30513 -8.88812 1.99569e-06
288 1 11.0066 20.4415 7.87441 -8.90467 2.20712e-06
289 1 12.5792 18.8691 6.30519 -8.88812 1.43932e-06
290 1 14.1515 20.4415 7.87448 -8.90467 1.56912e-06
291 1 15.724 18.8691 6.30525 -8.88811 1.18607e-06
292 1 17.2963 20.4415 7.87452 -8.90467 1.63948e-06
293 1 18.8688 18.8691 6.30526 -8.88811 1.65895e-06
294 1 20.4411 20.4415 7.87448 -8.90467 2.64898e-06
295 1 -0.000580807 -4.70934e-16 9.44278 -8.89866 3.84783e-06
296 1 1.57161 1.5724 11.0109 -8.9001 4.70861e-06
297 1 3.14424 -2.3053e-16 9.44269 -8.89866 4.62063e-06
298 1 4.71646 1.57237 11.0108 -8.90009 4.71708e-06
299 1 6.28912 -1.35738e-16 9.44265 -8.89865 4.10082e-06
300 1 7.86136 1.57233 11.0108 -8.90009 3.65035e-06
301 1 9.43402 -6.49697e-16 9.4427 -8.89865 3.10668e-06
302 1 11.0063 1.57233 11.0109 -8.90009 2.6015e-06
303 1 12.5789 -4.89363e-16 9.44279 -8.89865 2.12393e-06
304 1 14.1511 1.57235 11.011 -8.90009 1.60781e-06
305 1 15.7237 -3.41743e-16 9.44286 -8.89865 1.58075e-06
306 1 17.2959 1.57238 11.011 -8.90009 1.46249e-06
307 1 18.8685 -4.39687e-16 9.44285 -8.89866 2.28941e-06
308 1 20.4407 1.57241 11.011 -8.9001 3.01162e-06
309 1 -0.000609358 3.14481 9.44278 -8.89866 2.97027e-06
310 1 1.57151 4.7172 11.0109 -8.90009 2.68574e-06
311 1 3.14419 3.14478 9.44267 -8.89865 3.71815e-06
312 1 4.71631 4.71712 11.0107 -8.90006 2.7835e-06
313 1 6.28906 3.14473 9.44259 -8.89865 3.32238e-06
314 1 7.86121 4.71702 11.0105 -8.90007 2.40937e-06
315 1 9.43398 3.1447 9.4426 -8.89865 2.62476e-06
316 1 11.0062 4.71699 11.0105 -8.90007 2.39213e-06
317 1 12.5789 3.14471 9.44269 -8.89865 1.85517e-06
318 1 14.1512 4.71705 11.0108 -8.90006 1.64362e-06
319 1 15.7237 3.14475 9.44281 -8.89864 1.1757e-06
320 1 17.2959 4.71715 11.011 -8.90006 6.64462e-07
321 1 18.8685 3.1448 9.44284 -8.89865 1.58339e-06
322 1 20.4407 4.71722 11.011 -8.90009 1.33826e-06
323 1 -0.000673242 6.28964 9.44277 -8.89865 1.41711e-06
324 1 1.57139 7.86205 11.0108 -8.90009 9.45474e-07
325 1 3.14408 6.2896 9.44261 -8.89865 2.10108e-06
326 1 4.71612 7.86197 11.0105 -8.90007 1.29805e-06
327 1 6.28892 6.28952 9.44241 -8.89864 2.14302e-06
328 1 7.861 7.86185 11.0101 -8.90011 2.25038e-06
329 1 9.43388 6.28947 9.4423 -8.89865 2.36567e-06
330 1 11.0061 7.86181 11.0099 -8.90014 4.02788e-06
331 1 12.5789 6.28948 9.44241 -8.89865 2.21818e-06
332 1 14.1512 7.86188 11.0103 -8.9001 3.63107e-06
333 1 15.7238 6.28955 9.44265 -8.89864 1.1102e-06
334 1 17.296 7.862 11.0108 -8.90006 1.14885e-06
335 1 18.8685 6.28962 9.44281 -8.89864 5.877e-07
336 1 20.4406 7.86206 11.011 -8.90009 2.37835e-07
337 1 -0.000724282 9.43451 9.44277 -8.89865 5.90314e-07
338 1 1.57134 11.007 11.0108 -8.90009 4.5311e-07
339 1 3.144 9.43449 9.44256 -8.89865 1.21918e-06
340 1 4.71604 11.007 11.0104 -8.90007 9.7409e-07
341 1 6.28881 9.43445 9.44223 -8.89865 1.77583e-06
342 1 7.86091 11.007 11.0098 -8.90015 2.69199e-06
343 1 9.43379 9.43442 9.44199 -8.89872 2.99813e-06
344 1 11.0061 11.007 11.0096 -8.90036 5.4558e-06
345 1 12.5789 9.43442 9.44211 -8.89872 3.48705e-06
346 1 14.1512 11.007 11.0101 -8.90014 5.21097e-06
347 1 15.7238 9.43446 9.4425 -8.89865 1.89954e-06
348 1 17.296 11.007 11.0107 -8.90007 1.88803e-06
349 1 18.8685 9.4345 9.44277 -8.89865 3.75362e-07
350 1 20.4406 11.007 11.011 -8.90009 9.9007e-08
351 1 -0.000724282 12.5794 9.44277 -8.89865 5.90314e-07
352 1 1.57139 14.1518 11.0108 -8.90009 9.45474e-07
353 1 3.144 12.5794 9.44256 -8.89865 1.21918e-06
354 1 4.71612 14.1519 11.0105 -8.90007 1.29805e-06
355 1 6.28881 12.5795 9.44223 -8.89865 1.77583e-06
356 1 7.861 14.152 11.0101 -8.90011 2.25038e-06
357 1 9.43379 12.5795 9.44199 -8.89872 2.99813e-06
358 1 11.0061 14.1521 11.0099 -8.90014 4.02788e-06
359 1 12.5789 12.5795 9.44211 -8.89872 3.48705e-06
360 1 14.1512 14.152 11.0103 -8.9001 3.63107e-06
361 1 15.7238 12.5794 9.4425 -8.89865 1.89954e-06
362 1 17.296 14.1519 11.0108 -8.90006 1.14885e-06
363 1 18.8685 12.5794 9.44277 -8.89865 3.75362e-07
364 1 20.4406 14.1518 11.011 -8.90009 2.37835e-07
365 1 -0.000673242 15.7243 9.44277 -8.89865 1.41711e-06
366 1 1.57151 17.2967 11.0109 -8.90009 2.68574e-06
367 1 3.14408 15.7243 9.44261 -8.89865 2.10108e-06
368 1 4.71631 17.2968 11.0107 -8.90006 2.7835e-06
369 1 6.28892 15.7244 9.44241 -8.89864 2.14302e-06
370 1 7.86121 17.2969 11.0105 -8.90007 2.40937e-06
371 1 9.43388 15.7244 9.4423 -8.89865 2.36567e-06
372 1 11.0062 17.2969 11.0105 -8.90007 2.39213e-06
373 1 12.5789 15.7244 9.44241 -8.89865 2.21818e-06
374 1 14.1512 17.2969 11.0108 -8.90006 1.64362e-06
375 1 15.7238 15.7244 9.44265 -8.89864 1.1102e-06
376 1 17.2959 17.2967 11.011 -8.90006 6.64462e-07
377 1 18.8685 15.7243 9.44281 -8.89864 5.877e-07
378 1 20.4407 17.2967 11.011 -8.90009 1.33826e-06
379 1 -0.000609358 18.8691 9.44278 -8.89866 2.97027e-06
380 1 1.57161 20.4415 11.0109 -8.9001 4.70861e-06
381 1 3.14419 18.8691 9.44267 -8.89865 3.71815e-06
382 1 4.71646 20.4415 11.0108 -8.90009 4.71708e-06
383 1 6.28906 18.8692 9.44259 -8.89865 3.32238e-06
384 1 7.86136 20.4416 11.0108 -8.90009 3.65035e-06
385 1 9.43398 18.8692 9.4426 -8.89865 2.62476e-06
386 1 11.0063 20.4416 11.0109 -8.90009 2.6015e-06
387 1 12.5789 18.8692 9.44269 -8.89865 1.85517e-06
388 1 14.1511 20.4416 11.011 -8.90009 1.60781e-06
389 1 15.7237 18.8691 9.44281 -8.89864 1.1757e-06
390 1 17.2959 20.4415 11.011 -8.90009 1.46249e-06
391 1 18.8685 18.8691 9.44284 -8.89865 1.58339e-06
392 1 20.4407 20.4415 11.011 -8.9001 3.01162e-06
393 1 -0.00101304 -3.79384e-16 12.5791 -8.89869 4.88527e-06
394 1 3.14384 -6.00945e-16 12.579 -8.89868 5.94022e-06
395 1 6.28872 -7.31464e-16 12.579 -8.89867 4.74353e-06
396 1 9.43363 -5.78924e-16 12.579 -8.89868 3.23772e-06
397 1 12.5785 -9.03102e-16 12.5792 -8.89868 2.07294e-06
398 1 15.7233 -5.43946e-16 12.5793 -8.89867 1.28438e-06
399 1 18.8681 3.53363e-17 12.5792 -8.89868 2.33993e-06
400 1 22.0128 3.14483 12.5791 -8.89868 3.32713e-06
401 1 3.14375 3.14478 12.579 -8.89867 4.25798e-06
402 1 6.28861 3.14468 12.5788 -8.89864 3.24532e-06
403 1 9.43354 3.14461 12.5788 -8.89865 2.41599e-06
404 1 12.5785 3.14463 12.579 -8.89865 1.88752e-06
405 1 15.7233 3.14472 12.5792 -8.89864 8.85267e-07
406 1 18.8681 3.14481 12.5792 -8.89867 1.22386e-06
407 1 22.0127 6.28966 12.5791 -8.89867 9.05286e-07
408 1 3.14353 6.28958 12.5789 -8.89864 1.48868e-06
409 1 6.2883 6.28939 12.5785 -8.89854 1.275e-06
410 1 9.43331 6.28925 12.5781 -8.8986 2.68686e-06
411 1 12.5785 6.28927 12.5783 -8.8986 4.10637e-06
412 1 15.7234 6.28944 12.5788 -8.89854 2.33312e-06
413 1 18.868 6.28962 12.5792 -8.89864 3.04655e-07
414 1 22.0126 9.43451 12.5791 -8.89868 4.8251e-08
415 1 3.14336 9.43447 12.5788 -8.89865 2.98056e-07
416 1 6.28804 9.43437 12.578 -8.8986 1.13622e-06
417 1 9.43308 9.43424 12.5772 -8.89878 5.11592e-06
418 1 12.5785 9.43425 12.5774 -8.89878 8.5591e-06
419 1 15.7234 9.43439 12.5785 -8.8986 5.80875e-06
420 1 18.868 9.43449 12.5791 -8.89865 1.14911e-06
421 1 22.0126 12.5794 12.5791 -8.89868 4.8251e-08
422 1 3.14336 12.5794 12.5788 -8.89865 2.98056e-07
423 1 6.28804 12.5795 12.578 -8.8986 1.13622e-06
424 1 9.43308 12.5797 12.5772 -8.89878 5.11592e-06
425 1 12.5785 12.5796 12.5774 -8.89878 8.5591e-06
426 1 15.7234 12.5795 12.5785 -8.8986 5.80875e-06
427 1 18.868 12.5794 12.5791 -8.89865 1.14911e-06
428 1 22.0127 15.7242 12.5791 -8.89867 9.05286e-07
429 1 3.14353 15.7243 12.5789 -8.89864 1.48868e-06
430 1 6.2883 15.7245 12.5785 -8.89854 1.275e-06
431 1 9.43331 15.7247 12.5781 -8.8986 2.68686e-06
432 1 12.5785 15.7246 12.5783 -8.8986 4.10637e-06
433 1 15.7234 15.7245 12.5788 -8.89854 2.33312e-06
434 1 18.868 15.7243 12.5792 -8.89864 3.04655e-07
435 1 22.0128 18.8691 12.5791 -8.89868 3.32713e-06
436 1 3.14375 18.8691 12.579 -8.89867 4.25798e-06
437 1 6.28861 18.8692 12.5788 -8.89864 3.24532e-06
438 1 9.43354 18.8693 12.5788 -8.89865 2.41599e-06
439 1 12.5785 18.8693 12.579 -8.89865 1.88752e-06
440 1 15.7233 18.8692 12.5792 -8.89864 8.85267e-07
441 1 18.8681 18.8691 12.5792 -8.89867 1.22386e-06
442 1 1.57118 1.57244 14.1474 -8.9047 5.97384e-06
443 1 4.71606 1.57239 14.1473 -8.90468 5.27499e-06
444 1 7.86094 1.57233 14.1473 -8.9047 3.15584e-06
445 1 11.0058 1.57231 14.1475 -8.90469 2.0577e-06
446 1 14.1507 1.57235 14.1476 -8.90469 1.15047e-06
447 1 17.2954 1.57242 14.1477 -8.90468 1.01883e-06
448 1 20.4402 1.57245 14.1476 -8.9047 3.48204e-06
449 1 1.57101 4.71727 14.1474 -8.90468 2.68045e-06
450 1 4.71581 4.71712 14.1472 -8.90465 1.98603e-06
451 1 7.86064 4.71691 14.1469 -8.90465 1.16551e-06
452 1 11.0057 4.71685 14.1469 -8.90466 2.55528e-06
453 1 14.1507 4.71697 14.1473 -8.90465 2.57973e-06
454 1 17.2954 4.7172 14.1476 -8.90465 5.89835e-07
455 1 20.4401 4.7173 14.1476 -8.90468 9.966e-07
456 1 1.57079 7.86209 14.1474 -8.90469 4.91852e-07
457 1 4.71542 7.86191 14.1469 -8.90465 1.0743e-07
458 1 7.8601 7.86155 14.1458 -8.9044 2.15468e-06
459 1 11.0055 7.86145 14.1453 -8.90466 8.28616e-06
460 1 14.1509 7.8616 14.1462 -8.90439 9.82933e-06
461 1 17.2955 7.86197 14.1474 -8.90465 4.07184e-06
462 1 20.44 7.86211 14.1476 -8.9047 4.46461e-07
463 1 1.57069 11.007 14.1474 -8.90469 2.17943e-07
464 1 4.71526 11.007 14.1467 -8.90466 9.7594e-08
465 1 7.8599 11.007 14.1451 -8.90467 3.92722e-06
466 1 11.0054 11.007 14.1439 -8.90675 1.27626e-05
467 1 14.1509 11.007 14.1455 -8.90465 1.4948e-05
468 1 17.2955 11.007 14.1472 -8.90466 7.0428e-06
469 1 20.44 11.007 14.1476 -8.90469 1.11322e-06
470 1 1.57079 14.1518 14.1474 -8.90469 4.91852e-07
471 1 4.71542 14.152 14.1469 -8.90465 1.0743e-07
472 1 7.8601 14.1524 14.1458 -8.9044 2.15468e-06
473 1 11.0055 14.1525 14.1453 -8.90466 8.28616e-06
474 1 14.1509 14.1523 14.1462 -8.90439 9.82933e-06
475 1 17.2955 14.1519 14.1474 -8.90465 4.07184e-06
476 1 20.44 14.1518 14.1476 -8.9047 4.46461e-07
477 1 1.57101 17.2966 14.1474 -8.90468 2.68045e-06
478 1 4.71581 17.2968 14.1472 -8.90465 1.98603e-06
479 1 7.86064 17.297 14.1469 -8.90465 1.16551e-06
480 1 11.0057 17.2971 14.1469 -8.90466 2.55528e-06
481 1 14.1507 17.2969 14.1473 -8.90465 2.57973e-06
482 1 17.2954 17.2967 14.1476 -8.90465 5.89835e-07
483 1 20.4401 17.2966 14.1476 -8.90468 9.966e-07
484 1 1.57118 20.4415 14.1474 -8.9047 5.97384e-06
485 1 4.71606 20.4415 14.1473 -8.90468 5.27499e-06
486 1 7.86094 20.4416 14.1473 -8.9047 3.15584e-06
487 1 11.0058 20.4416 14.1475 -8.90469 2.0577e-06
488 1 14.1507 20.4415 14.1476 -8.90469 1.15047e-06
489 1 17.2954 20.4415 14.1477 -8.90468 1.01883e-06
490 1 20.4402 20.4414 14.1476 -8.9047 3.48204e-06
491 1 22.0124 -2.7983e-16 15.7167 -8.88818 6.47521e-06
492 1 1.57084 1.57256 17.2783 -8.90298 7.7617e-06
493 1 3.14351 -9.56324e-16 15.7166 -8.88819 7.37623e-06
494 1 4.71589 1.57259 17.2784 -8.90303 5.70652e-06
495 1 6.28839 -8.30841e-16 15.7167 -8.88817 4.54997e-06
496 1 7.86066 1.57254 17.2786 -8.90311 1.86254e-06
497 1 9.43322 -1.56021e-16 15.7168 -8.8882 2.21011e-06
498 1 11.0053 1.57253 17.2788 -8.9031 8.20845e-07
499 1 12.578 -8.14362e-17 15.717 -8.88819 1.35803e-06
500 1 14.15 1.57259 17.279 -8.9031 5.26541e-07
501 1 15.7227 4.68638e-18 15.7171 -8.88817 7.9954e-07
502 1 17.2946 1.57265 17.2789 -8.90303 8.03048e-07
503 1 18.8675 9.20827e-18 15.7169 -8.88819 2.63409e-06
504 1 20.4396 1.57258 17.2785 -8.90298 4.52902e-06
505 1 22.0123 3.14497 15.7168 -8.88819 4.08283e-06
506 1 1.5707 4.71756 17.2786 -8.90303 3.82865e-06
507 1 3.14341 3.14492 15.7166 -8.88818 4.79774e-06
508 1 4.71578 4.71762 17.2786 -8.90324 1.99747e-06
509 1 6.28824 3.14479 15.7166 -8.88809 2.16791e-06
510 1 7.86027 4.71721 17.2783 -8.90293 7.39863e-08
511 1 9.43308 3.14468 15.7166 -8.88817 9.92605e-07
512 1 11.0051 4.71712 17.2781 -8.90285 3.42979e-06
513 1 12.5779 3.14471 15.7168 -8.88817 1.49717e-06
514 1 14.1499 4.71734 17.2787 -8.90291 5.07129e-06
515 1 15.7227 3.14487 15.717 -8.88809 5.72323e-07
516 1 17.2943 4.71776 17.2791 -8.90323 1.44713e-06
517 1 18.8674 3.14498 15.717 -8.88818 9.86148e-07
518 1 20.4394 4.71761 17.2788 -8.90303 1.54306e-06
519 1 22.0121 6.28979 15.7169 -8.88817 1.1901e-06
520 1 1.57039 7.86227 17.2787 -8.9031 2.9371e-06
521 1 3.14308 6.28969 15.7166 -8.88809 1.28863e-06
522 1 4.71509 7.86208 17.2782 -8.90293 2.12665e-06
523 1 6.28771 6.28937 15.7161 -8.88769 6.52534e-09
524 1 7.85891 7.86104 17.2763 -8.9027 5.58826e-06
525 1 9.43262 6.28902 15.7153 -8.88787 3.40253e-06
526 1 11.0048 7.86107 17.2746 -8.90498 1.97326e-05
527 1 12.5779 6.28907 15.7156 -8.88788 8.74371e-06
528 1 14.1506 7.86116 17.2769 -8.90266 2.57418e-05
529 1 15.7228 6.28948 15.7167 -8.88771 6.30593e-06
530 1 17.2944 7.86221 17.2789 -8.90291 1.20902e-05
531 1 18.8673 6.28977 15.717 -8.88809 1.16871e-06
532 1 20.4392 7.86232 17.279 -8.9031 3.36912e-06
533 1 22.012 9.43456 15.7169 -8.88819 1.41876e-06
534 1 1.57024 11.007 17.2787 -8.9031 4.0172e-06
535 1 3.14278 9.43451 15.7165 -8.88817 8.19467e-07
536 1 4.71481 11.007 17.2778 -8.90285 3.95386e-06
537 1 6.28715 9.43428 15.7151 -8.88787 1.67907e-06
538 1 7.85875 11.007 17.2742 -8.90502 1.13756e-05
539 1 9.43185 9.43371 15.7124 -8.88712 1.11636e-05
540 1 11.0046 11.007 17.2672 -8.91711 3.19086e-05
541 1 12.5783 9.43373 15.7127 -8.88713 2.17207e-05
542 1 14.1505 11.007 17.2749 -8.90495 3.91775e-05
543 1 15.723 9.43433 15.7158 -8.88788 1.70159e-05
544 1 17.2945 11.007 17.2785 -8.90284 2.02758e-05
545 1 18.8673 9.43454 15.7169 -8.88817 5.28309e-06
546 1 20.4391 11.007 17.279 -8.90309 6.21017e-06
547 1 22.012 12.5793 15.7169 -8.88819 1.41876e-06
548 1 1.57039 14.1516 17.2787 -8.9031 2.9371e-06
549 1 3.14278 12.5794 15.7165 -8.88817 8.19467e-07
550 1 4.71509 14.1518 17.2782 -8.90293 2.12665e-06
551 1 6.28715 12.5796 15.7151 -8.88787 1.67907e-06
552 1 7.85891 14.1529 17.2763 -8.9027 5.58826e-06
553 1 9.43185 12.5802 15.7124 -8.88712 1.11636e-05
554 1 11.0048 14.1528 17.2746 -8.90498 1.97326e-05
555 1 12.5783 12.5802 15.7127 -8.88713 2.17207e-05
556 1 14.1506 14.1527 17.2769 -8.90266 2.57418e-05
557 1 15.723 12.5796 15.7158 -8.88788 1.70159e-05
558 1 17.2944 14.1517 17.2789 -8.90291 1.20902e-05
559 1 18.8673 12.5794 15.7169 -8.88817 5.28309e-06
560 1 20.4392 14.1516 17.279 -8.9031 3.36912e-06
561 1 22.0121 15.7241 15.7169 -8.88817 1.1901e-06
562 1 1.5707 17.2963 17.2786 -8.90303 3.82865e-06
563 1 3.14308 15.7242 15.7166 -8.88809 1.28863e-06
564 1 4.71578 17.2963 17.2786 -8.90324 1.99747e-06
565 1 6.28771 15.7245 15.7161 -8.88769 6.52534e-09
566 1 7.86027 17.2967 17.2783 -8.90293 7.39863e-08
567 1 9.43262 15.7249 15.7153 -8.88787 3.40253e-06
568 1 11.0051 17.2968 17.2781 -8.90285 3.42979e-06
569 1 12.5779 15.7248 15.7156 -8.88788 8.74371e-06
570 1 14.1499 17.2966 17.2787 -8.90291 5.07129e-06
571 1 15.7228 15.7244 15.7167 -8.88771 6.30593e-06
572 1 17.2943 17.2961 17.2791 -8.90323 1.44713e-06
573 1 18.8673 15.7241 15.717 -8.88809 1.16871e-06
574 1 20.4394 17.2963 17.2788 -8.90303 1.54306e-06
575 1 22.0123 18.8689 15.7168 -8.88819 4.08283e-06
576 1 1.57084 20.4413 17.2783 -8.90298 7.7617e-06
577 1 3.14341 18.869 15.7166 -8.88818 4.79774e-06
578 1 4.71589 20.4413 17.2784 -8.90303 5.70652e-06
579 1 6.28824 18.8691 15.7166 -8.88809 2.16791e-06
580 1 7.86066 20.4414 17.2786 -8.90311 1.86254e-06
581 1 9.43308 18.8692 15.7166 -8.88817 9.92605e-07
582 1 11.0053 20.4414 17.2788 -8.9031 8.20845e-07
583 1 12.5779 18.8692 15.7168 -8.88817 1.49717e-06
584 1 14.15 20.4413 17.279 -8.9031 5.26541e-07