ITEM: TIMESTEP
115
ITEM: NUMBER OF ATOMS
736
ITEM: BOX BOUNDS pp pp pp
0.0000000000000000e+00 2.2013900999999997e+01
0.0000000000000000e+00 2.2013900999999997e+01
0.0000000000000000e+00 5.3462330999999999e+01
ITEM: ATOMS id type x y z c_pot c_ke
1 1 0.000118583 1.94997e-16 0.0964847 -7.40175 1.22119e-05
2 1 1.57257 1.57245 1.62323 -8.6838 1.08618e-05
3 1 3.14502 2.91917e-16 0.0965011 -7.40176 1.09987e-05
4 1 4.71745 1.57245 1.62328 -8.6838 9.78219e-06
5 1 6.28988 1.32055e-15 0.0965528 -7.40178 1.09251e-05
6 1 7.8623 1.57245 1.62336 -8.6838 1.04134e-05
7 1 9.4347 6.47293e-16 0.0966007 -7.4018 1.20341e-05
8 1 11.0071 1.57246 1.62341 -8.68381 1.23251e-05
9 1 12.5795 5.22998e-16 0.0966088 -7.4018 1.34643e-05
10 1 14.1519 1.57246 1.62339 -8.68381 1.41157e-05
11 1 15.7243 4.54111e-16 0.0965711 -7.40178 1.41611e-05
12 1 17.2967 1.57245 1.62331 -8.6838 1.43703e-05
13 1 18.8691 7.30273e-16 0.0965159 -7.40176 1.36165e-05
14 1 20.4416 1.57245 1.62324 -8.6838 1.2895e-05
15 1 0.000117358 3.1449 0.0965111 -7.40176 1.24135e-05
16 1 1.57257 4.71732 1.62329 -8.6838 1.11637e-05
17 1 3.14502 3.1449 0.0965285 -7.40177 1.10921e-05
18 1 4.71746 4.71733 1.62335 -8.6838 9.74601e-06
19 1 6.28989 3.14491 0.0965857 -7.40179 1.09334e-05
20 1 7.86231 4.71734 1.62345 -8.68381 1.00942e-05
21 1 9.4347 3.14491 0.0966396 -7.40181 1.20393e-05
22 1 11.0071 4.71735 1.62351 -8.68381 1.19825e-05
23 1 12.5795 3.14492 0.0966497 -7.40181 1.35532e-05
24 1 14.1519 4.71735 1.62349 -8.68381 1.40949e-05
25 1 15.7243 3.14491 0.0966083 -7.4018 1.43589e-05
26 1 17.2967 4.71734 1.6234 -8.68381 1.47595e-05
27 1 18.8691 3.14491 0.0965466 -7.40177 1.38656e-05
28 1 20.4416 4.71733 1.62331 -8.6838 1.34066e-05
29 1 0.000114616 6.28976 0.0965704 -7.40178 1.28819e-05
30 1 1.57256 7.86216 1.62337 -8.6838 1.15848e-05
31 1 3.14503 6.28976 0.0965902 -7.40179 1.13171e-05
32 1 4.71746 7.86216 1.62345 -8.68381 9.70486e-06
33 1 6.2899 6.28977 0.0966601 -7.40182 1.09326e-05
34 1 7.86231 7.86217 1.62357 -8.68382 9.54321e-06
35 1 9.43471 6.28978 0.0967278 -7.40185 1.19689e-05
36 1 11.0071 7.86217 1.62365 -8.68382 1.12561e-05
37 1 12.5795 6.28978 0.0967422 -7.40185 1.36577e-05
38 1 14.1519 7.86217 1.62363 -8.68382 1.38524e-05
39 1 15.7243 6.28977 0.096692 -7.40183 1.47692e-05
40 1 17.2967 7.86217 1.62352 -8.68382 1.5242e-05
41 1 18.8691 6.28976 0.0966155 -7.4018 1.4442e-05
42 1 20.4416 7.86216 1.6234 -8.68381 1.4101e-05
43 1 0.000112427 9.43456 0.0966178 -7.4018 1.32702e-05
44 1 1.57256 11.007 1.62341 -8.68381 1.17867e-05
45 1 3.14503 9.43456 0.0966397 -7.40181 1.15094e-05
46 1 4.71747 11.007 1.62349 -8.68381 9.68828e-06
47 1 6.28991 9.43456 0.0967201 -7.40185 1.0921e-05
48 1 7.86232 11.007 1.62362 -8.68382 9.25676e-06
49 1 9.43471 9.43457 0.0967992 -7.40188 1.18376e-05
50 1 11.0071 11.007 1.62371 -8.68383 1.08314e-05
51 1 12.5795 9.43457 0.096817 -7.40188 1.36534e-05
52 1 14.1519 11.007 1.62369 -8.68383 1.3682e-05
53 1 15.7243 9.43457 0.0967594 -7.40186 1.50764e-05
54 1 17.2967 11.007 1.62357 -8.68382 1.54581e-05
55 1 18.8691 9.43456 0.0966707 -7.40182 1.49177e-05
56 1 20.4416 11.007 1.62344 -8.68381 1.44286e-05
57 1 0.000112427 12.5793 0.0966178 -7.4018 1.32702e-05
58 1 1.57256 14.1517 1.62337 -8.6838 1.15848e-05
59 1 3.14503 12.5793 0.0966397 -7.40181 1.15094e-05
60 1 4.71746 14.1517 1.62345 -8.68381 9.70486e-06
61 1 6.28991 12.5793 0.0967201 -7.40185 1.0921e-05
62 1 7.86231 14.1517 1.62357 -8.68382 9.54321e-06
63 1 9.43471 12.5793 0.0967992 -7.40188 1.18376e-05
64 1 11.0071 14.1517 1.62365 -8.68382 1.12561e-05
65 1 12.5795 12.5793 0.096817 -7.40188 1.36534e-05
66 1 14.1519 14.1517 1.62363 -8.68382 1.38524e-05
67 1 15.7243 12.5793 0.0967594 -7.40186 1.50764e-05
68 1 17.2967 14.1517 1.62352 -8.68382 1.5242e-05
69 1 18.8691 12.5793 0.0966707 -7.40182 1.49177e-05
70 1 20.4416 14.1517 1.6234 -8.68381 1.4101e-05
71 1 0.000114616 15.7241 0.0965704 -7.40178 1.28819e-05
72 1 1.57257 17.2966 1.62329 -8.6838 1.11637e-05
73 1 3.14503 15.7241 0.0965902 -7.40179 1.13171e-05
74 1 4.71746 17.2966 1.62335 -8.6838 9.74601e-06
75 1 6.2899 15.7241 0.0966601 -7.40182 1.09326e-05
76 1 7.86231 17.2966 1.62345 -8.68381 1.00942e-05
77 1 9.43471 15.7241 0.0967278 -7.40185 1.19689e-05
78 1 11.0071 17.2966 1.62351 -8.68381 1.19825e-05
79 1 12.5795 15.7241 0.0967422 -7.40185 1.36577e-05
80 1 14.1519 17.2966 1.62349 -8.68381 1.40949e-05
81 1 15.7243 15.7241 0.096692 -7.40183 1.47692e-05
82 1 17.2967 17.2966 1.6234 -8.68381 1.47595e-05
83 1 18.8691 15.7241 0.0966155 -7.4018 1.4442e-05
84 1 20.4416 17.2966 1.62331 -8.6838 1.34066e-05
85 1 0.000117358 18.869 0.0965111 -7.40176 1.24135e-05
86 1 1.57257 20.4415 1.62323 -8.6838 1.08618e-05
87 1 3.14502 18.869 0.0965285 -7.40177 1.10921e-05
88 1 4.71745 20.4415 1.62328 -8.6838 9.78219e-06
89 1 6.28989 18.869 0.0965857 -7.40179 1.09334e-05
90 1 7.8623 20.4414 1.62336 -8.6838 1.04134e-05
91 1 9.4347 18.869 0.0966396 -7.40181 1.20393e-05
92 1 11.0071 20.4414 1.62341 -8.68381 1.23251e-05
93 1 12.5795 18.869 0.0966497 -7.40181 1.35532e-05
94 1 14.1519 20.4414 1.62339 -8.68381 1.41157e-05
95 1 15.7243 18.869 0.0966083 -7.4018 1.43589e-05
96 1 17.2967 20.4414 1.62331 -8.6838 1.43703e-05
97 1 18.8691 18.869 0.0965466 -7.40177 1.38656e-05
98 1 20.4416 20.4415 1.62324 -8.6838 1.2895e-05
99 1 0.000115149 -1.43035e-16 3.15334 -8.93809 1.17985e-05
100 1 1.57256 1.57245 4.74264 -8.90302 1.07305e-05
101 1 3.14501 3.9654e-16 3.15335 -8.93809 9.93566e-06
102 1 4.71747 1.57245 4.74269 -8.90303 9.08174e-06
103 1 6.28989 7.18017e-16 3.15343 -8.93808 9.50488e-06
104 1 7.86234 1.57246 4.7428 -8.90303 9.22488e-06
105 1 9.43472 4.12239e-16 3.15351 -8.93807 1.08164e-05
106 1 11.0071 1.57247 4.74288 -8.90302 1.11092e-05
107 1 12.5795 2.72896e-16 3.15353 -8.93806 1.29693e-05
108 1 14.1519 1.57247 4.74288 -8.90302 1.3396e-05
109 1 15.7243 3.23935e-16 3.15348 -8.93807 1.43091e-05
110 1 17.2967 1.57247 4.74279 -8.90302 1.42569e-05
111 1 18.8691 2.60455e-16 3.1534 -8.93808 1.37602e-05
112 1 20.4416 1.57246 4.74268 -8.90302 1.30285e-05
113 1 0.000111771 3.14489 3.15338 -8.93808 1.19328e-05
114 1 1.57255 4.71734 4.74273 -8.90302 1.07303e-05
115 1 3.14501 3.14489 3.15339 -8.93808 9.8909e-06
116 1 4.71747 4.71734 4.74279 -8.90302 8.47123e-06
117 1 6.28989 3.1449 3.15348 -8.93807 9.17843e-06
118 1 7.86234 4.71735 4.74293 -8.90302 7.6835e-06
119 1 9.43472 3.14491 3.15357 -8.93806 1.02634e-05
120 1 11.0071 4.71737 4.74303 -8.90302 8.85941e-06
121 1 12.5795 3.14491 3.1536 -8.93805 1.24356e-05
122 1 14.1519 4.71737 4.74303 -8.90302 1.1424e-05
123 1 15.7243 3.14491 3.15355 -8.93806 1.40714e-05
124 1 17.2967 4.71736 4.74291 -8.90302 1.34017e-05
125 1 18.8691 3.1449 3.15345 -8.93807 1.38325e-05
126 1 20.4415 4.71735 4.74278 -8.90302 1.30206e-05
127 1 0.000104192 6.28975 3.15347 -8.93807 1.22915e-05
128 1 1.57254 7.86217 4.74284 -8.90302 1.08106e-05
129 1 3.14501 6.28975 3.15349 -8.93807 9.82594e-06
130 1 4.71747 7.86217 4.74292 -8.90302 7.71529e-06
131 1 6.2899 6.28975 3.1536 -8.93806 8.36213e-06
132 1 7.86234 7.86218 4.74309 -8.90302 5.55231e-06
133 1 9.43473 6.28976 3.15372 -8.93804 8.74108e-06
134 1 11.0071 7.86219 4.74322 -8.90302 5.58057e-06
135 1 12.5795 6.28977 3.15376 -8.93803 1.08833e-05
136 1 14.1519 7.86219 4.74322 -8.90302 8.48138e-06
137 1 15.7243 6.28977 3.15369 -8.93804 1.33667e-05
138 1 17.2967 7.86219 4.74307 -8.90302 1.2208e-05
139 1 18.8691 6.28976 3.15356 -8.93806 1.40228e-05
140 1 20.4415 7.86217 4.7429 -8.90302 1.3085e-05
141 1 9.81148e-05 9.43456 3.15355 -8.93806 1.26302e-05
142 1 1.57254 11.007 4.74289 -8.90302 1.087e-05
143 1 3.14501 9.43456 3.15357 -8.93806 9.80231e-06
144 1 4.71747 11.007 4.74298 -8.90302 7.37466e-06
145 1 6.2899 9.43456 3.15369 -8.93805 7.6501e-06
146 1 7.86234 11.007 4.74316 -8.90302 4.56074e-06
147 1 9.43473 9.43456 3.15384 -8.93802 7.28056e-06
148 1 11.0071 11.007 4.74331 -8.90302 4.0154e-06
149 1 12.5795 9.43457 3.15388 -8.93801 9.32262e-06
150 1 14.1519 11.007 4.7433 -8.90301 7.03706e-06
151 1 15.7243 9.43457 3.1538 -8.93802 1.26653e-05
152 1 17.2967 11.007 4.74314 -8.90302 1.16298e-05
153 1 18.8691 9.43456 3.15365 -8.93804 1.42001e-05
154 1 20.4415 11.007 4.74296 -8.90302 1.31363e-05
155 1 9.81148e-05 12.5793 3.15355 -8.93806 1.26302e-05
156 1 1.57254 14.1517 4.74284 -8.90302 1.08106e-05
157 1 3.14501 12.5793 3.15357 -8.93806 9.80231e-06
158 1 4.71747 14.1517 4.74292 -8.90302 7.71529e-06
159 1 6.2899 12.5793 3.15369 -8.93805 7.6501e-06
160 1 7.86234 14.1517 4.74309 -8.90302 5.55231e-06
161 1 9.43473 12.5793 3.15384 -8.93802 7.28056e-06
162 1 11.0071 14.1517 4.74322 -8.90302 5.58057e-06
163 1 12.5795 12.5793 3.15388 -8.93801 9.32262e-06
164 1 14.1519 14.1517 4.74322 -8.90302 8.48138e-06
165 1 15.7243 12.5793 3.1538 -8.93802 1.26653e-05
166 1 17.2967 14.1517 4.74307 -8.90302 1.2208e-05
167 1 18.8691 12.5793 3.15365 -8.93804 1.42001e-05
168 1 20.4415 14.1517 4.7429 -8.90302 1.3085e-05
169 1 0.000104192 15.7242 3.15347 -8.93807 1.22915e-05
170 1 1.57255 17.2966 4.74273 -8.90302 1.07303e-05
171 1 3.14501 15.7242 3.15349 -8.93807 9.82594e-06
172 1 4.71747 17.2966 4.74279 -8.90302 8.47123e-06
173 1 6.2899 15.7241 3.1536 -8.93806 8.36213e-06
174 1 7.86234 17.2965 4.74293 -8.90302 7.6835e-06
175 1 9.43473 15.7241 3.15372 -8.93804 8.74108e-06
176 1 11.0071 17.2965 4.74303 -8.90302 8.85941e-06
177 1 12.5795 15.7241 3.15376 -8.93803 1.08833e-05
178 1 14.1519 17.2965 4.74303 -8.90302 1.1424e-05
179 1 15.7243 15.7241 3.15369 -8.93804 1.33667e-05
180 1 17.2967 17.2965 4.74291 -8.90302 1.34017e-05
181 1 18.8691 15.7241 3.15356 -8.93806 1.40228e-05
182 1 20.4415 17.2966 4.74278 -8.90302 1.30206e-05
183 1 0.000111771 18.869 3.15338 -8.93808 1.19328e-05
184 1 1.57256 20.4414 4.74264 -8.90302 1.07305e-05
185 1 3.14501 18.869 3.15339 -8.93808 9.8909e-06
186 1 4.71747 20.4414 4.74269 -8.90303 9.08174e-06
187 1 6.28989 18.869 3.15348 -8.93807 9.17843e-06
188 1 7.86234 20.4414 4.7428 -8.90303 9.22488e-06
189 1 9.43472 18.869 3.15357 -8.93806 1.02634e-05
190 1 11.0071 20.4414 4.74288 -8.90302 1.11092e-05
191 1 12.5795 18.869 3.1536 -8.93805 1.24356e-05
192 1 14.1519 20.4414 4.74288 -8.90302 1.3396e-05
193 1 15.7243 18.869 3.15355 -8.93806 1.40714e-05
194 1 17.2967 20.4414 4.74279 -8.90302 1.42569e-05
195 1 18.8691 18.869 3.15345 -8.93807 1.38325e-05
196 1 20.4416 20.4414 4.74268 -8.90302 1.30285e-05
197 1 8.2338e-05 -5.44458e-16 6.30437 -8.88813 1.2566e-05
198 1 1.57252 1.57248 7.87355 -8.90469 1.27798e-05
199 1 3.14502 1.12544e-16 6.30437 -8.88813 1.01226e-05
200 1 4.71749 1.57248 7.87361 -8.90469 1.05535e-05
201 1 6.28994 2.62372e-17 6.30447 -8.88813 8.95892e-06
202 1 7.8624 1.57249 7.87378 -8.90468 9.74625e-06
203 1 9.43478 -4.69196e-16 6.3046 -8.88812 9.92438e-06
204 1 11.0072 1.57251 7.87394 -8.90468 1.10279e-05
205 1 12.5796 -5.12978e-16 6.30466 -8.88812 1.24523e-05
206 1 14.1519 1.57252 7.87396 -8.90467 1.37299e-05
207 1 15.7243 6.39529e-16 6.30461 -8.88812 1.45663e-05
208 1 17.2966 1.57251 7.87383 -8.90468 1.55507e-05
209 1 18.8691 4.90754e-16 6.30448 -8.88812 1.45602e-05
210 1 20.4415 1.57249 7.87365 -8.90469 1.50184e-05
211 1 6.97836e-05 3.14493 6.30443 -8.88813 1.25005e-05
212 1 1.57249 4.71739 7.87368 -8.90468 1.31376e-05
213 1 3.14502 3.14492 6.30443 -8.88813 9.96668e-06
214 1 4.71748 4.71739 7.87376 -8.90468 1.07619e-05
215 1 6.28994 3.14493 6.30455 -8.88812 8.23699e-06
216 1 7.86239 4.71742 7.87399 -8.90467 8.37801e-06
217 1 9.43478 3.14496 6.3047 -8.88812 8.34644e-06
218 1 11.0072 4.71746 7.8742 -8.90466 6.83985e-06
219 1 12.5795 3.14497 6.30478 -8.88811 1.03779e-05
220 1 14.1519 4.71748 7.87423 -8.90465 8.24252e-06
221 1 15.7243 3.14497 6.30471 -8.88812 1.29696e-05
222 1 17.2966 4.71747 7.87405 -8.90466 1.19755e-05
223 1 18.8691 3.14495 6.30456 -8.88812 1.39339e-05
224 1 20.4414 4.71742 7.87381 -8.90468 1.4162e-05
225 1 4.1595e-05 6.28979 6.30457 -8.88812 1.24495e-05
226 1 1.57245 7.86221 7.87385 -8.90468 1.37105e-05
227 1 3.14501 6.28978 6.30457 -8.88812 9.7336e-06
228 1 4.71746 7.86221 7.87396 -8.90467 1.15207e-05
229 1 6.28994 6.2898 6.30472 -8.88812 6.69302e-06
230 1 7.86236 7.86223 7.87424 -8.90467 8.72272e-06
231 1 9.43477 6.28983 6.30493 -8.88811 4.72269e-06
232 1 11.0071 7.86226 7.87451 -8.90465 4.6563e-06
233 1 12.5795 6.28985 6.30503 -8.8881 5.25322e-06
234 1 14.1518 7.86228 7.87455 -8.90464 2.09369e-06
235 1 15.7242 6.28984 6.30495 -8.8881 8.92105e-06
236 1 17.2965 7.86227 7.87433 -8.90465 6.98748e-06
237 1 18.869 6.28982 6.30474 -8.88811 1.24858e-05
238 1 20.4414 7.86224 7.87401 -8.90467 1.29755e-05
239 1 1.89248e-05 9.43458 6.30469 -8.88812 1.24816e-05
240 1 1.57244 11.007 7.87392 -8.90468 1.39736e-05
241 1 3.145 9.43457 6.30468 -8.88812 9.61855e-06
242 1 4.71745 11.007 7.87404 -8.90467 1.19811e-05
243 1 6.28993 9.43458 6.30487 -8.88812 5.6169e-06
244 1 7.86235 11.007 7.87436 -8.90467 1.01661e-05
245 1 9.43476 9.43459 6.30511 -8.88811 2.32786e-06
246 1 11.0071 11.007 7.87465 -8.90466 5.91198e-06
247 1 12.5795 9.4346 6.30524 -8.8881 1.34186e-06
248 1 14.1518 11.007 7.8747 -8.90463 1.52164e-07
249 1 15.7242 9.4346 6.30514 -8.8881 5.36188e-06
250 1 17.2965 11.007 7.87445 -8.90464 4.52339e-06
251 1 18.869 9.43459 6.30489 -8.88811 1.12387e-05
252 1 20.4413 11.007 7.8741 -8.90467 1.23762e-05
253 1 1.89248e-05 12.5793 6.30469 -8.88812 1.24816e-05
254 1 1.57245 14.1517 7.87385 -8.90468 1.37105e-05
255 1 3.145 12.5793 6.30468 -8.88812 9.61855e-06
256 1 4.71746 14.1517 7.87396 -8.90467 1.15207e-05
257 1 6.28993 12.5793 6.30487 -8.88812 5.6169e-06
258 1 7.86236 14.1517 7.87424 -8.90467 8.72272e-06
259 1 9.43476 12.5793 6.30511 -8.88811 2.32786e-06
260 1 11.0071 14.1516 7.87451 -8.90465 4.6563e-06
261 1 12.5795 12.5793 6.30524 -8.8881 1.34186e-06
262 1 14.1518 14.1516 7.87455 -8.90464 2.09369e-06
263 1 15.7242 12.5793 6.30514 -8.8881 5.36188e-06
264 1 17.2965 14.1516 7.87433 -8.90465 6.98748e-06
265 1 18.869 12.5793 6.30489 -8.88811 1.12387e-05
266 1 20.4414 14.1517 7.87401 -8.90467 1.29755e-05
267 1 4.1595e-05 15.7241 6.30457 -8.88812 1.24495e-05
268 1 1.57249 17.2965 7.87368 -8.90468 1.31376e-05
269 1 3.14501 15.7241 6.30457 -8.88812 9.7336e-06
270 1 4.71748 17.2965 7.87376 -8.90468 1.07619e-05
271 1 6.28994 15.7241 6.30472 -8.88812 6.69302e-06
272 1 7.86239 17.2965 7.87399 -8.90467 8.37801e-06
273 1 9.43477 15.7241 6.30493 -8.88811 4.72269e-06
274 1 11.0072 17.2964 7.8742 -8.90466 6.83985e-06
275 1 12.5795 15.7241 6.30503 -8.8881 5.25322e-06
276 1 14.1519 17.2964 7.87423 -8.90465 8.24252e-06
277 1 15.7242 15.7241 6.30495 -8.8881 8.92105e-06
278 1 17.2966 17.2964 7.87405 -8.90466 1.19755e-05
279 1 18.869 15.7241 6.30474 -8.88811 1.24858e-05
280 1 20.4414 17.2965 7.87381 -8.90468 1.4162e-05
281 1 6.97836e-05 18.869 6.30443 -8.88813 1.25005e-05
282 1 1.57252 20.4414 7.87355 -8.90469 1.27798e-05
283 1 3.14502 18.869 6.30443 -8.88813 9.96668e-06
284 1 4.71749 20.4414 7.87361 -8.90469 1.05535e-05
285 1 6.28994 18.869 6.30455 -8.88812 8.23699e-06
286 1 7.8624 20.4414 7.87378 -8.90468 9.74625e-06
287 1 9.43478 18.8689 6.3047 -8.88812 8.34644e-06
288 1 11.0072 20.4414 7.87394 -8.90468 1.10279e-05
289 1 12.5795 18.8689 6.30478 -8.88811 1.03779e-05
290 1 14.1519 20.4414 7.87396 -8.90467 1.37299e-05
291 1 15.7243 18.8689 6.30471 -8.88812 1.29696e-05
292 1 17.2966 20.4414 7.87383 -8.90468 1.55507e-05
293 1 18.8691 18.869 6.30456 -8.88812 1.39339e-05
294 1 20.4415 20.4414 7.87365 -8.90469 1.50184e-05
295 1 -2.93926e-05 -6.32049e-16 9.44181 -8.89867 1.72066e-05
296 1 1.57237 1.5725 11.0098 -8.90011 2.25273e-05
297 1 3.14498 1.20389e-16 9.44177 -8.89867 1.49712e-05
298 1 4.71743 1.57249 11.0099 -8.9001 2.21053e-05
299 1 6.28997 3.40364e-16 9.44191 -8.89867 1.34044e-05
300 1 7.86241 1.57252 11.0102 -8.9001 2.12845e-05
301 1 9.43484 -6.3527e-16 9.44214 -8.89867 1.3394e-05
302 1 11.0072 1.57257 11.0104 -8.9001 2.02824e-05
303 1 12.5796 -2.31888e-16 9.44228 -8.89866 1.55571e-05
304 1 14.1518 1.5726 11.0105 -8.90009 2.15408e-05
305 1 15.7242 5.73699e-16 9.44222 -8.89866 1.82268e-05
306 1 17.2964 1.57259 11.0103 -8.9001 2.33603e-05
307 1 18.869 7.78858e-16 9.44201 -8.89867 1.87926e-05
308 1 20.4413 1.57254 11.01 -8.90011 2.33988e-05
309 1 -6.8172e-05 3.14499 9.44191 -8.89867 1.7425e-05
310 1 1.57227 4.71745 11.01 -8.9001 2.686e-05
311 1 3.14496 3.14496 9.44186 -8.89866 1.62341e-05
312 1 4.71735 4.71742 11.0101 -8.90008 3.12993e-05
313 1 6.28995 3.14498 9.44204 -8.89866 1.46371e-05
314 1 7.86231 4.71747 11.0105 -8.90008 3.21997e-05
315 1 9.43481 3.14503 9.44232 -8.89866 1.2616e-05
316 1 11.0071 4.71757 11.0109 -8.90006 2.47134e-05
317 1 12.5795 3.14508 9.44249 -8.89865 1.20232e-05
318 1 14.1517 4.71765 11.011 -8.90005 1.48198e-05
319 1 15.7242 3.14508 9.44241 -8.89866 1.43708e-05
320 1 17.2963 4.71764 11.0107 -8.90007 1.49759e-05
321 1 18.8689 3.14504 9.44215 -8.89866 1.69651e-05
322 1 20.4411 4.71754 11.0103 -8.9001 2.16994e-05
323 1 -0.000155253 6.28987 9.44213 -8.89867 1.78185e-05
324 1 1.57215 7.86225 11.0103 -8.9001 3.22422e-05
325 1 3.1449 6.28983 9.44207 -8.89866 1.97097e-05
326 1 4.71724 7.86222 11.0104 -8.90008 4.76677e-05
327 1 6.2899 6.28984 9.44232 -8.89866 2.05582e-05
328 1 7.86216 7.86224 11.0109 -8.9001 7.36546e-05
329 1 9.43474 6.2899 9.4427 -8.89865 1.81865e-05
330 1 11.0069 7.86232 11.0114 -8.90006 8.00953e-05
331 1 12.5794 6.28996 9.44294 -8.89863 9.95227e-06
332 1 14.1515 7.86239 11.0116 -8.90002 3.12628e-05
333 1 15.724 6.28998 9.44284 -8.89863 6.05705e-06
334 1 17.2961 7.8624 11.0112 -8.90005 4.60252e-06
335 1 18.8688 6.28994 9.44247 -8.89866 1.22138e-05
336 1 20.4409 7.86233 11.0106 -8.90009 1.78016e-05
337 1 -0.000225612 9.43461 9.44231 -8.89866 1.78917e-05
338 1 1.57209 11.007 11.0104 -8.9001 3.43637e-05
339 1 3.14486 9.43459 9.44225 -8.89866 2.28176e-05
340 1 4.71718 11.007 11.0105 -8.90008 5.68253e-05
341 1 6.28985 9.4346 9.44254 -8.89865 2.98233e-05
342 1 7.86208 11.007 11.011 -8.9001 0.000110891
343 1 9.43468 9.43462 9.44298 -8.89869 3.66946e-05
344 1 11.0068 11.007 11.0116 -8.90022 0.00012897
345 1 12.5793 9.43465 9.44328 -8.89866 2.12928e-05
346 1 14.1514 11.007 11.0119 -8.90002 5.50013e-05
347 1 15.7239 9.43466 9.44318 -8.89862 1.52779e-06
348 1 17.296 11.007 11.0115 -8.90003 3.80444e-07
349 1 18.8687 9.43464 9.44273 -8.89865 7.43051e-06
350 1 20.4409 11.007 11.0108 -8.90009 1.51974e-05
351 1 -0.000225612 12.5793 9.44231 -8.89866 1.78917e-05
352 1 1.57215 14.1516 11.0103 -8.9001 3.22422e-05
353 1 3.14486 12.5793 9.44225 -8.89866 2.28176e-05
354 1 4.71724 14.1517 11.0104 -8.90008 4.76677e-05
355 1 6.28985 12.5793 9.44254 -8.89865 2.98233e-05
356 1 7.86216 14.1517 11.0109 -8.9001 7.36546e-05
357 1 9.43468 12.5793 9.44298 -8.89869 3.66946e-05
358 1 11.0069 14.1516 11.0114 -8.90006 8.00953e-05
359 1 12.5793 12.5793 9.44328 -8.89866 2.12928e-05
360 1 14.1515 14.1515 11.0116 -8.90002 3.12628e-05
361 1 15.7239 12.5792 9.44318 -8.89862 1.52779e-06
362 1 17.2961 14.1515 11.0112 -8.90005 4.60252e-06
363 1 18.8687 12.5793 9.44273 -8.89865 7.43051e-06
364 1 20.4409 14.1516 11.0106 -8.90009 1.78016e-05
365 1 -0.000155253 15.724 9.44213 -8.89867 1.78185e-05
366 1 1.57227 17.2965 11.01 -8.9001 2.686e-05
367 1 3.1449 15.7241 9.44207 -8.89866 1.97097e-05
368 1 4.71735 17.2965 11.0101 -8.90008 3.12993e-05
369 1 6.2899 15.7241 9.44232 -8.89866 2.05582e-05
370 1 7.86231 17.2964 11.0105 -8.90008 3.21997e-05
371 1 9.43474 15.724 9.4427 -8.89865 1.81865e-05
372 1 11.0071 17.2963 11.0109 -8.90006 2.47134e-05
373 1 12.5794 15.7239 9.44294 -8.89863 9.95227e-06
374 1 14.1517 17.2962 11.011 -8.90005 1.48198e-05
375 1 15.724 15.7239 9.44284 -8.89863 6.05705e-06
376 1 17.2963 17.2963 11.0107 -8.90007 1.49759e-05
377 1 18.8688 15.724 9.44247 -8.89866 1.22138e-05
378 1 20.4411 17.2964 11.0103 -8.9001 2.16994e-05
379 1 -6.8172e-05 18.8689 9.44191 -8.89867 1.7425e-05
380 1 1.57237 20.4414 11.0098 -8.90011 2.25273e-05
381 1 3.14496 18.8689 9.44186 -8.89866 1.62341e-05
382 1 4.71743 20.4414 11.0099 -8.9001 2.21053e-05
383 1 6.28995 18.8689 9.44204 -8.89866 1.46371e-05
384 1 7.86241 20.4414 11.0102 -8.9001 2.12845e-05
385 1 9.43481 18.8689 9.44232 -8.89866 1.2616e-05
386 1 11.0072 20.4413 11.0104 -8.9001 2.02824e-05
387 1 12.5795 18.8688 9.44249 -8.89865 1.20232e-05
388 1 14.1518 20.4413 11.0105 -8.90009 2.15408e-05
389 1 15.7242 18.8688 9.44241 -8.89866 1.43708e-05
390 1 17.2964 20.4413 11.0103 -8.9001 2.33603e-05
391 1 18.8689 18.8689 9.44215 -8.89866 1.69651e-05
392 1 20.4413 20.4414 11.01 -8.90011 2.33988e-05
393 1 -0.000280914 6.18463e-17 12.5779 -8.89868 3.08894e-05
394 1 3.14481 1.87355e-16 12.5778 -8.89867 3.10083e-05
395 1 6.28989 -6.81692e-18 12.578 -8.89868 3.34846e-05
396 1 9.4348 3.62485e-16 12.5783 -8.89868 3.44872e-05
397 1 12.5795 -1.7105e-16 12.5786 -8.89868 3.47814e-05
398 1 15.724 6.89444e-16 12.5785 -8.89868 3.54318e-05
399 1 18.8687 8.90857e-18 12.5782 -8.89869 3.35388e-05
400 1 22.0135 3.14506 12.578 -8.89868 3.3189e-05
401 1 3.14473 3.14497 12.5779 -8.89867 3.79953e-05
402 1 6.2898 3.14497 12.5782 -8.89866 4.2642e-05
403 1 9.4347 3.14507 12.5787 -8.89867 3.93587e-05
404 1 12.5793 3.14521 12.579 -8.89866 3.04177e-05
405 1 15.7239 3.14526 12.5789 -8.89866 2.72238e-05
406 1 18.8686 3.14519 12.5785 -8.89869 2.97588e-05
407 1 22.0133 6.28995 12.5784 -8.89868 3.7058e-05
408 1 3.14453 6.28983 12.5782 -8.89865 5.6304e-05
409 1 6.28955 6.28979 12.5786 -8.89858 8.40057e-05
410 1 9.43442 6.28989 12.5792 -8.89862 0.000111296
411 1 12.5791 6.29007 12.5798 -8.89859 8.54786e-05
412 1 15.7236 6.29018 12.5797 -8.89856 2.39348e-05
413 1 18.8682 6.29011 12.579 -8.89867 1.77522e-05
414 1 22.0131 9.43465 12.5787 -8.89868 3.7956e-05
415 1 3.14436 9.43459 12.5785 -8.89866 7.20755e-05
416 1 6.28932 9.43456 12.5789 -8.89862 0.000152382
417 1 9.43412 9.43455 12.5795 -8.89875 0.000306025
418 1 12.5788 9.43464 12.5802 -8.89868 0.000270007
419 1 15.7233 9.43474 12.5803 -8.89858 5.66995e-05
420 1 18.868 9.43472 12.5795 -8.89866 4.54279e-06
421 1 22.0131 12.5793 12.5787 -8.89868 3.7956e-05
422 1 3.14436 12.5793 12.5785 -8.89866 7.20755e-05
423 1 6.28932 12.5793 12.5789 -8.89862 0.000152382
424 1 9.43412 12.5793 12.5795 -8.89875 0.000306025
425 1 12.5788 12.5793 12.5802 -8.89868 0.000270007
426 1 15.7233 12.5792 12.5803 -8.89858 5.66995e-05
427 1 18.868 12.5792 12.5795 -8.89866 4.54279e-06
428 1 22.0133 15.724 12.5784 -8.89868 3.7058e-05
429 1 3.14453 15.7241 12.5782 -8.89865 5.6304e-05
430 1 6.28955 15.7241 12.5786 -8.89858 8.40057e-05
431 1 9.43442 15.724 12.5792 -8.89862 0.000111296
432 1 12.5791 15.7238 12.5798 -8.89859 8.54786e-05
433 1 15.7236 15.7237 12.5797 -8.89856 2.39348e-05
434 1 18.8682 15.7238 12.579 -8.89867 1.77522e-05
435 1 22.0135 18.8688 12.578 -8.89868 3.3189e-05
436 1 3.14473 18.8689 12.5779 -8.89867 3.79953e-05
437 1 6.2898 18.8689 12.5782 -8.89866 4.2642e-05
438 1 9.4347 18.8688 12.5787 -8.89867 3.93587e-05
439 1 12.5793 18.8687 12.579 -8.89866 3.04177e-05
440 1 15.7239 18.8686 12.5789 -8.89866 2.72238e-05
441 1 18.8686 18.8687 12.5785 -8.89869 2.97588e-05
442 1 1.57205 1.57252 14.146 -8.90468 4.27344e-05
443 1 4.7172 1.57248 14.146 -8.90467 5.0452e-05
444 1 7.86225 1.57251 14.1465 -8.9047 5.85056e-05
445 1 11.007 1.57262 14.1469 -8.90468 5.79495e-05
446 1 14.1516 1.57272 14.1471 -8.90468 5.45531e-05
447 1 17.2961 1.57271 14.1468 -8.90468 5.01042e-05
448 1 20.4409 1.57261 14.1463 -8.90469 4.44721e-05
449 1 1.57179 4.71746 14.1463 -8.90467 5.82606e-05
450 1 4.71692 4.71734 14.1464 -8.90466 7.6564e-05
451 1 7.86191 4.71737 14.147 -8.90469 9.06211e-05
452 1 11.0067 4.71763 14.1478 -8.90467 8.94701e-05
453 1 14.1512 4.71788 14.1481 -8.90466 5.02264e-05
454 1 17.2957 4.71792 14.1476 -8.90469 2.99741e-05
455 1 20.4405 4.71769 14.1467 -8.90469 4.25341e-05
456 1 1.57144 7.86226 14.1466 -8.90468 7.54091e-05
457 1 4.7165 7.86212 14.1468 -8.90468 0.000125854
458 1 7.86124 7.86198 14.1474 -8.90452 0.000264052
459 1 11.0061 7.86218 14.1483 -8.90463 0.000464012
460 1 14.1507 7.86245 14.149 -8.90432 0.000265044
461 1 17.2952 7.8626 14.1485 -8.90466 2.03952e-05
462 1 20.4401 7.86245 14.1473 -8.90469 3.28595e-05
463 1 1.57129 11.007 14.1468 -8.90468 8.11503e-05
464 1 4.71632 11.007 14.147 -8.90468 0.000160204
465 1 7.86097 11.007 14.1475 -8.90471 0.000472079
466 1 11.0058 11.007 14.1481 -8.90662 0.000927584
467 1 14.1505 11.007 14.1493 -8.90454 0.000487692
468 1 17.2949 11.007 14.1489 -8.90465 3.07617e-05
469 1 20.4399 11.007 14.1475 -8.90468 2.48713e-05
470 1 1.57144 14.1516 14.1466 -8.90468 7.54091e-05
471 1 4.7165 14.1518 14.1468 -8.90468 0.000125854
472 1 7.86124 14.1519 14.1474 -8.90452 0.000264052
473 1 11.0061 14.1517 14.1483 -8.90463 0.000464012
474 1 14.1507 14.1515 14.149 -8.90432 0.000265044
475 1 17.2952 14.1513 14.1485 -8.90466 2.03952e-05
476 1 20.4401 14.1515 14.1473 -8.90469 3.28595e-05
477 1 1.57179 17.2964 14.1463 -8.90467 5.82606e-05
478 1 4.71692 17.2966 14.1464 -8.90466 7.6564e-05
479 1 7.86191 17.2965 14.147 -8.90469 9.06211e-05
480 1 11.0067 17.2963 14.1478 -8.90467 8.94701e-05
481 1 14.1512 17.296 14.1481 -8.90466 5.02264e-05
482 1 17.2957 17.296 14.1476 -8.90469 2.99741e-05
483 1 20.4405 17.2962 14.1467 -8.90469 4.25341e-05
484 1 1.57205 20.4414 14.146 -8.90468 4.27344e-05
485 1 4.7172 20.4414 14.146 -8.90467 5.0452e-05
486 1 7.86225 20.4414 14.1465 -8.9047 5.85056e-05
487 1 11.007 20.4413 14.1469 -8.90468 5.79495e-05
488 1 14.1516 20.4412 14.1471 -8.90468 5.45531e-05
489 1 17.2961 20.4412 14.1468 -8.90468 5.01042e-05
490 1 20.4409 20.4413 14.1463 -8.90469 4.44721e-05
491 1 22.0133 2.90793e-16 15.7151 -8.88816 4.97912e-05
492 1 1.57163 1.57249 17.2766 -8.90299 5.34153e-05
493 1 3.14449 3.51318e-16 15.715 -8.88815 5.12754e-05
494 1 4.71681 1.57245 17.2768 -8.90305 7.35495e-05
495 1 6.28962 -1.12453e-15 15.7153 -8.88816 7.33207e-05
496 1 7.86188 1.57249 17.2773 -8.90315 0.000116325
497 1 9.4346 -7.37822e-16 15.7158 -8.88818 9.42417e-05
498 1 11.0067 1.57271 17.278 -8.90308 0.000143521
499 1 12.5793 9.19872e-16 15.7162 -8.88816 0.000100328
500 1 14.1512 1.57294 17.2782 -8.90303 0.000141392
501 1 15.7237 7.45906e-16 15.7161 -8.88816 8.93644e-05
502 1 17.2956 1.57293 17.2777 -8.90301 0.000111141
503 1 18.8683 3.46455e-16 15.7156 -8.88819 6.77176e-05
504 1 20.4404 1.57268 17.277 -8.90298 7.32248e-05
505 1 22.013 3.1451 15.7153 -8.88818 5.82903e-05
506 1 1.57113 4.71742 17.277 -8.90302 8.4212e-05
507 1 3.1443 3.14492 15.7152 -8.88815 6.65413e-05
508 1 4.71632 4.71728 17.2774 -8.90324 9.25139e-05
509 1 6.28939 3.14486 15.7156 -8.88809 8.14227e-05
510 1 7.86103 4.71712 17.2783 -8.90307 7.09242e-05
511 1 9.43433 3.14503 15.7163 -8.88817 8.14074e-05
512 1 11.0058 4.71772 17.2794 -8.90292 0.000105818
513 1 12.5789 3.14537 15.7169 -8.88816 7.13872e-05
514 1 14.1501 4.71839 17.28 -8.90292 8.14649e-05
515 1 15.7234 3.14555 15.7168 -8.88811 6.34805e-05
516 1 17.2945 4.71852 17.2791 -8.90326 5.9459e-05
517 1 18.868 3.14539 15.716 -8.8882 6.22901e-05
518 1 20.4397 4.71789 17.2777 -8.90304 7.73765e-05
519 1 22.0125 6.28999 15.7158 -8.88816 7.2528e-05
520 1 1.57037 7.86218 17.2775 -8.9031 0.000108942
521 1 3.14378 6.28972 15.7156 -8.88807 9.75375e-05
522 1 4.71512 7.86185 17.278 -8.90305 6.05267e-05
523 1 6.28861 6.28949 15.7162 -8.88767 0.000108272
524 1 7.85884 7.86103 17.2785 -8.90316 9.93469e-05
525 1 9.43345 6.28957 15.7172 -8.88788 0.00023581
526 1 11.0041 7.8618 17.2796 -8.90498 0.00144096
527 1 12.5782 6.2901 15.7182 -8.8879 0.000301188
528 1 14.1492 7.86242 17.2817 -8.9027 0.00105786
529 1 15.7225 6.29051 15.7183 -8.88786 8.17868e-05
530 1 17.2934 7.86302 17.2807 -8.90293 5.19084e-05
531 1 18.8673 6.29036 15.717 -8.88813 3.27043e-05
532 1 20.4388 7.8626 17.2785 -8.90306 6.37355e-05
533 1 22.012 9.43466 15.7163 -8.88817 7.59338e-05
534 1 1.57001 11.007 17.2778 -8.90309 0.000111143
535 1 3.1433 9.43453 15.716 -8.88814 0.000115279
536 1 4.7146 11.007 17.2781 -8.90297 7.63825e-05
537 1 6.28781 9.43437 15.7165 -8.88781 0.00025331
538 1 7.8582 11.007 17.2779 -8.90532 0.000841616
539 1 9.43215 9.434 15.7165 -8.88694 0.000828496
540 1 11.0031 11.007 17.2743 -8.91697 0.00506627
541 1 12.5777 9.43428 15.718 -8.88681 0.00137082
542 1 14.1483 11.007 17.2815 -8.90465 0.00248575
543 1 15.7219 9.43484 15.7192 -8.88794 0.000319689
544 1 17.2928 11.007 17.2813 -8.90284 0.000128714
545 1 18.8667 9.43483 15.7177 -8.88819 4.31693e-06
546 1 20.4384 11.007 17.2789 -8.90304 4.92917e-05
547 1 22.012 12.5792 15.7163 -8.88817 7.59338e-05
548 1 1.57037 14.1517 17.2775 -8.9031 0.000108942
549 1 3.1433 12.5794 15.716 -8.88814 0.000115279
550 1 4.71512 14.1521 17.278 -8.90305 6.05267e-05
551 1 6.28781 12.5795 15.7165 -8.88781 0.00025331
552 1 7.85884 14.1529 17.2785 -8.90316 9.93469e-05
553 1 9.43215 12.5799 15.7165 -8.88694 0.000828496
554 1 11.0041 14.1521 17.2796 -8.90498 0.00144096
555 1 12.5777 12.5796 15.718 -8.88681 0.00137082
556 1 14.1492 14.1515 17.2817 -8.9027 0.00105786
557 1 15.7219 12.5791 15.7192 -8.88794 0.000319689
558 1 17.2934 14.1509 17.2807 -8.90293 5.19084e-05
559 1 18.8667 12.5791 15.7177 -8.88819 4.31693e-06
560 1 20.4388 14.1513 17.2785 -8.90306 6.37355e-05
561 1 22.0125 15.7239 15.7158 -8.88816 7.2528e-05
562 1 1.57113 17.2965 17.277 -8.90302 8.4212e-05
563 1 3.14378 15.7242 15.7156 -8.88807 9.75375e-05
564 1 4.71632 17.2966 17.2774 -8.90324 9.25139e-05
565 1 6.28861 15.7244 15.7162 -8.88767 0.000108272
566 1 7.86103 17.2968 17.2783 -8.90307 7.09242e-05
567 1 9.43345 15.7243 15.7172 -8.88788 0.00023581
568 1 11.0058 17.2962 17.2794 -8.90292 0.000105818
569 1 12.5782 15.7238 15.7182 -8.8879 0.000301188
570 1 14.1501 17.2955 17.28 -8.90292 8.14649e-05
571 1 15.7225 15.7234 15.7183 -8.88786 8.17868e-05
572 1 17.2945 17.2954 17.2791 -8.90326 5.9459e-05
573 1 18.8673 15.7235 15.717 -8.88813 3.27043e-05
574 1 20.4397 17.296 17.2777 -8.90304 7.73765e-05
575 1 22.013 18.8688 15.7153 -8.88818 5.82903e-05
576 1 1.57163 20.4414 17.2766 -8.90299 5.34153e-05
577 1 3.1443 18.869 15.7152 -8.88815 6.65413e-05
578 1 4.71681 20.4415 17.2768 -8.90305 7.35495e-05
579 1 6.28939 18.869 15.7156 -8.88809 8.14227e-05
580 1 7.86188 20.4414 17.2773 -8.90315 0.000116325
581 1 9.43433 18.8689 15.7163 -8.88817 8.14074e-05
582 1 11.0067 20.4412 17.278 -8.90308 0.000143521
583 1 12.5789 18.8685 15.7169 -8.88816 7.13872e-05
584 1 14.1512 20.441 17.2782 -8.90303 0.000141392