ITEM: TIMESTEP
274
ITEM: NUMBER OF ATOMS
736
ITEM: BOX BOUNDS pp pp pp
0.0000000000000000e+00 2.2013900999999997e+01
0.0000000000000000e+00 2.2013900999999997e+01
0.0000000000000000e+00 5.3462330999999999e+01
ITEM: ATOMS id type x y z c_pot c_ke
1 1 -0.000934325 -3.43821e-16 0.0976348 -7.40188 2.12469e-07
2 1 1.57146 1.5724 1.62442 -8.68379 1.89788e-07
3 1 3.14386 -2.09235e-17 0.0976082 -7.40187 2.13328e-07
4 1 4.71627 1.57239 1.62435 -8.68379 1.90282e-07
5 1 6.28869 -9.29988e-17 0.0975489 -7.40185 2.14133e-07
6 1 7.86112 1.57239 1.62427 -8.68378 1.90578e-07
7 1 9.43357 1.42082e-16 0.0975014 -7.40183 2.14279e-07
8 1 11.006 1.57239 1.62423 -8.68378 1.90458e-07
9 1 12.5785 -3.3519e-16 0.0975016 -7.40183 2.13657e-07
10 1 14.1509 1.57239 1.62427 -8.68378 1.90009e-07
11 1 15.7233 -1.00523e-16 0.0975491 -7.40185 2.12734e-07
12 1 17.2957 1.57239 1.62435 -8.68379 1.89567e-07
13 1 18.8682 1.87527e-16 0.0976084 -7.40187 2.12204e-07
14 1 20.4406 1.5724 1.62442 -8.68379 1.89468e-07
15 1 -0.000934322 3.14479 0.0976083 -7.40187 2.12422e-07
16 1 1.57145 4.71721 1.62435 -8.68379 1.89713e-07
17 1 3.14385 3.14479 0.097579 -7.40186 2.13278e-07
18 1 4.71626 4.7172 1.62427 -8.68378 1.90202e-07
19 1 6.28868 3.14478 0.0975133 -7.40184 2.14078e-07
20 1 7.86112 4.71719 1.62417 -8.68377 1.90492e-07
21 1 9.43356 3.14477 0.0974608 -7.40182 2.1422e-07
22 1 11.006 4.71719 1.62412 -8.68377 1.90371e-07
23 1 12.5785 3.14477 0.0974609 -7.40182 2.13599e-07
24 1 14.1509 4.71719 1.62417 -8.68377 1.89928e-07
25 1 15.7234 3.14478 0.0975136 -7.40184 2.12681e-07
26 1 17.2958 4.7172 1.62427 -8.68378 1.89492e-07
27 1 18.8682 3.14479 0.0975792 -7.40186 2.12156e-07
28 1 20.4406 4.71721 1.62435 -8.68379 1.89395e-07
29 1 -0.000934314 6.28962 0.097549 -7.40185 2.12319e-07
30 1 1.57145 7.86206 1.62427 -8.68378 1.89624e-07
31 1 3.14384 6.28962 0.0975134 -7.40184 2.13169e-07
32 1 4.71625 7.86206 1.62417 -8.68377 1.90106e-07
33 1 6.28867 6.28961 0.0974331 -7.40181 2.13956e-07
34 1 7.86111 7.86205 1.62404 -8.68377 1.9039e-07
35 1 9.43356 6.2896 0.0973685 -7.40178 2.14089e-07
36 1 11.006 7.86205 1.62398 -8.68376 1.90268e-07
37 1 12.5785 6.2896 0.0973686 -7.40178 2.1347e-07
38 1 14.1509 7.86205 1.62404 -8.68377 1.89831e-07
39 1 15.7234 6.28961 0.0974334 -7.40181 2.12563e-07
40 1 17.2958 7.86206 1.62417 -8.68377 1.89403e-07
41 1 18.8682 6.28962 0.0975136 -7.40184 2.1205e-07
42 1 20.4406 7.86206 1.62427 -8.68378 1.89309e-07
43 1 -0.000934308 9.4345 0.0975015 -7.40183 2.12238e-07
44 1 1.57145 11.007 1.62423 -8.68378 1.89586e-07
45 1 3.14384 9.4345 0.0974608 -7.40182 2.13082e-07
46 1 4.71625 11.007 1.62412 -8.68377 1.90065e-07
47 1 6.28866 9.43449 0.0973685 -7.40178 2.1386e-07
48 1 7.86111 11.007 1.62398 -8.68376 1.90346e-07
49 1 9.43356 9.43449 0.0972937 -7.40175 2.13985e-07
50 1 11.006 11.007 1.62392 -8.68376 1.90223e-07
51 1 12.5785 9.43449 0.0972938 -7.40175 2.13367e-07
52 1 14.1509 11.007 1.62398 -8.68376 1.89789e-07
53 1 15.7234 9.43449 0.0973687 -7.40178 2.1247e-07
54 1 17.2958 11.007 1.62412 -8.68377 1.89365e-07
55 1 18.8682 9.4345 0.0974609 -7.40182 2.11966e-07
56 1 20.4406 11.007 1.62423 -8.68378 1.89273e-07
57 1 -0.000934308 12.5794 0.0975015 -7.40183 2.12238e-07
58 1 1.57145 14.1518 1.62427 -8.68378 1.89624e-07
59 1 3.14384 12.5794 0.0974608 -7.40182 2.13082e-07
60 1 4.71625 14.1518 1.62417 -8.68377 1.90106e-07
61 1 6.28866 12.5794 0.0973685 -7.40178 2.1386e-07
62 1 7.86111 14.1519 1.62404 -8.68377 1.9039e-07
63 1 9.43356 12.5794 0.0972937 -7.40175 2.13985e-07
64 1 11.006 14.1519 1.62398 -8.68376 1.90268e-07
65 1 12.5785 12.5794 0.0972938 -7.40175 2.13367e-07
66 1 14.1509 14.1519 1.62404 -8.68377 1.89831e-07
67 1 15.7234 12.5794 0.0973687 -7.40178 2.1247e-07
68 1 17.2958 14.1518 1.62417 -8.68377 1.89403e-07
69 1 18.8682 12.5794 0.0974609 -7.40182 2.11966e-07
70 1 20.4406 14.1518 1.62427 -8.68378 1.89309e-07
71 1 -0.000934314 15.7243 0.097549 -7.40185 2.12319e-07
72 1 1.57145 17.2967 1.62435 -8.68379 1.89713e-07
73 1 3.14384 15.7243 0.0975134 -7.40184 2.13169e-07
74 1 4.71626 17.2967 1.62427 -8.68378 1.90202e-07
75 1 6.28867 15.7243 0.0974331 -7.40181 2.13956e-07
76 1 7.86112 17.2967 1.62417 -8.68377 1.90492e-07
77 1 9.43356 15.7243 0.0973685 -7.40178 2.14089e-07
78 1 11.006 17.2967 1.62412 -8.68377 1.90371e-07
79 1 12.5785 15.7243 0.0973686 -7.40178 2.1347e-07
80 1 14.1509 17.2967 1.62417 -8.68377 1.89928e-07
81 1 15.7234 15.7243 0.0974334 -7.40181 2.12563e-07
82 1 17.2958 17.2967 1.62427 -8.68378 1.89492e-07
83 1 18.8682 15.7243 0.0975136 -7.40184 2.1205e-07
84 1 20.4406 17.2967 1.62435 -8.68379 1.89395e-07
85 1 -0.000934322 18.8691 0.0976083 -7.40187 2.12422e-07
86 1 1.57146 20.4415 1.62442 -8.68379 1.89788e-07
87 1 3.14385 18.8691 0.097579 -7.40186 2.13278e-07
88 1 4.71627 20.4415 1.62435 -8.68379 1.90282e-07
89 1 6.28868 18.8691 0.0975133 -7.40184 2.14078e-07
90 1 7.86112 20.4415 1.62427 -8.68378 1.90578e-07
91 1 9.43356 18.8691 0.0974608 -7.40182 2.1422e-07
92 1 11.006 20.4415 1.62423 -8.68378 1.90458e-07
93 1 12.5785 18.8691 0.0974609 -7.40182 2.13599e-07
94 1 14.1509 20.4415 1.62427 -8.68378 1.90009e-07
95 1 15.7234 18.8691 0.0975136 -7.40184 2.12681e-07
96 1 17.2957 20.4415 1.62435 -8.68379 1.89567e-07
97 1 18.8682 18.8691 0.0975792 -7.40186 2.12156e-07
98 1 20.4406 20.4415 1.62442 -8.68379 1.89468e-07
99 1 -0.000952207 5.06787e-16 3.15455 -8.93805 1.59924e-07
100 1 1.57143 1.5724 4.74383 -8.90301 1.19628e-07
101 1 3.14385 9.48661e-16 3.15451 -8.93805 1.60113e-07
102 1 4.71624 1.57239 4.74374 -8.90301 1.1971e-07
103 1 6.28869 -4.74e-16 3.15442 -8.93806 1.60317e-07
104 1 7.8611 1.57239 4.74364 -8.90301 1.19792e-07
105 1 9.43356 -8.08289e-16 3.15435 -8.93807 1.60387e-07
106 1 11.006 1.57238 4.74359 -8.90301 1.19818e-07
107 1 12.5784 -1.53396e-15 3.15435 -8.93807 1.60271e-07
108 1 14.1509 1.57239 4.74364 -8.90301 1.19765e-07
109 1 15.7233 -5.45513e-16 3.15442 -8.93806 1.60053e-07
110 1 17.2957 1.57239 4.74374 -8.90301 1.1967e-07
111 1 18.8681 3.36949e-16 3.15451 -8.93805 1.59896e-07
112 1 20.4405 1.5724 4.74383 -8.90301 1.19608e-07
113 1 -0.000952202 3.14481 3.15451 -8.93805 1.59891e-07
114 1 1.57142 4.71721 4.74374 -8.90301 1.19582e-07
115 1 3.14385 3.1448 3.15446 -8.93806 1.60078e-07
116 1 4.71623 4.7172 4.74364 -8.90301 1.1966e-07
117 1 6.28868 3.14479 3.15436 -8.93807 1.6028e-07
118 1 7.86109 4.71718 4.7435 -8.90301 1.19741e-07
119 1 9.43355 3.14479 3.15428 -8.93808 1.60349e-07
120 1 11.006 4.71718 4.74344 -8.90301 1.19768e-07
121 1 12.5784 3.14479 3.15428 -8.93808 1.60235e-07
122 1 14.1509 4.71718 4.7435 -8.90301 1.19718e-07
123 1 15.7233 3.14479 3.15436 -8.93807 1.60019e-07
124 1 17.2957 4.7172 4.74364 -8.90301 1.19626e-07
125 1 18.8681 3.1448 3.15446 -8.93806 1.59864e-07
126 1 20.4405 4.71721 4.74374 -8.90301 1.19564e-07
127 1 -0.000952188 6.28964 3.15442 -8.93806 1.59822e-07
128 1 1.57142 7.86206 4.74364 -8.90301 1.19532e-07
129 1 3.14384 6.28963 3.15436 -8.93807 1.60005e-07
130 1 4.71622 7.86205 4.7435 -8.90301 1.19609e-07
131 1 6.28867 6.28962 3.15424 -8.93808 1.60203e-07
132 1 7.86107 7.86204 4.74333 -8.90301 1.19688e-07
133 1 9.43355 6.28962 3.15413 -8.9381 1.60271e-07
134 1 11.006 7.86203 4.74325 -8.90302 1.19716e-07
135 1 12.5784 6.28962 3.15413 -8.9381 1.6016e-07
136 1 14.1509 7.86204 4.74333 -8.90301 1.19671e-07
137 1 15.7233 6.28962 3.15424 -8.93808 1.59949e-07
138 1 17.2957 7.86205 4.7435 -8.90301 1.19581e-07
139 1 18.8682 6.28963 3.15436 -8.93807 1.59796e-07
140 1 20.4405 7.86206 4.74364 -8.90301 1.19518e-07
141 1 -0.000952177 9.43451 3.15435 -8.93807 1.59772e-07
142 1 1.57142 11.007 4.74359 -8.90301 1.19513e-07
143 1 3.14384 9.43451 3.15428 -8.93808 1.59952e-07
144 1 4.71621 11.007 4.74344 -8.90301 1.19589e-07
145 1 6.28866 9.4345 3.15413 -8.9381 1.60147e-07
146 1 7.86107 11.007 4.74325 -8.90302 1.19669e-07
147 1 9.43354 9.4345 3.15401 -8.93812 1.60213e-07
148 1 11.006 11.007 4.74316 -8.90302 1.19697e-07
149 1 12.5785 9.4345 3.15401 -8.93812 1.60104e-07
150 1 14.1509 11.007 4.74325 -8.90302 1.19654e-07
151 1 15.7233 9.4345 3.15413 -8.9381 1.59898e-07
152 1 17.2958 11.007 4.74344 -8.90301 1.19564e-07
153 1 18.8682 9.43451 3.15428 -8.93808 1.59747e-07
154 1 20.4405 11.007 4.74359 -8.90301 1.195e-07
155 1 -0.000952177 12.5794 3.15435 -8.93807 1.59772e-07
156 1 1.57142 14.1518 4.74364 -8.90301 1.19532e-07
157 1 3.14384 12.5794 3.15428 -8.93808 1.59952e-07
158 1 4.71622 14.1518 4.7435 -8.90301 1.19609e-07
159 1 6.28866 12.5794 3.15413 -8.9381 1.60147e-07
160 1 7.86107 14.1519 4.74333 -8.90301 1.19688e-07
161 1 9.43354 12.5794 3.15401 -8.93812 1.60213e-07
162 1 11.006 14.1519 4.74325 -8.90302 1.19716e-07
163 1 12.5785 12.5794 3.15401 -8.93812 1.60104e-07
164 1 14.1509 14.1519 4.74333 -8.90301 1.19671e-07
165 1 15.7233 12.5794 3.15413 -8.9381 1.59898e-07
166 1 17.2957 14.1518 4.7435 -8.90301 1.19581e-07
167 1 18.8682 12.5794 3.15428 -8.93808 1.59747e-07
168 1 20.4405 14.1518 4.74364 -8.90301 1.19518e-07
169 1 -0.000952188 15.7243 3.15442 -8.93806 1.59822e-07
170 1 1.57142 17.2967 4.74374 -8.90301 1.19582e-07
171 1 3.14384 15.7243 3.15436 -8.93807 1.60005e-07
172 1 4.71623 17.2967 4.74364 -8.90301 1.1966e-07
173 1 6.28867 15.7243 3.15424 -8.93808 1.60203e-07
174 1 7.86109 17.2967 4.7435 -8.90301 1.19741e-07
175 1 9.43355 15.7243 3.15413 -8.9381 1.60271e-07
176 1 11.006 17.2967 4.74344 -8.90301 1.19768e-07
177 1 12.5784 15.7243 3.15413 -8.9381 1.6016e-07
178 1 14.1509 17.2967 4.7435 -8.90301 1.19718e-07
179 1 15.7233 15.7243 3.15424 -8.93808 1.59949e-07
180 1 17.2957 17.2967 4.74364 -8.90301 1.19626e-07
181 1 18.8682 15.7243 3.15436 -8.93807 1.59796e-07
182 1 20.4405 17.2967 4.74374 -8.90301 1.19564e-07
183 1 -0.000952202 18.8691 3.15451 -8.93805 1.59891e-07
184 1 1.57143 20.4415 4.74383 -8.90301 1.19628e-07
185 1 3.14385 18.8691 3.15446 -8.93806 1.60078e-07
186 1 4.71624 20.4415 4.74374 -8.90301 1.1971e-07
187 1 6.28868 18.8691 3.15436 -8.93807 1.6028e-07
188 1 7.8611 20.4415 4.74364 -8.90301 1.19792e-07
189 1 9.43355 18.8691 3.15428 -8.93808 1.60349e-07
190 1 11.006 20.4415 4.74359 -8.90301 1.19818e-07
191 1 12.5784 18.8691 3.15428 -8.93808 1.60235e-07
192 1 14.1509 20.4415 4.74364 -8.90301 1.19765e-07
193 1 15.7233 18.8691 3.15436 -8.93807 1.60019e-07
194 1 17.2957 20.4415 4.74374 -8.90301 1.1967e-07
195 1 18.8681 18.8691 3.15446 -8.93806 1.59864e-07
196 1 20.4405 20.4415 4.74383 -8.90301 1.19608e-07
197 1 -0.000989867 -2.04191e-15 6.3056 -8.88811 7.31932e-08
198 1 1.57137 1.57238 7.87482 -8.90467 3.59627e-08
199 1 3.1438 -1.47556e-15 6.30555 -8.88811 7.32425e-08
200 1 4.71616 1.57237 7.8747 -8.90467 3.60172e-08
201 1 6.28863 -5.08751e-16 6.30544 -8.88812 7.33292e-08
202 1 7.86102 1.57235 7.87456 -8.90467 3.60827e-08
203 1 9.43351 1.36964e-15 6.30534 -8.88812 7.33923e-08
204 1 11.0059 1.57235 7.87449 -8.90467 3.61129e-08
205 1 12.5784 1.04075e-15 6.30534 -8.88812 7.33853e-08
206 1 14.1509 1.57235 7.87456 -8.90467 3.60809e-08
207 1 15.7233 2.93815e-17 6.30544 -8.88812 7.33084e-08
208 1 17.2957 1.57237 7.8747 -8.90467 3.60088e-08
209 1 18.8681 -1.03597e-15 6.30555 -8.88811 7.3221e-08
210 1 20.4405 1.57238 7.87482 -8.90467 3.59568e-08
211 1 -0.000989859 3.14479 6.30555 -8.88811 7.31714e-08
212 1 1.57136 4.71717 7.8747 -8.90467 3.59295e-08
213 1 3.14379 3.14478 6.30549 -8.88811 7.32188e-08
214 1 4.71613 4.71714 7.87454 -8.90466 3.59825e-08
215 1 6.28861 3.14476 6.30535 -8.88812 7.3305e-08
216 1 7.86099 4.7171 7.87433 -8.90467 3.60512e-08
217 1 9.4335 3.14474 6.30524 -8.88812 7.33689e-08
218 1 11.0059 4.71708 7.87423 -8.90467 3.60843e-08
219 1 12.5784 3.14474 6.30524 -8.88812 7.3363e-08
220 1 14.1509 4.7171 7.87433 -8.90467 3.60529e-08
221 1 15.7233 3.14476 6.30535 -8.88812 7.32869e-08
222 1 17.2957 4.71714 7.87454 -8.90466 3.59786e-08
223 1 18.8681 3.14478 6.30549 -8.88811 7.31994e-08
224 1 20.4405 4.71717 7.8747 -8.90467 3.59257e-08
225 1 -0.000989837 6.28962 6.30544 -8.88812 7.31324e-08
226 1 1.57134 7.86203 7.87456 -8.90467 3.59034e-08
227 1 3.14377 6.2896 6.30535 -8.88812 7.31772e-08
228 1 4.71608 7.862 7.87433 -8.90467 3.59589e-08
229 1 6.28858 6.28957 6.30515 -8.88812 7.3263e-08
230 1 7.86095 7.86196 7.87401 -8.90469 3.60326e-08
231 1 9.43349 6.28955 6.30499 -8.88813 7.3328e-08
232 1 11.0059 7.86194 7.87386 -8.90471 3.60684e-08
233 1 12.5784 6.28955 6.30499 -8.88813 7.33248e-08
234 1 14.1509 7.86196 7.87401 -8.90469 3.60387e-08
235 1 15.7233 6.28957 6.30515 -8.88812 7.32511e-08
236 1 17.2958 7.862 7.87433 -8.90467 3.59611e-08
237 1 18.8682 6.2896 6.30535 -8.88812 7.3163e-08
238 1 20.4405 7.86203 7.87456 -8.90467 3.59025e-08
239 1 -0.000989816 9.4345 6.30534 -8.88812 7.31101e-08
240 1 1.57133 11.007 7.87449 -8.90467 3.58967e-08
241 1 3.14375 9.43449 6.30524 -8.88812 7.31544e-08
242 1 4.71607 11.007 7.87423 -8.90467 3.5955e-08
243 1 6.28856 9.43448 6.30499 -8.88813 7.32424e-08
244 1 7.86093 11.007 7.87386 -8.90471 3.60328e-08
245 1 9.43348 9.43447 6.30478 -8.88815 7.33086e-08
246 1 11.0059 11.007 7.87367 -8.90475 3.60699e-08
247 1 12.5784 9.43447 6.30478 -8.88815 7.33073e-08
248 1 14.1509 11.007 7.87386 -8.90471 3.60407e-08
249 1 15.7234 9.43448 6.30499 -8.88813 7.32354e-08
250 1 17.2958 11.007 7.87423 -8.90467 3.59599e-08
251 1 18.8682 9.43449 6.30524 -8.88812 7.31445e-08
252 1 20.4405 11.007 7.87449 -8.90467 3.58972e-08
253 1 -0.000989816 12.5794 6.30534 -8.88812 7.31101e-08
254 1 1.57134 14.1519 7.87456 -8.90467 3.59034e-08
255 1 3.14375 12.5794 6.30524 -8.88812 7.31544e-08
256 1 4.71608 14.1519 7.87433 -8.90467 3.59589e-08
257 1 6.28856 12.5794 6.30499 -8.88813 7.32424e-08
258 1 7.86095 14.1519 7.87401 -8.90469 3.60326e-08
259 1 9.43348 12.5794 6.30478 -8.88815 7.33086e-08
260 1 11.0059 14.152 7.87386 -8.90471 3.60684e-08
261 1 12.5784 12.5794 6.30478 -8.88815 7.33073e-08
262 1 14.1509 14.1519 7.87401 -8.90469 3.60387e-08
263 1 15.7234 12.5794 6.30499 -8.88813 7.32354e-08
264 1 17.2958 14.1519 7.87433 -8.90467 3.59611e-08
265 1 18.8682 12.5794 6.30524 -8.88812 7.31445e-08
266 1 20.4405 14.1519 7.87456 -8.90467 3.59025e-08
267 1 -0.000989837 15.7243 6.30544 -8.88812 7.31324e-08
268 1 1.57136 17.2967 7.8747 -8.90467 3.59295e-08
269 1 3.14377 15.7243 6.30535 -8.88812 7.31772e-08
270 1 4.71613 17.2968 7.87454 -8.90466 3.59825e-08
271 1 6.28858 15.7243 6.30515 -8.88812 7.3263e-08
272 1 7.86099 17.2968 7.87433 -8.90467 3.60512e-08
273 1 9.43349 15.7244 6.30499 -8.88813 7.3328e-08
274 1 11.0059 17.2968 7.87423 -8.90467 3.60843e-08
275 1 12.5784 15.7244 6.30499 -8.88813 7.33248e-08
276 1 14.1509 17.2968 7.87433 -8.90467 3.60529e-08
277 1 15.7233 15.7243 6.30515 -8.88812 7.32511e-08
278 1 17.2957 17.2968 7.87454 -8.90466 3.59786e-08
279 1 18.8682 15.7243 6.30535 -8.88812 7.3163e-08
280 1 20.4405 17.2967 7.8747 -8.90467 3.59257e-08
281 1 -0.000989859 18.8691 6.30555 -8.88811 7.31714e-08
282 1 1.57137 20.4415 7.87482 -8.90467 3.59627e-08
283 1 3.14379 18.8691 6.30549 -8.88811 7.32188e-08
284 1 4.71616 20.4415 7.8747 -8.90467 3.60172e-08
285 1 6.28861 18.8691 6.30535 -8.88812 7.3305e-08
286 1 7.86102 20.4415 7.87456 -8.90467 3.60827e-08
287 1 9.4335 18.8692 6.30524 -8.88812 7.33689e-08
288 1 11.0059 20.4416 7.87449 -8.90467 3.61129e-08
289 1 12.5784 18.8692 6.30524 -8.88812 7.3363e-08
290 1 14.1509 20.4415 7.87456 -8.90467 3.60809e-08
291 1 15.7233 18.8691 6.30535 -8.88812 7.32869e-08
292 1 17.2957 20.4415 7.8747 -8.90467 3.60088e-08
293 1 18.8681 18.8691 6.30549 -8.88811 7.31994e-08
294 1 20.4405 20.4415 7.87482 -8.90467 3.59568e-08
295 1 -0.00104017 2.75113e-15 9.44319 -8.89866 9.48433e-09
296 1 1.57131 1.57237 11.0113 -8.9001 1.15828e-11
297 1 3.14372 1.617e-14 9.44312 -8.89865 9.51194e-09
298 1 4.71608 1.57234 11.0112 -8.90009 1.31525e-11
299 1 6.28854 3.48101e-14 9.44296 -8.89865 9.55551e-09
300 1 7.86094 1.57231 11.011 -8.90009 8.24895e-12
301 1 9.43344 4.4768e-14 9.44283 -8.89865 9.58644e-09
302 1 11.0059 1.57229 11.0109 -8.90009 5.77442e-12
303 1 12.5784 4.75587e-14 9.44283 -8.89865 9.58066e-09
304 1 14.1508 1.57231 11.011 -8.90009 5.6825e-12
305 1 15.7233 3.4887e-14 9.44296 -8.89865 9.53764e-09
306 1 17.2957 1.57234 11.0112 -8.90009 3.63781e-12
307 1 18.8681 2.04592e-14 9.44312 -8.89865 9.49274e-09
308 1 20.4405 1.57237 11.0113 -8.9001 5.14337e-12
309 1 -0.00104017 3.14476 9.44312 -8.89865 9.46736e-09
310 1 1.57128 4.71715 11.0112 -8.90009 6.87111e-12
311 1 3.1437 3.14474 9.44304 -8.89865 9.49376e-09
312 1 4.716 4.71707 11.0109 -8.90006 8.4372e-12
313 1 6.28851 3.14469 9.44283 -8.89864 9.53868e-09
314 1 7.86086 4.71696 11.0106 -8.90007 5.42371e-12
315 1 9.43343 3.14465 9.44265 -8.89865 9.57228e-09
316 1 11.0059 4.71692 11.0104 -8.90008 5.7964e-12
317 1 12.5784 3.14465 9.44265 -8.89865 9.56759e-09
318 1 14.1509 4.71696 11.0106 -8.90007 7.49854e-12
319 1 15.7233 3.14469 9.44283 -8.89864 9.52314e-09
320 1 17.2958 4.71707 11.0109 -8.90006 4.29677e-12
321 1 18.8681 3.14474 9.44304 -8.89865 9.47636e-09
322 1 20.4405 4.71715 11.0112 -8.90009 2.69359e-12
323 1 -0.00104016 6.28958 9.44296 -8.89865 9.4414e-09
324 1 1.57124 7.86201 11.011 -8.90009 3.15982e-12
325 1 3.14365 6.28955 9.44283 -8.89864 9.4665e-09
326 1 4.71589 7.86193 11.0106 -8.90007 4.34426e-12
327 1 6.28843 6.28947 9.44248 -8.89864 9.51369e-09
328 1 7.86074 7.8618 11.0099 -8.90011 4.2091e-12
329 1 9.43339 6.28941 9.44217 -8.89865 9.55361e-09
330 1 11.0059 7.86175 11.0096 -8.90015 8.42525e-12
331 1 12.5784 6.28941 9.44217 -8.89865 9.55157e-09
332 1 14.151 7.8618 11.0099 -8.90011 1.19171e-11
333 1 15.7234 6.28947 9.44248 -8.89864 9.50421e-09
334 1 17.2959 7.86193 11.0106 -8.90007 7.50286e-12
335 1 18.8682 6.28955 9.44283 -8.89864 9.45388e-09
336 1 20.4405 7.86201 11.011 -8.90009 2.15141e-12
337 1 -0.00104013 9.43448 9.44283 -8.89865 9.43076e-09
338 1 1.57122 11.007 11.0109 -8.90009 2.31206e-12
339 1 3.14361 9.43447 9.44265 -8.89865 9.45688e-09
340 1 4.71585 11.007 11.0104 -8.90008 3.35072e-12
341 1 6.28837 9.43443 9.44217 -8.89865 9.51051e-09
342 1 7.86068 11.007 11.0096 -8.90015 4.80527e-12
343 1 9.43335 9.43439 9.44171 -8.89872 9.55652e-09
344 1 11.0059 11.007 11.0091 -8.90037 1.0589e-11
345 1 12.5785 9.43439 9.44171 -8.89872 9.55657e-09
346 1 14.1511 11.007 11.0096 -8.90015 1.43814e-11
347 1 15.7235 9.43443 9.44217 -8.89865 9.50608e-09
348 1 17.2959 11.007 11.0104 -8.90008 9.5426e-12
349 1 18.8682 9.43447 9.44265 -8.89865 9.4484e-09
350 1 20.4405 11.007 11.0109 -8.90009 2.70451e-12
351 1 -0.00104013 12.5794 9.44283 -8.89865 9.43076e-09
352 1 1.57124 14.1519 11.011 -8.90009 3.1598e-12
353 1 3.14361 12.5794 9.44265 -8.89865 9.45688e-09
354 1 4.71589 14.152 11.0106 -8.90007 4.34422e-12
355 1 6.28837 12.5795 9.44217 -8.89865 9.51051e-09
356 1 7.86074 14.1521 11.0099 -8.90011 4.20925e-12
357 1 9.43335 12.5795 9.44171 -8.89872 9.55652e-09
358 1 11.0059 14.1522 11.0096 -8.90015 8.427e-12
359 1 12.5785 12.5795 9.44171 -8.89872 9.55657e-09
360 1 14.151 14.1521 11.0099 -8.90011 1.19187e-11
361 1 15.7235 12.5795 9.44217 -8.89865 9.50608e-09
362 1 17.2959 14.152 11.0106 -8.90007 7.50293e-12
363 1 18.8682 12.5794 9.44265 -8.89865 9.4484e-09
364 1 20.4405 14.1519 11.011 -8.90009 2.15144e-12
365 1 -0.00104016 15.7243 9.44296 -8.89865 9.4414e-09
366 1 1.57128 17.2968 11.0112 -8.90009 6.8711e-12
367 1 3.14365 15.7243 9.44283 -8.89864 9.46649e-09
368 1 4.716 17.2968 11.0109 -8.90006 8.4373e-12
369 1 6.28843 15.7244 9.44248 -8.89864 9.51369e-09
370 1 7.86086 17.2969 11.0106 -8.90007 5.42371e-12
371 1 9.43339 15.7245 9.44217 -8.89865 9.55361e-09
372 1 11.0059 17.297 11.0104 -8.90008 5.79638e-12
373 1 12.5784 15.7245 9.44217 -8.89865 9.55158e-09
374 1 14.1509 17.2969 11.0106 -8.90007 7.4985e-12
375 1 15.7234 15.7244 9.44248 -8.89864 9.50421e-09
376 1 17.2958 17.2968 11.0109 -8.90006 4.29674e-12
377 1 18.8682 15.7243 9.44283 -8.89864 9.45388e-09
378 1 20.4405 17.2968 11.0112 -8.90009 2.69364e-12
379 1 -0.00104017 18.8691 9.44312 -8.89865 9.46736e-09
380 1 1.57131 20.4415 11.0113 -8.9001 1.15828e-11
381 1 3.1437 18.8692 9.44304 -8.89865 9.49376e-09
382 1 4.71608 20.4416 11.0112 -8.90009 1.31525e-11
383 1 6.28851 18.8692 9.44283 -8.89864 9.53868e-09
384 1 7.86094 20.4416 11.011 -8.90009 8.24903e-12
385 1 9.43343 18.8692 9.44265 -8.89865 9.57228e-09
386 1 11.0059 20.4416 11.0109 -8.90009 5.77442e-12
387 1 12.5784 18.8692 9.44265 -8.89865 9.56759e-09
388 1 14.1508 20.4416 11.011 -8.90009 5.68246e-12
389 1 15.7233 18.8692 9.44283 -8.89864 9.52314e-09
390 1 17.2957 20.4416 11.0112 -8.90009 3.63783e-12
391 1 18.8681 18.8692 9.44304 -8.89865 9.47636e-09
392 1 20.4405 20.4415 11.0113 -8.9001 5.14336e-12
393 1 -0.00109565 4.08103e-14 12.5796 -8.89868 8.82693e-09
394 1 3.14368 -1.31233e-14 12.5795 -8.89867 8.79978e-09
395 1 6.28849 -1.37684e-13 12.5793 -8.89867 8.73583e-09
396 1 9.43339 -2.21114e-13 12.5791 -8.89868 8.68581e-09
397 1 12.5783 -2.2027e-13 12.5791 -8.89868 8.70104e-09
398 1 15.7232 -1.36875e-13 12.5793 -8.89867 8.76474e-09
399 1 18.868 -1.09858e-14 12.5795 -8.89867 8.81762e-09
400 1 22.0128 3.14478 12.5795 -8.89867 8.8609e-09
401 1 3.14364 3.14474 12.5794 -8.89866 8.83412e-09
402 1 6.28843 3.14464 12.5791 -8.89864 8.77042e-09
403 1 9.43335 3.14455 12.5788 -8.89865 8.71608e-09
404 1 12.5784 3.14455 12.5788 -8.89865 8.73309e-09
405 1 15.7233 3.14464 12.5791 -8.89864 8.80331e-09
406 1 18.8681 3.14474 12.5794 -8.89866 8.85548e-09
407 1 22.0128 6.28959 12.5793 -8.89867 8.91624e-09
408 1 3.14354 6.28952 12.5791 -8.89864 8.88971e-09
409 1 6.28824 6.28933 12.5785 -8.89854 8.83417e-09
410 1 9.43325 6.28917 12.5779 -8.8986 8.76345e-09
411 1 12.5785 6.28917 12.5779 -8.8986 8.7838e-09
412 1 15.7235 6.28933 12.5785 -8.89854 8.87126e-09
413 1 18.8682 6.28952 12.5791 -8.89864 8.91764e-09
414 1 22.0128 9.43448 12.5791 -8.89868 8.94234e-09
415 1 3.14346 9.43445 12.5788 -8.89865 8.90828e-09
416 1 6.28808 9.43434 12.5779 -8.8986 8.83827e-09
417 1 9.43311 9.43421 12.5768 -8.89878 8.75297e-09
418 1 12.5786 9.43421 12.5768 -8.89878 8.77773e-09
419 1 15.7236 9.43434 12.5779 -8.8986 8.87789e-09
420 1 18.8683 9.43445 12.5788 -8.89865 8.94063e-09
421 1 22.0128 12.5794 12.5791 -8.89868 8.94234e-09
422 1 3.14346 12.5795 12.5788 -8.89865 8.90827e-09
423 1 6.28808 12.5796 12.5779 -8.8986 8.83825e-09
424 1 9.43311 12.5797 12.5768 -8.89878 8.75295e-09
425 1 12.5786 12.5797 12.5768 -8.89878 8.77776e-09
426 1 15.7236 12.5796 12.5779 -8.8986 8.87791e-09
427 1 18.8683 12.5795 12.5788 -8.89865 8.94063e-09
428 1 22.0128 15.7243 12.5793 -8.89867 8.91624e-09
429 1 3.14354 15.7244 12.5791 -8.89864 8.88971e-09
430 1 6.28824 15.7246 12.5785 -8.89854 8.83413e-09
431 1 9.43325 15.7247 12.5779 -8.8986 8.76345e-09
432 1 12.5785 15.7247 12.5779 -8.8986 8.7838e-09
433 1 15.7235 15.7246 12.5785 -8.89854 8.87131e-09
434 1 18.8682 15.7244 12.5791 -8.89864 8.91764e-09
435 1 22.0128 18.8691 12.5795 -8.89867 8.8609e-09
436 1 3.14364 18.8692 12.5794 -8.89866 8.83413e-09
437 1 6.28843 18.8693 12.5791 -8.89864 8.77042e-09
438 1 9.43335 18.8693 12.5788 -8.89865 8.71608e-09
439 1 12.5784 18.8693 12.5788 -8.89865 8.73309e-09
440 1 15.7233 18.8693 12.5791 -8.89864 8.80331e-09
441 1 18.8681 18.8692 12.5794 -8.89866 8.85547e-09
442 1 1.57129 1.57241 14.1479 -8.9047 3.47636e-08
443 1 4.71609 1.57237 14.1478 -8.90468 3.46748e-08
444 1 7.86092 1.5723 14.1475 -8.9047 3.4543e-08
445 1 11.0058 1.57227 14.1474 -8.9047 3.45044e-08
446 1 14.1507 1.5723 14.1475 -8.9047 3.46111e-08
447 1 17.2956 1.57237 14.1478 -8.90468 3.47531e-08
448 1 20.4404 1.57241 14.1479 -8.9047 3.47957e-08
449 1 1.57125 4.71722 14.1478 -8.90468 3.49281e-08
450 1 4.71596 4.71708 14.1475 -8.90465 3.48741e-08
451 1 7.86075 4.71685 14.1469 -8.90465 3.4718e-08
452 1 11.0058 4.71676 14.1466 -8.90466 3.46538e-08
453 1 14.1509 4.71685 14.1469 -8.90465 3.47881e-08
454 1 17.2957 4.71708 14.1475 -8.90465 3.49528e-08
455 1 20.4404 4.71722 14.1478 -8.90468 3.49651e-08
456 1 1.57118 7.86204 14.1475 -8.9047 3.50657e-08
457 1 4.71573 7.86188 14.1469 -8.90465 3.50075e-08
458 1 7.86038 7.8615 14.1455 -8.9044 3.48361e-08
459 1 11.0058 7.86138 14.1447 -8.90466 3.47392e-08
460 1 14.1513 7.8615 14.1455 -8.9044 3.49637e-08
461 1 17.2959 7.86188 14.1469 -8.90465 3.50863e-08
462 1 20.4405 7.86204 14.1475 -8.9047 3.51053e-08
463 1 1.57115 11.007 14.1474 -8.9047 3.51013e-08
464 1 4.71564 11.007 14.1466 -8.90466 3.50138e-08
465 1 7.86025 11.007 14.1447 -8.90466 3.47826e-08
466 1 11.0058 11.007 14.1432 -8.90674 3.46678e-08
467 1 14.1514 11.007 14.1447 -8.90466 3.49289e-08
468 1 17.296 11.007 14.1466 -8.90466 3.50956e-08
469 1 20.4405 11.007 14.1474 -8.9047 3.51415e-08
470 1 1.57118 14.1519 14.1475 -8.9047 3.50656e-08
471 1 4.71573 14.152 14.1469 -8.90465 3.50074e-08
472 1 7.86038 14.1524 14.1455 -8.9044 3.48361e-08
473 1 11.0058 14.1525 14.1447 -8.90466 3.47392e-08
474 1 14.1513 14.1524 14.1455 -8.9044 3.49636e-08
475 1 17.2959 14.152 14.1469 -8.90465 3.50864e-08
476 1 20.4405 14.1519 14.1475 -8.9047 3.51053e-08
477 1 1.57125 17.2967 14.1478 -8.90468 3.49281e-08
478 1 4.71596 17.2968 14.1475 -8.90465 3.4874e-08
479 1 7.86075 17.297 14.1469 -8.90465 3.47179e-08
480 1 11.0058 17.2971 14.1466 -8.90466 3.46538e-08
481 1 14.1509 17.297 14.1469 -8.90465 3.47881e-08
482 1 17.2957 17.2968 14.1475 -8.90465 3.49529e-08
483 1 20.4404 17.2967 14.1478 -8.90468 3.49651e-08
484 1 1.57129 20.4415 14.1479 -8.9047 3.47636e-08
485 1 4.71609 20.4415 14.1478 -8.90468 3.46748e-08
486 1 7.86092 20.4416 14.1475 -8.9047 3.4543e-08
487 1 11.0058 20.4416 14.1474 -8.9047 3.45044e-08
488 1 14.1507 20.4416 14.1475 -8.9047 3.46111e-08
489 1 17.2956 20.4415 14.1478 -8.90468 3.47531e-08
490 1 20.4404 20.4415 14.1479 -8.9047 3.47956e-08
491 1 22.0128 5.55873e-14 15.7172 -8.88818 7.17108e-08
492 1 1.57138 1.57255 17.279 -8.90297 1.18155e-07
493 1 3.14378 -1.38049e-13 15.7172 -8.88819 7.16274e-08
494 1 4.71638 1.5726 17.279 -8.90302 1.18029e-07
495 1 6.28859 -3.02575e-13 15.7171 -8.88817 7.14865e-08
496 1 7.8611 1.57254 17.2788 -8.9031 1.17856e-07
497 1 9.4334 -2.34985e-13 15.7169 -8.8882 7.13568e-08
498 1 11.0058 1.5725 17.2787 -8.90309 1.17763e-07
499 1 12.5782 -2.34739e-13 15.7169 -8.8882 7.1398e-08
500 1 14.1505 1.57254 17.2788 -8.9031 1.17913e-07
501 1 15.723 -3.04707e-13 15.7171 -8.88817 7.1571e-08
502 1 17.2952 1.5726 17.279 -8.90302 1.18092e-07
503 1 18.8678 -1.40565e-13 15.7172 -8.88819 7.16877e-08
504 1 20.4402 1.57255 17.279 -8.90297 1.18181e-07
505 1 22.0128 3.14492 15.7172 -8.88819 7.18595e-08
506 1 1.57143 4.71755 17.279 -8.90302 1.18571e-07
507 1 3.14376 3.14491 15.7171 -8.88818 7.17766e-08
508 1 4.71648 4.71764 17.2789 -8.90324 1.18496e-07
509 1 6.28853 3.14478 15.7169 -8.88809 7.16832e-08
510 1 7.86094 4.71722 17.2782 -8.90292 1.18475e-07
511 1 9.43335 3.14464 15.7165 -8.88817 7.1523e-08
512 1 11.0058 4.71706 17.2777 -8.90284 1.18307e-07
513 1 12.5783 3.14464 15.7165 -8.88817 7.15657e-08
514 1 14.1506 4.71722 17.2782 -8.90292 1.18584e-07
515 1 15.7231 3.14478 15.7169 -8.88809 7.17605e-08
516 1 17.2951 4.71764 17.2789 -8.90324 1.18537e-07
517 1 18.8678 3.14491 15.7171 -8.88818 7.18414e-08
518 1 20.4401 4.71755 17.279 -8.90302 1.186e-07
519 1 22.0128 6.28974 15.7171 -8.88817 7.21901e-08
520 1 1.57137 7.86227 17.2788 -8.9031 1.19084e-07
521 1 3.14364 6.28967 15.7169 -8.88809 7.21684e-08
522 1 4.71605 7.86211 17.2782 -8.90292 1.1909e-07
523 1 6.28821 6.28936 15.7161 -8.8877 7.21808e-08
524 1 7.85988 7.86105 17.2759 -8.90267 1.19043e-07
525 1 9.43313 6.28897 15.7149 -8.88787 7.18925e-08
526 1 11.0058 7.86102 17.2737 -8.90497 1.18937e-07
527 1 12.5785 6.28897 15.7149 -8.88787 7.19931e-08
528 1 14.1517 7.86105 17.2759 -8.90267 1.199e-07
529 1 15.7234 6.28936 15.7161 -8.8877 7.23555e-08
530 1 17.2955 7.86211 17.2782 -8.90292 1.19384e-07
531 1 18.868 6.28967 15.7169 -8.88809 7.22227e-08
532 1 20.4402 7.86227 17.2788 -8.9031 1.19088e-07
533 1 22.0128 9.43454 15.7169 -8.8882 7.23786e-08
534 1 1.57133 11.007 17.2787 -8.90309 1.19255e-07
535 1 3.14349 9.4345 15.7165 -8.88817 7.23509e-08
536 1 4.71589 11.007 17.2777 -8.90284 1.1917e-07
537 1 6.28782 9.43427 15.7149 -8.88787 7.22007e-08
538 1 7.85985 11.007 17.2737 -8.90497 1.19518e-07
539 1 9.43254 9.43369 15.7118 -8.88714 7.18667e-08
540 1 11.0058 11.007 17.2662 -8.91709 1.19237e-07
541 1 12.5791 9.43369 15.7118 -8.88714 7.20329e-08
542 1 14.1517 11.007 17.2737 -8.90497 1.19325e-07
543 1 15.7238 9.43427 15.7149 -8.88787 7.2528e-08
544 1 17.2957 11.007 17.2777 -8.90284 1.19557e-07
545 1 18.8681 9.4345 15.7165 -8.88817 7.24018e-08
546 1 20.4402 11.007 17.2787 -8.90309 1.19245e-07
547 1 22.0128 12.5794 15.7169 -8.8882 7.23786e-08
548 1 1.57137 14.1516 17.2788 -8.9031 1.19084e-07
549 1 3.14349 12.5794 15.7165 -8.88817 7.23507e-08
550 1 4.71605 14.1518 17.2782 -8.90292 1.19092e-07
551 1 6.28782 12.5796 15.7149 -8.88787 7.22019e-08
552 1 7.85988 14.1529 17.2759 -8.90267 1.19049e-07
553 1 9.43254 12.5802 15.7118 -8.88714 7.18665e-08
554 1 11.0058 14.1529 17.2737 -8.90497 1.18937e-07
555 1 12.5791 12.5802 15.7118 -8.88714 7.20329e-08
556 1 14.1517 14.1529 17.2759 -8.90267 1.19894e-07
557 1 15.7238 12.5796 15.7149 -8.88787 7.25268e-08
558 1 17.2955 14.1518 17.2782 -8.90292 1.19382e-07
559 1 18.8681 12.5794 15.7165 -8.88817 7.2402e-08
560 1 20.4402 14.1516 17.2788 -8.9031 1.19089e-07
561 1 22.0128 15.7242 15.7171 -8.88817 7.21901e-08
562 1 1.57143 17.2964 17.279 -8.90302 1.18571e-07
563 1 3.14364 15.7242 15.7169 -8.88809 7.21682e-08
564 1 4.71648 17.2963 17.2789 -8.90324 1.18496e-07
565 1 6.28821 15.7245 15.7161 -8.8877 7.21811e-08
566 1 7.86094 17.2967 17.2782 -8.90292 1.18475e-07
567 1 9.43313 15.7249 15.7149 -8.88787 7.18926e-08
568 1 11.0058 17.2968 17.2777 -8.90284 1.18307e-07
569 1 12.5785 15.7249 15.7149 -8.88787 7.19929e-08
570 1 14.1506 17.2967 17.2782 -8.90292 1.18583e-07
571 1 15.7234 15.7245 15.7161 -8.8877 7.23552e-08
572 1 17.2951 17.2963 17.2789 -8.90324 1.18538e-07
573 1 18.868 15.7242 15.7169 -8.88809 7.2223e-08
574 1 20.4401 17.2964 17.279 -8.90302 1.186e-07
575 1 22.0128 18.869 15.7172 -8.88819 7.18595e-08
576 1 1.57138 20.4413 17.279 -8.90297 1.18155e-07
577 1 3.14376 18.869 15.7171 -8.88818 7.17766e-08
578 1 4.71638 20.4413 17.279 -8.90302 1.18029e-07
579 1 6.28853 18.8691 15.7169 -8.88809 7.16831e-08
580 1 7.8611 20.4414 17.2788 -8.9031 1.17856e-07
581 1 9.43335 18.8693 15.7165 -8.88817 7.1523e-08
582 1 11.0058 20.4414 17.2787 -8.90309 1.17763e-07
583 1 12.5783 18.8693 15.7165 -8.88817 7.15657e-08