ITEM: TIMESTEP
149
ITEM: NUMBER OF ATOMS
736
ITEM: BOX BOUNDS pp pp pp
0.0000000000000000e+00 2.2013900999999997e+01
0.0000000000000000e+00 2.2013900999999997e+01
0.0000000000000000e+00 5.3462330999999999e+01
ITEM: ATOMS id type x y z c_pot c_ke
1 1 -3.19852e-05 3.4095e-16 0.0972893 -7.40181 3.40958e-06
2 1 1.57236 1.57242 1.62403 -8.68379 4.26515e-06
3 1 3.14483 1.04404e-15 0.0972654 -7.4018 3.7518e-06
4 1 4.71722 1.57242 1.62401 -8.68378 4.00968e-06
5 1 6.2897 4.55333e-16 0.0972686 -7.4018 3.43341e-06
6 1 7.86209 1.57241 1.62403 -8.68378 3.15505e-06
7 1 9.43456 1.44037e-15 0.0972964 -7.40182 2.67545e-06
8 1 11.0069 1.57241 1.62407 -8.68379 2.3316e-06
9 1 12.5794 1.0339e-15 0.0973279 -7.40183 2.04451e-06
10 1 14.1518 1.57241 1.62411 -8.68379 2.02515e-06
11 1 15.7242 7.88442e-16 0.0973393 -7.40183 2.03635e-06
12 1 17.2966 1.57242 1.62411 -8.68379 2.53953e-06
13 1 18.869 5.81869e-16 0.0973221 -7.40182 2.65204e-06
14 1 20.4414 1.57242 1.62407 -8.68379 3.58907e-06
15 1 -3.69696e-05 3.14485 0.0972962 -7.40181 3.11845e-06
16 1 1.57235 4.71726 1.62404 -8.68379 3.41152e-06
17 1 3.14482 3.14485 0.0972697 -7.4018 3.48944e-06
18 1 4.71721 4.71725 1.62401 -8.68378 3.22225e-06
19 1 6.28969 3.14484 0.0972685 -7.4018 3.20059e-06
20 1 7.86207 4.71725 1.62402 -8.68378 2.49379e-06
21 1 9.43456 3.14484 0.0972937 -7.40182 2.45867e-06
22 1 11.0069 4.71724 1.62405 -8.68378 1.76922e-06
23 1 12.5794 3.14484 0.0973262 -7.40183 1.81123e-06
24 1 14.1518 4.71725 1.6241 -8.68379 1.39579e-06
25 1 15.7242 3.14484 0.0973415 -7.40183 1.76155e-06
26 1 17.2966 4.71726 1.62411 -8.68379 1.7487e-06
27 1 18.869 3.14485 0.0973282 -7.40183 2.35114e-06
28 1 20.4414 4.71726 1.62409 -8.68379 2.71868e-06
29 1 -4.81685e-05 6.28969 0.0973119 -7.40182 2.4588e-06
30 1 1.57234 7.8621 1.62406 -8.68379 2.49058e-06
31 1 3.1448 6.28969 0.0972792 -7.40181 2.89959e-06
32 1 4.71719 7.8621 1.62401 -8.68378 2.42995e-06
33 1 6.28967 6.28968 0.097268 -7.4018 2.6949e-06
34 1 7.86206 7.86209 1.624 -8.68378 1.95092e-06
35 1 9.43454 6.28968 0.0972866 -7.40181 2.0083e-06
36 1 11.0069 7.86209 1.62403 -8.68378 1.42096e-06
37 1 12.5794 6.28968 0.0973214 -7.40183 1.32811e-06
38 1 14.1518 7.86209 1.62409 -8.68378 9.46048e-07
39 1 15.7242 6.28969 0.0973461 -7.40184 1.16988e-06
40 1 17.2966 7.8621 1.62412 -8.68379 1.00823e-06
41 1 18.869 6.28969 0.0973418 -7.40183 1.68001e-06
42 1 20.4414 7.8621 1.62411 -8.68379 1.79819e-06
43 1 -5.71485e-05 9.43453 0.0973245 -7.40183 1.9244e-06
44 1 1.57233 11.007 1.62406 -8.68379 2.13209e-06
45 1 3.14479 9.43453 0.0972869 -7.40181 2.42636e-06
46 1 4.71718 11.007 1.62401 -8.68378 2.14527e-06
47 1 6.28966 9.43453 0.0972674 -7.40181 2.30699e-06
48 1 7.86205 11.007 1.62399 -8.68378 1.81034e-06
49 1 9.43453 9.43452 0.0972802 -7.40181 1.68409e-06
50 1 11.0069 11.007 1.62402 -8.68378 1.39255e-06
51 1 12.5794 9.43453 0.0973167 -7.40183 9.81938e-07
52 1 14.1518 11.007 1.62408 -8.68378 8.65803e-07
53 1 15.7242 9.43453 0.0973495 -7.40184 7.21214e-07
54 1 17.2966 11.007 1.62412 -8.68379 7.66451e-07
55 1 18.869 9.43453 0.0973527 -7.40184 1.14678e-06
56 1 20.4414 11.007 1.62411 -8.68379 1.44743e-06
57 1 -5.71485e-05 12.5794 0.0973245 -7.40183 1.9244e-06
58 1 1.57234 14.1518 1.62406 -8.68379 2.49058e-06
59 1 3.14479 12.5794 0.0972869 -7.40181 2.42636e-06
60 1 4.71719 14.1518 1.62401 -8.68378 2.42995e-06
61 1 6.28966 12.5794 0.0972674 -7.40181 2.30699e-06
62 1 7.86206 14.1518 1.624 -8.68378 1.95092e-06
63 1 9.43453 12.5794 0.0972802 -7.40181 1.68409e-06
64 1 11.0069 14.1518 1.62403 -8.68378 1.42096e-06
65 1 12.5794 12.5794 0.0973167 -7.40183 9.81938e-07
66 1 14.1518 14.1518 1.62409 -8.68378 9.46048e-07
67 1 15.7242 12.5794 0.0973495 -7.40184 7.21214e-07
68 1 17.2966 14.1518 1.62412 -8.68379 1.00823e-06
69 1 18.869 12.5794 0.0973527 -7.40184 1.14678e-06
70 1 20.4414 14.1518 1.62411 -8.68379 1.79819e-06
71 1 -4.81685e-05 15.7242 0.0973119 -7.40182 2.4588e-06
72 1 1.57235 17.2966 1.62404 -8.68379 3.41152e-06
73 1 3.1448 15.7242 0.0972792 -7.40181 2.89959e-06
74 1 4.71721 17.2966 1.62401 -8.68378 3.22225e-06
75 1 6.28967 15.7242 0.097268 -7.4018 2.6949e-06
76 1 7.86207 17.2967 1.62402 -8.68378 2.49379e-06
77 1 9.43454 15.7242 0.0972866 -7.40181 2.0083e-06
78 1 11.0069 17.2967 1.62405 -8.68378 1.76922e-06
79 1 12.5794 15.7242 0.0973214 -7.40183 1.32811e-06
80 1 14.1518 17.2967 1.6241 -8.68379 1.39579e-06
81 1 15.7242 15.7242 0.0973461 -7.40184 1.16988e-06
82 1 17.2966 17.2966 1.62411 -8.68379 1.7487e-06
83 1 18.869 15.7242 0.0973418 -7.40183 1.68001e-06
84 1 20.4414 17.2966 1.62409 -8.68379 2.71868e-06
85 1 -3.69696e-05 18.8691 0.0972962 -7.40181 3.11845e-06
86 1 1.57236 20.4415 1.62403 -8.68379 4.26515e-06
87 1 3.14482 18.8691 0.0972697 -7.4018 3.48944e-06
88 1 4.71722 20.4415 1.62401 -8.68378 4.00968e-06
89 1 6.28969 18.8691 0.0972685 -7.4018 3.20059e-06
90 1 7.86209 20.4415 1.62403 -8.68378 3.15505e-06
91 1 9.43456 18.8691 0.0972937 -7.40182 2.45867e-06
92 1 11.0069 20.4415 1.62407 -8.68379 2.3316e-06
93 1 12.5794 18.8691 0.0973262 -7.40183 1.81123e-06
94 1 14.1518 20.4415 1.62411 -8.68379 2.02515e-06
95 1 15.7242 18.8691 0.0973415 -7.40183 1.76155e-06
96 1 17.2966 20.4415 1.62411 -8.68379 2.53953e-06
97 1 18.869 18.8691 0.0973282 -7.40183 2.35114e-06
98 1 20.4414 20.4415 1.62407 -8.68379 3.58907e-06
99 1 -9.70276e-05 3.57838e-16 3.15417 -8.93807 4.32541e-06
100 1 1.57224 1.57241 4.74345 -8.90301 4.80667e-06
101 1 3.14474 2.37267e-17 3.15413 -8.93807 4.55108e-06
102 1 4.71708 1.5724 4.74341 -8.90301 4.57359e-06
103 1 6.2896 6.25906e-16 3.15412 -8.93807 3.87649e-06
104 1 7.86195 1.5724 4.74342 -8.90301 3.66007e-06
105 1 9.43447 1.34582e-15 3.15416 -8.93807 2.95707e-06
106 1 11.0068 1.5724 4.74347 -8.90301 2.77758e-06
107 1 12.5793 1.19397e-15 3.1542 -8.93806 2.3357e-06
108 1 14.1517 1.5724 4.74352 -8.90301 2.31666e-06
109 1 15.7242 1.25096e-15 3.15423 -8.93806 2.39933e-06
110 1 17.2965 1.57241 4.74353 -8.90301 2.72274e-06
111 1 18.869 1.98024e-16 3.15421 -8.93806 3.28559e-06
112 1 20.4413 1.57241 4.7435 -8.90301 3.92032e-06
113 1 -0.000103808 3.14483 3.15417 -8.93807 3.7598e-06
114 1 1.57222 4.71724 4.74345 -8.90301 3.66164e-06
115 1 3.14473 3.14483 3.15413 -8.93807 4.00104e-06
116 1 4.71705 4.71723 4.7434 -8.90301 3.51774e-06
117 1 6.28959 3.14482 3.15412 -8.93807 3.37955e-06
118 1 7.86192 4.71721 4.74338 -8.90301 2.83553e-06
119 1 9.43446 3.14482 3.15414 -8.93807 2.54502e-06
120 1 11.0068 4.71721 4.74342 -8.90301 2.17892e-06
121 1 12.5793 3.14482 3.15419 -8.93807 1.95109e-06
122 1 14.1517 4.71722 4.74348 -8.90301 1.67182e-06
123 1 15.7242 3.14482 3.15422 -8.93806 1.94081e-06
124 1 17.2965 4.71723 4.74352 -8.90301 1.81089e-06
125 1 18.869 3.14483 3.15421 -8.93806 2.74337e-06
126 1 20.4413 4.71724 4.74351 -8.90301 2.81123e-06
127 1 -0.000119032 6.28967 3.15419 -8.93807 2.65292e-06
128 1 1.57219 7.86209 4.74345 -8.90301 2.50815e-06
129 1 3.14471 6.28967 3.15413 -8.93807 2.93885e-06
130 1 4.71702 7.86207 4.74337 -8.90301 2.53604e-06
131 1 6.28956 6.28966 3.15409 -8.93808 2.50296e-06
132 1 7.86189 7.86206 4.74332 -8.90302 2.27384e-06
133 1 9.43444 6.28965 3.1541 -8.93808 1.94336e-06
134 1 11.0068 7.86206 4.74334 -8.90302 2.00859e-06
135 1 12.5793 6.28965 3.15416 -8.93808 1.44199e-06
136 1 14.1517 7.86207 4.74343 -8.90302 1.42807e-06
137 1 15.7242 6.28966 3.15421 -8.93807 1.21216e-06
138 1 17.2965 7.86208 4.7435 -8.90301 1.10873e-06
139 1 18.869 6.28967 3.15422 -8.93806 1.74058e-06
140 1 20.4413 7.86209 4.74351 -8.90301 1.7412e-06
141 1 -0.000131229 9.43452 3.1542 -8.93807 1.92947e-06
142 1 1.57218 11.007 4.74345 -8.90301 2.09292e-06
143 1 3.14469 9.43452 3.15413 -8.93807 2.26126e-06
144 1 4.717 11.007 4.74336 -8.90301 2.21914e-06
145 1 6.28954 9.43452 3.15408 -8.93809 2.04098e-06
146 1 7.86187 11.007 4.74329 -8.90302 2.19129e-06
147 1 9.43442 9.43451 3.15407 -8.93809 1.78657e-06
148 1 11.0068 11.007 4.74331 -8.90303 2.13963e-06
149 1 12.5793 9.43451 3.15412 -8.93809 1.39006e-06
150 1 14.1517 11.007 4.7434 -8.90302 1.52006e-06
151 1 15.7241 9.43452 3.1542 -8.93807 9.29722e-07
152 1 17.2965 11.007 4.7435 -8.90301 9.51307e-07
153 1 18.869 9.43452 3.15423 -8.93806 1.15182e-06
154 1 20.4413 11.007 4.74352 -8.90301 1.37664e-06
155 1 -0.000131229 12.5794 3.1542 -8.93807 1.92947e-06
156 1 1.57219 14.1518 4.74345 -8.90301 2.50815e-06
157 1 3.14469 12.5794 3.15413 -8.93807 2.26126e-06
158 1 4.71702 14.1518 4.74337 -8.90301 2.53604e-06
159 1 6.28954 12.5794 3.15408 -8.93809 2.04098e-06
160 1 7.86189 14.1518 4.74332 -8.90302 2.27384e-06
161 1 9.43442 12.5794 3.15407 -8.93809 1.78657e-06
162 1 11.0068 14.1518 4.74334 -8.90302 2.00859e-06
163 1 12.5793 12.5794 3.15412 -8.93809 1.39006e-06
164 1 14.1517 14.1518 4.74343 -8.90302 1.42807e-06
165 1 15.7241 12.5794 3.1542 -8.93807 9.29722e-07
166 1 17.2965 14.1518 4.7435 -8.90301 1.10873e-06
167 1 18.869 12.5794 3.15423 -8.93806 1.15182e-06
168 1 20.4413 14.1518 4.74351 -8.90301 1.7412e-06
169 1 -0.000119032 15.7242 3.15419 -8.93807 2.65292e-06
170 1 1.57222 17.2967 4.74345 -8.90301 3.66164e-06
171 1 3.14471 15.7242 3.15413 -8.93807 2.93885e-06
172 1 4.71705 17.2967 4.7434 -8.90301 3.51774e-06
173 1 6.28956 15.7242 3.15409 -8.93808 2.50296e-06
174 1 7.86192 17.2967 4.74338 -8.90301 2.83553e-06
175 1 9.43444 15.7243 3.1541 -8.93808 1.94336e-06
176 1 11.0068 17.2967 4.74342 -8.90301 2.17892e-06
177 1 12.5793 15.7242 3.15416 -8.93808 1.44199e-06
178 1 14.1517 17.2967 4.74348 -8.90301 1.67182e-06
179 1 15.7242 15.7242 3.15421 -8.93807 1.21216e-06
180 1 17.2965 17.2967 4.74352 -8.90301 1.81089e-06
181 1 18.869 15.7242 3.15422 -8.93806 1.74058e-06
182 1 20.4413 17.2967 4.74351 -8.90301 2.81123e-06
183 1 -0.000103808 18.8691 3.15417 -8.93807 3.7598e-06
184 1 1.57224 20.4415 4.74345 -8.90301 4.80667e-06
185 1 3.14473 18.8691 3.15413 -8.93807 4.00104e-06
186 1 4.71708 20.4415 4.74341 -8.90301 4.57359e-06
187 1 6.28959 18.8691 3.15412 -8.93807 3.37955e-06
188 1 7.86195 20.4415 4.74342 -8.90301 3.66007e-06
189 1 9.43446 18.8691 3.15414 -8.93807 2.54502e-06
190 1 11.0068 20.4415 4.74347 -8.90301 2.77758e-06
191 1 12.5793 18.8691 3.15419 -8.93807 1.95109e-06
192 1 14.1517 20.4415 4.74352 -8.90301 2.31666e-06
193 1 15.7242 18.8691 3.15422 -8.93806 1.94081e-06
194 1 17.2965 20.4415 4.74353 -8.90301 2.72274e-06
195 1 18.869 18.8691 3.15421 -8.93806 2.74337e-06
196 1 20.4413 20.4415 4.7435 -8.90301 3.92032e-06
197 1 -0.000290786 -5.09625e-16 6.30524 -8.88812 5.12277e-06
198 1 1.57197 1.5724 7.87444 -8.90467 6.02879e-06
199 1 3.14453 -2.20276e-16 6.30518 -8.88812 5.75916e-06
200 1 4.7168 1.57238 7.87438 -8.90467 6.0812e-06
201 1 6.2894 5.83206e-16 6.30515 -8.88812 5.09746e-06
202 1 7.86169 1.57237 7.87436 -8.90467 4.9917e-06
203 1 9.43428 7.73178e-16 6.30518 -8.88812 3.95058e-06
204 1 11.0066 1.57237 7.87442 -8.90467 3.71909e-06
205 1 12.5792 5.43695e-16 6.30524 -8.88812 2.9377e-06
206 1 14.1515 1.57237 7.87449 -8.90467 2.67592e-06
207 1 15.724 4.0182e-16 6.30529 -8.88811 2.61547e-06
208 1 17.2963 1.57239 7.87454 -8.90467 2.75166e-06
209 1 18.8688 -8.61334e-16 6.30529 -8.88811 3.56278e-06
210 1 20.4411 1.5724 7.87451 -8.90467 4.38972e-06
211 1 -0.000304287 3.14482 6.30524 -8.88812 4.277e-06
212 1 1.57192 4.71721 7.87442 -8.90467 4.17651e-06
213 1 3.14451 3.1448 6.30517 -8.88812 4.92259e-06
214 1 4.71674 4.71718 7.87431 -8.90467 4.37351e-06
215 1 6.28937 3.14478 6.30512 -8.88812 4.37393e-06
216 1 7.86162 4.71714 7.87424 -8.90467 3.79311e-06
217 1 9.43426 3.14477 6.30514 -8.88812 3.42755e-06
218 1 11.0066 4.71712 7.87427 -8.90467 3.1139e-06
219 1 12.5791 3.14477 6.3052 -8.88812 2.51785e-06
220 1 14.1515 4.71715 7.87438 -8.90467 2.10316e-06
221 1 15.724 3.14479 6.30526 -8.88811 2.0691e-06
222 1 17.2963 4.71719 7.87449 -8.90466 1.61036e-06
223 1 18.8688 3.14481 6.30528 -8.88811 2.81443e-06
224 1 20.441 4.71722 7.8745 -8.90467 2.71518e-06
225 1 -0.000334557 6.28965 6.30523 -8.88812 2.68755e-06
226 1 1.57186 7.86206 7.8744 -8.90467 2.40647e-06
227 1 3.14446 6.28964 6.30514 -8.88812 3.35954e-06
228 1 4.71666 7.86203 7.87423 -8.90467 2.88325e-06
229 1 6.28931 6.28961 6.30505 -8.88812 3.17393e-06
230 1 7.86154 7.86199 7.87406 -8.90469 3.19758e-06
231 1 9.43422 6.28959 6.30502 -8.88813 2.83068e-06
232 1 11.0065 7.86198 7.87405 -8.9047 3.50594e-06
233 1 12.5791 6.28959 6.30509 -8.88812 2.22283e-06
234 1 14.1515 7.862 7.87422 -8.90469 2.53407e-06
235 1 15.724 6.28962 6.3052 -8.88812 1.40642e-06
236 1 17.2963 7.86204 7.87442 -8.90466 1.08562e-06
237 1 18.8688 6.28964 6.30526 -8.88811 1.54452e-06
238 1 20.441 7.86207 7.87449 -8.90467 1.26629e-06
239 1 -0.000358779 9.43451 6.30523 -8.88812 1.72389e-06
240 1 1.57184 11.007 7.87439 -8.90467 1.81208e-06
241 1 3.14442 9.43451 6.30512 -8.88812 2.42408e-06
242 1 4.71662 11.007 7.87419 -8.90467 2.44994e-06
243 1 6.28926 9.43449 6.30498 -8.88813 2.64008e-06
244 1 7.8615 11.007 7.87397 -8.90471 3.25744e-06
245 1 9.43418 9.43448 6.30491 -8.88815 2.93517e-06
246 1 11.0065 11.007 7.87393 -8.90474 4.09528e-06
247 1 12.5791 9.43448 6.30498 -8.88814 2.63818e-06
248 1 14.1515 11.007 7.87413 -8.9047 3.13572e-06
249 1 15.724 9.4345 6.30514 -8.88812 1.43946e-06
250 1 17.2963 11.007 7.87438 -8.90467 1.17122e-06
251 1 18.8688 9.43451 6.30525 -8.88812 9.36061e-07
252 1 20.441 11.007 7.87448 -8.90467 8.49001e-07
253 1 -0.000358779 12.5794 6.30523 -8.88812 1.72389e-06
254 1 1.57186 14.1518 7.8744 -8.90467 2.40647e-06
255 1 3.14442 12.5794 6.30512 -8.88812 2.42408e-06
256 1 4.71666 14.1519 7.87423 -8.90467 2.88325e-06
257 1 6.28926 12.5794 6.30498 -8.88813 2.64008e-06
258 1 7.86154 14.1519 7.87406 -8.90469 3.19758e-06
259 1 9.43418 12.5794 6.30491 -8.88815 2.93517e-06
260 1 11.0065 14.1519 7.87405 -8.9047 3.50594e-06
261 1 12.5791 12.5794 6.30498 -8.88814 2.63818e-06
262 1 14.1515 14.1519 7.87422 -8.90469 2.53407e-06
263 1 15.724 12.5794 6.30514 -8.88812 1.43946e-06
264 1 17.2963 14.1519 7.87442 -8.90466 1.08562e-06
265 1 18.8688 12.5794 6.30525 -8.88812 9.36061e-07
266 1 20.441 14.1518 7.87449 -8.90467 1.26629e-06
267 1 -0.000334557 15.7242 6.30523 -8.88812 2.68755e-06
268 1 1.57192 17.2967 7.87442 -8.90467 4.17651e-06
269 1 3.14446 15.7243 6.30514 -8.88812 3.35954e-06
270 1 4.71674 17.2967 7.87431 -8.90467 4.37351e-06
271 1 6.28931 15.7243 6.30505 -8.88812 3.17393e-06
272 1 7.86162 17.2968 7.87424 -8.90467 3.79311e-06
273 1 9.43422 15.7243 6.30502 -8.88813 2.83068e-06
274 1 11.0066 17.2968 7.87427 -8.90467 3.1139e-06
275 1 12.5791 15.7243 6.30509 -8.88812 2.22283e-06
276 1 14.1515 17.2968 7.87438 -8.90467 2.10316e-06
277 1 15.724 15.7243 6.3052 -8.88812 1.40642e-06
278 1 17.2963 17.2967 7.87449 -8.90466 1.61036e-06
279 1 18.8688 15.7243 6.30526 -8.88811 1.54452e-06
280 1 20.441 17.2967 7.8745 -8.90467 2.71518e-06
281 1 -0.000304287 18.8691 6.30524 -8.88812 4.277e-06
282 1 1.57197 20.4415 7.87444 -8.90467 6.02879e-06
283 1 3.14451 18.8691 6.30517 -8.88812 4.92259e-06
284 1 4.7168 20.4415 7.87438 -8.90467 6.0812e-06
285 1 6.28937 18.8691 6.30512 -8.88812 4.37393e-06
286 1 7.86169 20.4415 7.87436 -8.90467 4.9917e-06
287 1 9.43426 18.8691 6.30514 -8.88812 3.42755e-06
288 1 11.0066 20.4415 7.87442 -8.90467 3.71909e-06
289 1 12.5791 18.8691 6.3052 -8.88812 2.51785e-06
290 1 14.1515 20.4415 7.87449 -8.90467 2.67592e-06
291 1 15.724 18.8691 6.30526 -8.88811 2.0691e-06
292 1 17.2963 20.4415 7.87454 -8.90467 2.75166e-06
293 1 18.8688 18.8691 6.30528 -8.88811 2.81443e-06
294 1 20.4411 20.4415 7.87451 -8.90467 4.38972e-06
295 1 -0.000608869 -3.77948e-16 9.44282 -8.89866 6.2471e-06
296 1 1.57158 1.5724 11.0109 -8.9001 7.49302e-06
297 1 3.14421 -2.79392e-16 9.44273 -8.89866 7.51163e-06
298 1 4.71642 1.57236 11.0108 -8.90009 7.488e-06
299 1 6.28908 1.00293e-16 9.44268 -8.89865 6.65258e-06
300 1 7.86131 1.57233 11.0108 -8.90009 5.75735e-06
301 1 9.43398 1.51744e-17 9.44271 -8.89865 5.05618e-06
302 1 11.0062 1.57232 11.0109 -8.90009 4.12391e-06
303 1 12.5789 -1.52572e-16 9.4428 -8.89865 3.50144e-06
304 1 14.1511 1.57234 11.011 -8.90009 2.57122e-06
305 1 15.7237 -2.0201e-16 9.44287 -8.89865 2.60499e-06
306 1 17.2959 1.57238 11.0111 -8.90009 2.30218e-06
307 1 18.8685 -6.69512e-16 9.44288 -8.89865 3.71375e-06
308 1 20.4407 1.5724 11.011 -8.9001 4.7581e-06
309 1 -0.000635171 3.1448 9.44281 -8.89866 4.80285e-06
310 1 1.57149 4.7172 11.0109 -8.90009 4.2132e-06
311 1 3.14416 3.14478 9.4427 -8.89865 6.02019e-06
312 1 4.71628 4.71711 11.0107 -8.90006 4.35702e-06
313 1 6.28902 3.14473 9.44261 -8.89865 5.37227e-06
314 1 7.86117 4.71701 11.0105 -8.90007 3.73946e-06
315 1 9.43394 3.1447 9.4426 -8.89865 4.26245e-06
316 1 11.0062 4.71698 11.0105 -8.90007 3.74096e-06
317 1 12.5789 3.1447 9.44269 -8.89865 3.06023e-06
318 1 14.1511 4.71704 11.0107 -8.90006 2.60893e-06
319 1 15.7237 3.14474 9.44281 -8.89864 1.95512e-06
320 1 17.2959 4.71714 11.011 -8.90006 1.04879e-06
321 1 18.8685 3.14479 9.44286 -8.89865 2.57007e-06
322 1 20.4406 4.71721 11.011 -8.90009 2.07938e-06
323 1 -0.000694015 6.28963 9.44279 -8.89865 2.26602e-06
324 1 1.57137 7.86205 11.0109 -8.90009 1.42726e-06
325 1 3.14406 6.28959 9.44263 -8.89865 3.35787e-06
326 1 4.71609 7.86196 11.0105 -8.90007 1.95343e-06
327 1 6.28888 6.28952 9.44241 -8.89864 3.41368e-06
328 1 7.86097 7.86185 11.01 -8.90011 3.38771e-06
329 1 9.43384 6.28946 9.44229 -8.89865 3.76803e-06
330 1 11.0061 7.8618 11.0099 -8.90014 6.16618e-06
331 1 12.5788 6.28947 9.44239 -8.89865 3.5741e-06
332 1 14.1512 7.86187 11.0103 -8.9001 5.6474e-06
333 1 15.7237 6.28954 9.44264 -8.89864 1.83317e-06
334 1 17.296 7.86199 11.0108 -8.90006 1.82653e-06
335 1 18.8685 6.28961 9.44281 -8.89864 9.69353e-07
336 1 20.4406 7.86206 11.011 -8.90009 3.57796e-07
337 1 -0.000741015 9.4345 9.44278 -8.89865 9.39341e-07
338 1 1.57132 11.007 11.0108 -8.90009 6.56723e-07
339 1 3.14397 9.43449 9.44257 -8.89865 1.91749e-06
340 1 4.71601 11.007 11.0104 -8.90007 1.42883e-06
341 1 6.28878 9.43445 9.44223 -8.89865 2.7737e-06
342 1 7.86088 11.007 11.0098 -8.90015 4.02729e-06
343 1 9.43376 9.43441 9.44196 -8.89872 4.68402e-06
344 1 11.006 11.007 11.0095 -8.90036 8.31479e-06
345 1 12.5788 9.43442 9.44207 -8.89872 5.50581e-06
346 1 14.1512 11.007 11.01 -8.90014 8.068e-06
347 1 15.7237 9.43446 9.44247 -8.89865 3.06772e-06
348 1 17.296 11.007 11.0107 -8.90007 2.99993e-06
349 1 18.8685 9.43449 9.44276 -8.89865 6.46577e-07
350 1 20.4406 11.007 11.011 -8.90009 1.66836e-07
351 1 -0.000741015 12.5794 9.44278 -8.89865 9.39341e-07
352 1 1.57137 14.1519 11.0109 -8.90009 1.42726e-06
353 1 3.14397 12.5794 9.44257 -8.89865 1.91749e-06
354 1 4.71609 14.1519 11.0105 -8.90007 1.95343e-06
355 1 6.28878 12.5795 9.44223 -8.89865 2.7737e-06
356 1 7.86097 14.1521 11.01 -8.90011 3.38771e-06
357 1 9.43376 12.5795 9.44196 -8.89872 4.68402e-06
358 1 11.0061 14.1521 11.0099 -8.90014 6.16618e-06
359 1 12.5788 12.5795 9.44207 -8.89872 5.50581e-06
360 1 14.1512 14.152 11.0103 -8.9001 5.6474e-06
361 1 15.7237 12.5794 9.44247 -8.89865 3.06772e-06
362 1 17.296 14.1519 11.0108 -8.90006 1.82653e-06
363 1 18.8685 12.5794 9.44276 -8.89865 6.46577e-07
364 1 20.4406 14.1518 11.011 -8.90009 3.57796e-07
365 1 -0.000694015 15.7243 9.44279 -8.89865 2.26602e-06
366 1 1.57149 17.2967 11.0109 -8.90009 4.2132e-06
367 1 3.14406 15.7243 9.44263 -8.89865 3.35787e-06
368 1 4.71628 17.2968 11.0107 -8.90006 4.35702e-06
369 1 6.28888 15.7244 9.44241 -8.89864 3.41368e-06
370 1 7.86117 17.2969 11.0105 -8.90007 3.73946e-06
371 1 9.43384 15.7244 9.44229 -8.89865 3.76803e-06
372 1 11.0062 17.2969 11.0105 -8.90007 3.74096e-06
373 1 12.5788 15.7244 9.44239 -8.89865 3.5741e-06
374 1 14.1511 17.2969 11.0107 -8.90006 2.60893e-06
375 1 15.7237 15.7244 9.44264 -8.89864 1.83317e-06
376 1 17.2959 17.2968 11.011 -8.90006 1.04879e-06
377 1 18.8685 15.7243 9.44281 -8.89864 9.69353e-07
378 1 20.4406 17.2967 11.011 -8.90009 2.07938e-06
379 1 -0.000635171 18.8691 9.44281 -8.89866 4.80285e-06
380 1 1.57158 20.4415 11.0109 -8.9001 7.49302e-06
381 1 3.14416 18.8691 9.4427 -8.89865 6.02019e-06
382 1 4.71642 20.4415 11.0108 -8.90009 7.488e-06
383 1 6.28902 18.8692 9.44261 -8.89865 5.37227e-06
384 1 7.86131 20.4416 11.0108 -8.90009 5.75735e-06
385 1 9.43394 18.8692 9.4426 -8.89865 4.26245e-06
386 1 11.0062 20.4416 11.0109 -8.90009 4.12391e-06
387 1 12.5789 18.8692 9.44269 -8.89865 3.06023e-06
388 1 14.1511 20.4416 11.011 -8.90009 2.57122e-06
389 1 15.7237 18.8692 9.44281 -8.89864 1.95512e-06
390 1 17.2959 20.4415 11.0111 -8.90009 2.30218e-06
391 1 18.8685 18.8691 9.44286 -8.89865 2.57007e-06
392 1 20.4407 20.4415 11.011 -8.9001 4.7581e-06
393 1 -0.00103713 -8.65626e-17 12.5792 -8.89869 7.62893e-06
394 1 3.14381 -1.50946e-16 12.579 -8.89868 9.30625e-06
395 1 6.28868 -2.98189e-16 12.579 -8.89867 7.3361e-06
396 1 9.43359 -6.32229e-16 12.579 -8.89868 4.94254e-06
397 1 12.5785 -6.687e-16 12.5792 -8.89868 3.17512e-06
398 1 15.7233 -6.62542e-16 12.5793 -8.89867 1.93514e-06
399 1 18.8681 1.59873e-16 12.5793 -8.89868 3.56828e-06
400 1 22.0128 3.14483 12.5792 -8.89868 5.1463e-06
401 1 3.14372 3.14478 12.579 -8.89867 6.61716e-06
402 1 6.28857 3.14467 12.5789 -8.89864 4.96663e-06
403 1 9.4335 3.1446 12.5788 -8.89865 3.65362e-06
404 1 12.5785 3.14462 12.579 -8.89865 2.89746e-06
405 1 15.7233 3.14471 12.5792 -8.89864 1.34313e-06
406 1 18.8681 3.1448 12.5793 -8.89867 1.83203e-06
407 1 22.0127 6.28965 12.5792 -8.89867 1.33951e-06
408 1 3.14352 6.28957 12.5789 -8.89864 2.22704e-06
409 1 6.28827 6.28938 12.5785 -8.89854 1.83843e-06
410 1 9.43329 6.28924 12.5781 -8.8986 3.98337e-06
411 1 12.5784 6.28926 12.5783 -8.8986 6.26152e-06
412 1 15.7234 6.28942 12.5788 -8.89854 3.61954e-06
413 1 18.868 6.2896 12.5792 -8.89864 4.58332e-07
414 1 22.0126 9.43451 12.5791 -8.89868 6.43084e-08
415 1 3.14335 9.43447 12.5788 -8.89865 3.85385e-07
416 1 6.28803 9.43436 12.578 -8.8986 1.58883e-06
417 1 9.43306 9.43424 12.5772 -8.89878 7.6054e-06
418 1 12.5785 9.43425 12.5773 -8.89878 1.2991e-05
419 1 15.7234 9.43438 12.5784 -8.8986 8.99656e-06
420 1 18.868 9.43448 12.5791 -8.89865 1.86851e-06
421 1 22.0126 12.5794 12.5791 -8.89868 6.43084e-08
422 1 3.14335 12.5794 12.5788 -8.89865 3.85385e-07
423 1 6.28803 12.5795 12.578 -8.8986 1.58883e-06
424 1 9.43306 12.5797 12.5772 -8.89878 7.6054e-06
425 1 12.5785 12.5797 12.5773 -8.89878 1.2991e-05
426 1 15.7234 12.5795 12.5784 -8.8986 8.99656e-06
427 1 18.868 12.5794 12.5791 -8.89865 1.86851e-06
428 1 22.0127 15.7243 12.5792 -8.89867 1.33951e-06
429 1 3.14352 15.7243 12.5789 -8.89864 2.22704e-06
430 1 6.28827 15.7245 12.5785 -8.89854 1.83843e-06
431 1 9.43329 15.7247 12.5781 -8.8986 3.98337e-06
432 1 12.5784 15.7246 12.5783 -8.8986 6.26152e-06
433 1 15.7234 15.7245 12.5788 -8.89854 3.61954e-06
434 1 18.868 15.7243 12.5792 -8.89864 4.58332e-07
435 1 22.0128 18.8691 12.5792 -8.89868 5.1463e-06
436 1 3.14372 18.8691 12.579 -8.89867 6.61716e-06
437 1 6.28857 18.8692 12.5789 -8.89864 4.96663e-06
438 1 9.4335 18.8693 12.5788 -8.89865 3.65362e-06
439 1 12.5785 18.8693 12.579 -8.89865 2.89746e-06
440 1 15.7233 18.8692 12.5792 -8.89864 1.34313e-06
441 1 18.8681 18.8691 12.5793 -8.89867 1.83203e-06
442 1 1.57116 1.57244 14.1474 -8.9047 9.24796e-06
443 1 4.71603 1.57239 14.1474 -8.90468 8.08592e-06
444 1 7.8609 1.57232 14.1474 -8.9047 4.66335e-06
445 1 11.0058 1.57231 14.1475 -8.90469 2.99823e-06
446 1 14.1506 1.57235 14.1476 -8.90469 1.66439e-06
447 1 17.2954 1.57242 14.1477 -8.90468 1.42819e-06
448 1 20.4402 1.57245 14.1476 -8.9047 5.28614e-06
449 1 1.571 4.71727 14.1475 -8.90468 4.08128e-06
450 1 4.71579 4.71712 14.1472 -8.90465 2.96423e-06
451 1 7.86062 4.7169 14.1469 -8.90465 1.61171e-06
452 1 11.0057 4.71684 14.1469 -8.90466 3.79838e-06
453 1 14.1507 4.71695 14.1472 -8.90465 3.96296e-06
454 1 17.2954 4.71718 14.1476 -8.90465 9.02122e-07
455 1 20.4401 4.71729 14.1476 -8.90468 1.47463e-06
456 1 1.57079 7.86208 14.1474 -8.90469 7.66047e-07
457 1 4.71541 7.8619 14.1469 -8.90465 1.1556e-07
458 1 7.8601 7.86154 14.1457 -8.9044 3.11138e-06
459 1 11.0055 7.86144 14.1452 -8.90466 1.24432e-05
460 1 14.1509 7.86159 14.1461 -8.90439 1.50515e-05
461 1 17.2955 7.86196 14.1473 -8.90465 6.44614e-06
462 1 20.44 7.8621 14.1476 -8.9047 8.02741e-07
463 1 1.5707 11.007 14.1474 -8.90469 4.28164e-07
464 1 4.71526 11.007 14.1466 -8.90466 1.56652e-07
465 1 7.8599 11.007 14.145 -8.90467 5.801e-06
466 1 11.0054 11.007 14.1438 -8.90675 1.91387e-05
467 1 14.1509 11.007 14.1454 -8.90466 2.28157e-05
468 1 17.2955 11.007 14.1471 -8.90466 1.11015e-05
469 1 20.44 11.007 14.1476 -8.90469 1.9596e-06
470 1 1.57079 14.1518 14.1474 -8.90469 7.66047e-07
471 1 4.71541 14.152 14.1469 -8.90465 1.1556e-07
472 1 7.8601 14.1524 14.1457 -8.9044 3.11138e-06
473 1 11.0055 14.1525 14.1452 -8.90466 1.24432e-05
474 1 14.1509 14.1523 14.1461 -8.90439 1.50515e-05
475 1 17.2955 14.1519 14.1473 -8.90465 6.44614e-06
476 1 20.44 14.1518 14.1476 -8.9047 8.02741e-07
477 1 1.571 17.2966 14.1475 -8.90468 4.08128e-06
478 1 4.71579 17.2968 14.1472 -8.90465 2.96423e-06
479 1 7.86062 17.297 14.1469 -8.90465 1.61171e-06
480 1 11.0057 17.2971 14.1469 -8.90466 3.79838e-06
481 1 14.1507 17.2969 14.1472 -8.90465 3.96296e-06
482 1 17.2954 17.2967 14.1476 -8.90465 9.02122e-07
483 1 20.4401 17.2966 14.1476 -8.90468 1.47463e-06
484 1 1.57116 20.4415 14.1474 -8.9047 9.24796e-06
485 1 4.71603 20.4415 14.1474 -8.90468 8.08592e-06
486 1 7.8609 20.4416 14.1474 -8.9047 4.66335e-06
487 1 11.0058 20.4416 14.1475 -8.90469 2.99823e-06
488 1 14.1506 20.4416 14.1476 -8.90469 1.66439e-06
489 1 17.2954 20.4415 14.1477 -8.90468 1.42819e-06
490 1 20.4402 20.4415 14.1476 -8.9047 5.28614e-06
491 1 22.0124 4.61813e-16 15.7167 -8.88818 9.95616e-06
492 1 1.57083 1.57256 17.2784 -8.90298 1.20509e-05
493 1 3.14349 -2.79372e-16 15.7167 -8.88819 1.13874e-05
494 1 4.71588 1.57259 17.2785 -8.90303 8.75318e-06
495 1 6.28836 -3.98394e-16 15.7167 -8.88817 6.78989e-06
496 1 7.86064 1.57254 17.2786 -8.90311 2.57335e-06
497 1 9.43318 -2.31884e-16 15.7168 -8.8882 3.06514e-06
498 1 11.0053 1.57252 17.2788 -8.9031 1.00519e-06
499 1 12.578 -1.56952e-16 15.717 -8.88819 1.85343e-06
500 1 14.15 1.57258 17.279 -8.9031 6.62541e-07
501 1 15.7227 4.06735e-16 15.7171 -8.88817 1.01167e-06
502 1 17.2946 1.57264 17.2789 -8.90303 1.03249e-06
503 1 18.8675 3.64291e-16 15.7169 -8.88819 3.84714e-06
504 1 20.4396 1.57258 17.2786 -8.90298 6.86501e-06
505 1 22.0123 3.14496 15.7168 -8.88819 6.24853e-06
506 1 1.57071 4.71756 17.2786 -8.90303 6.05774e-06
507 1 3.14339 3.14492 15.7167 -8.88818 7.37991e-06
508 1 4.71579 4.71762 17.2786 -8.90324 3.22532e-06
509 1 6.28822 3.14479 15.7166 -8.88809 3.17631e-06
510 1 7.86028 4.71721 17.2783 -8.90293 1.72483e-07
511 1 9.43305 3.14467 15.7166 -8.88817 1.31279e-06
512 1 11.0051 4.71711 17.2781 -8.90284 5.36386e-06
513 1 12.5779 3.1447 15.7167 -8.88817 2.22321e-06
514 1 14.1499 4.71732 17.2787 -8.90291 8.06509e-06
515 1 15.7227 3.14486 15.717 -8.88809 8.39855e-07
516 1 17.2943 4.71774 17.2791 -8.90323 2.50113e-06
517 1 18.8674 3.14497 15.717 -8.88818 1.41122e-06
518 1 20.4394 4.7176 17.2788 -8.90303 2.51964e-06
519 1 22.0122 6.28979 15.7169 -8.88817 1.92842e-06
520 1 1.57043 7.86227 17.2787 -8.9031 5.05099e-06
521 1 3.14309 6.28969 15.7166 -8.88809 2.06014e-06
522 1 4.71513 7.86209 17.2782 -8.90293 3.83274e-06
523 1 6.28771 6.28937 15.7161 -8.88769 1.83341e-08
524 1 7.85895 7.86104 17.2762 -8.9027 8.91063e-06
525 1 9.43263 6.28901 15.7152 -8.88787 5.10691e-06
526 1 11.0048 7.86106 17.2745 -8.90498 3.01127e-05
527 1 12.5779 6.28906 15.7155 -8.88788 1.33807e-05
528 1 14.1507 7.86114 17.2768 -8.90266 3.95991e-05
529 1 15.7228 6.28946 15.7166 -8.88771 9.90518e-06
530 1 17.2945 7.86219 17.2788 -8.90291 1.9334e-05
531 1 18.8673 6.28976 15.717 -8.88809 2.01936e-06
532 1 20.4392 7.86231 17.279 -8.9031 5.87753e-06
533 1 22.012 9.43456 15.7169 -8.88819 2.5633e-06
534 1 1.57029 11.007 17.2787 -8.9031 6.97233e-06
535 1 3.1428 9.43451 15.7165 -8.88817 1.55921e-06
536 1 4.71486 11.007 17.2777 -8.90285 6.87823e-06
537 1 6.28716 9.43428 15.7151 -8.88787 2.74734e-06
538 1 7.8588 11.007 17.2742 -8.90501 1.77863e-05
539 1 9.43187 9.4337 15.7123 -8.88713 1.68601e-05
540 1 11.0047 11.007 17.2671 -8.91711 4.81515e-05
541 1 12.5783 9.43372 15.7126 -8.88713 3.29431e-05
542 1 14.1506 11.007 17.2748 -8.90495 5.97993e-05
543 1 15.723 9.43432 15.7157 -8.88788 2.63642e-05
544 1 17.2945 11.007 17.2784 -8.90284 3.20498e-05
545 1 18.8673 9.43454 15.7169 -8.88817 8.6884e-06
546 1 20.4391 11.007 17.279 -8.90309 1.05663e-05
547 1 22.012 12.5793 15.7169 -8.88819 2.5633e-06
548 1 1.57043 14.1516 17.2787 -8.9031 5.05099e-06
549 1 3.1428 12.5794 15.7165 -8.88817 1.55921e-06
550 1 4.71513 14.1518 17.2782 -8.90293 3.83274e-06
551 1 6.28716 12.5796 15.7151 -8.88787 2.74734e-06
552 1 7.85895 14.1529 17.2762 -8.9027 8.91063e-06
553 1 9.43187 12.5802 15.7123 -8.88713 1.68601e-05
554 1 11.0048 14.1528 17.2745 -8.90498 3.01127e-05
555 1 12.5783 12.5802 15.7126 -8.88713 3.29431e-05
556 1 14.1507 14.1528 17.2768 -8.90266 3.95991e-05
557 1 15.723 12.5796 15.7157 -8.88788 2.63642e-05
558 1 17.2945 14.1517 17.2788 -8.90291 1.9334e-05
559 1 18.8673 12.5794 15.7169 -8.88817 8.6884e-06
560 1 20.4392 14.1516 17.279 -8.9031 5.87753e-06
561 1 22.0122 15.7241 15.7169 -8.88817 1.92842e-06
562 1 1.57071 17.2963 17.2786 -8.90303 6.05774e-06
563 1 3.14309 15.7242 15.7166 -8.88809 2.06014e-06
564 1 4.71579 17.2963 17.2786 -8.90324 3.22532e-06
565 1 6.28771 15.7245 15.7161 -8.88769 1.83341e-08
566 1 7.86028 17.2967 17.2783 -8.90293 1.72483e-07
567 1 9.43263 15.7249 15.7152 -8.88787 5.10691e-06
568 1 11.0051 17.2968 17.2781 -8.90284 5.36386e-06
569 1 12.5779 15.7248 15.7155 -8.88788 1.33807e-05
570 1 14.1499 17.2966 17.2787 -8.90291 8.06509e-06
571 1 15.7228 15.7244 15.7166 -8.88771 9.90518e-06
572 1 17.2943 17.2962 17.2791 -8.90323 2.50113e-06
573 1 18.8673 15.7241 15.717 -8.88809 2.01936e-06
574 1 20.4394 17.2963 17.2788 -8.90303 2.51964e-06
575 1 22.0123 18.8689 15.7168 -8.88819 6.24853e-06
576 1 1.57083 20.4413 17.2784 -8.90298 1.20509e-05
577 1 3.14339 18.869 15.7167 -8.88818 7.37991e-06
578 1 4.71588 20.4413 17.2785 -8.90303 8.75318e-06
579 1 6.28822 18.8691 15.7166 -8.88809 3.17631e-06
580 1 7.86064 20.4414 17.2786 -8.90311 2.57335e-06
581 1 9.43305 18.8692 15.7166 -8.88817 1.31279e-06
582 1 11.0053 20.4414 17.2788 -8.9031 1.00519e-06
583 1 12.5779 18.8692 15.7167 -8.88817 2.22321e-06