ITEM: TIMESTEP
172
ITEM: NUMBER OF ATOMS
736
ITEM: BOX BOUNDS pp pp pp
0.0000000000000000e+00 2.2013900999999997e+01
0.0000000000000000e+00 2.2013900999999997e+01
0.0000000000000000e+00 5.3462330999999999e+01
ITEM: ATOMS id type x y z c_pot c_ke
1 1 -0.000227914 1.18594e-15 0.0974925 -7.40185 5.58747e-07
2 1 1.57215 1.57241 1.62425 -8.68379 6.43246e-07
3 1 3.14459 1.43917e-15 0.0974633 -7.40184 6.64184e-07
4 1 4.71698 1.5724 1.62421 -8.68379 6.66716e-07
5 1 6.28944 3.24733e-16 0.0974331 -7.40183 6.84894e-07
6 1 7.86184 1.5724 1.62417 -8.68378 6.08676e-07
7 1 9.43432 1.63892e-16 0.0974245 -7.40183 6.0899e-07
8 1 11.0067 1.5724 1.62418 -8.68378 5.20853e-07
9 1 12.5792 6.30332e-16 0.097444 -7.40183 4.90499e-07
10 1 14.1516 1.5724 1.62422 -8.68378 4.4751e-07
11 1 15.724 9.49999e-16 0.0974769 -7.40185 4.16334e-07
12 1 17.2964 1.5724 1.62426 -8.68379 4.45581e-07
13 1 18.8689 1.32199e-15 0.0974984 -7.40185 4.46501e-07
14 1 20.4412 1.57241 1.62428 -8.68379 5.37633e-07
15 1 -0.000231172 3.14482 0.097482 -7.40185 5.24783e-07
16 1 1.57214 4.71723 1.62422 -8.68379 5.53492e-07
17 1 3.14459 3.14481 0.09745 -7.40184 6.31114e-07
18 1 4.71697 4.71722 1.62416 -8.68378 5.86012e-07
19 1 6.28944 3.1448 0.0974138 -7.40182 6.57573e-07
20 1 7.86183 4.71721 1.62411 -8.68378 5.49261e-07
21 1 9.43432 3.1448 0.0974006 -7.40182 5.88452e-07
22 1 11.0067 4.71721 1.62411 -8.68378 4.80207e-07
23 1 12.5792 3.1448 0.0974204 -7.40182 4.72486e-07
24 1 14.1516 4.71722 1.62416 -8.68378 4.06571e-07
25 1 15.724 3.14481 0.0974582 -7.40184 3.9426e-07
26 1 17.2964 4.71722 1.62422 -8.68378 3.85306e-07
27 1 18.8689 3.14481 0.0974857 -7.40185 4.17213e-07
28 1 20.4412 4.71723 1.62425 -8.68379 4.56044e-07
29 1 -0.000238493 6.28965 0.0974587 -7.40184 4.52382e-07
30 1 1.57213 7.86208 1.62419 -8.68378 4.62381e-07
31 1 3.14457 6.28965 0.0974202 -7.40182 5.60716e-07
32 1 4.71695 7.86207 1.62411 -8.68378 5.07283e-07
33 1 6.28942 6.28964 0.0973701 -7.4018 6.00747e-07
34 1 7.86181 7.86207 1.62403 -8.68377 5.00026e-07
35 1 9.4343 6.28963 0.097346 -7.4018 5.47722e-07
36 1 11.0067 7.86206 1.62402 -8.68377 4.57057e-07
37 1 12.5792 6.28963 0.0973663 -7.4018 4.37826e-07
38 1 14.1516 7.86207 1.62408 -8.68377 3.83257e-07
39 1 15.724 6.28964 0.0974159 -7.40182 3.50087e-07
40 1 17.2964 7.86207 1.62417 -8.68378 3.35451e-07
41 1 18.8689 6.28965 0.0974569 -7.40184 3.55978e-07
42 1 20.4412 7.86208 1.62421 -8.68378 3.76562e-07
43 1 -0.000244363 9.43451 0.0974401 -7.40183 3.98239e-07
44 1 1.57212 11.007 1.62417 -8.68378 4.29261e-07
45 1 3.14456 9.43451 0.0973963 -7.40181 5.08175e-07
46 1 4.71694 11.007 1.62408 -8.68377 4.80069e-07
47 1 6.28941 9.43451 0.0973348 -7.40179 5.59741e-07
48 1 7.86181 11.007 1.62399 -8.68377 4.86997e-07
49 1 9.4343 9.4345 0.0973013 -7.40178 5.20483e-07
50 1 11.0067 11.007 1.62398 -8.68377 4.56592e-07
51 1 12.5792 9.4345 0.0973221 -7.40179 4.15851e-07
52 1 14.1516 11.007 1.62404 -8.68377 3.82781e-07
53 1 15.7241 9.43451 0.0973817 -7.40181 3.20088e-07
54 1 17.2964 11.007 1.62414 -8.68378 3.22287e-07
55 1 18.8689 9.43451 0.0974339 -7.40183 3.11444e-07
56 1 20.4412 11.007 1.6242 -8.68378 3.49127e-07
57 1 -0.000244363 12.5794 0.0974401 -7.40183 3.98239e-07
58 1 1.57213 14.1518 1.62419 -8.68378 4.62381e-07
59 1 3.14456 12.5794 0.0973963 -7.40181 5.08175e-07
60 1 4.71695 14.1518 1.62411 -8.68378 5.07283e-07
61 1 6.28941 12.5794 0.0973348 -7.40179 5.59741e-07
62 1 7.86181 14.1518 1.62403 -8.68377 5.00026e-07
63 1 9.4343 12.5794 0.0973013 -7.40178 5.20483e-07
64 1 11.0067 14.1518 1.62402 -8.68377 4.57057e-07
65 1 12.5792 12.5794 0.0973221 -7.40179 4.15851e-07
66 1 14.1516 14.1518 1.62408 -8.68377 3.83257e-07
67 1 15.7241 12.5794 0.0973817 -7.40181 3.20088e-07
68 1 17.2964 14.1518 1.62417 -8.68378 3.35451e-07
69 1 18.8689 12.5794 0.0974339 -7.40183 3.11444e-07
70 1 20.4412 14.1518 1.62421 -8.68378 3.76562e-07
71 1 -0.000238493 15.7242 0.0974587 -7.40184 4.52382e-07
72 1 1.57214 17.2967 1.62422 -8.68379 5.53492e-07
73 1 3.14457 15.7243 0.0974202 -7.40182 5.60716e-07
74 1 4.71697 17.2967 1.62416 -8.68378 5.86012e-07
75 1 6.28942 15.7243 0.0973701 -7.4018 6.00747e-07
76 1 7.86183 17.2967 1.62411 -8.68378 5.49261e-07
77 1 9.4343 15.7243 0.097346 -7.4018 5.47722e-07
78 1 11.0067 17.2967 1.62411 -8.68378 4.80207e-07
79 1 12.5792 15.7243 0.0973663 -7.4018 4.37826e-07
80 1 14.1516 17.2967 1.62416 -8.68378 4.06571e-07
81 1 15.724 15.7243 0.0974159 -7.40182 3.50087e-07
82 1 17.2964 17.2967 1.62422 -8.68378 3.85306e-07
83 1 18.8689 15.7243 0.0974569 -7.40184 3.55978e-07
84 1 20.4412 17.2967 1.62425 -8.68379 4.56044e-07
85 1 -0.000231172 18.8691 0.097482 -7.40185 5.24783e-07
86 1 1.57215 20.4415 1.62425 -8.68379 6.43246e-07
87 1 3.14459 18.8691 0.09745 -7.40184 6.31114e-07
88 1 4.71698 20.4415 1.62421 -8.68379 6.66716e-07
89 1 6.28944 18.8691 0.0974138 -7.40182 6.57573e-07
90 1 7.86184 20.4415 1.62417 -8.68378 6.08676e-07
91 1 9.43432 18.8691 0.0974006 -7.40182 5.88452e-07
92 1 11.0067 20.4415 1.62418 -8.68378 5.20853e-07
93 1 12.5792 18.8691 0.0974204 -7.40182 4.72486e-07
94 1 14.1516 20.4415 1.62422 -8.68378 4.4751e-07
95 1 15.724 18.8691 0.0974582 -7.40184 3.9426e-07
96 1 17.2964 20.4415 1.62426 -8.68379 4.45581e-07
97 1 18.8689 18.8691 0.0974857 -7.40185 4.17213e-07
98 1 20.4412 20.4415 1.62428 -8.68379 5.37633e-07
99 1 -0.000308807 7.83845e-16 3.15439 -8.93806 5.95063e-07
100 1 1.57201 1.5724 4.74367 -8.90301 5.83789e-07
101 1 3.14451 1.01159e-16 3.15435 -8.93806 6.45682e-07
102 1 4.71683 1.5724 4.74361 -8.90301 5.82899e-07
103 1 6.28935 -4.90759e-16 3.1543 -8.93807 6.0914e-07
104 1 7.86169 1.57239 4.74355 -8.90301 5.23636e-07
105 1 9.43422 -6.29073e-16 3.15428 -8.93807 5.37745e-07
106 1 11.0066 1.57239 4.74355 -8.90301 4.64444e-07
107 1 12.5791 3.62761e-16 3.1543 -8.93807 4.73361e-07
108 1 14.1515 1.57239 4.7436 -8.90301 4.20168e-07
109 1 15.724 1.2847e-15 3.15436 -8.93806 4.44979e-07
110 1 17.2963 1.5724 4.74367 -8.90301 4.23539e-07
111 1 18.8688 1.02324e-15 3.15439 -8.93806 4.94536e-07
112 1 20.4411 1.5724 4.7437 -8.90301 5.02032e-07
113 1 -0.000312584 3.14481 3.15437 -8.93806 5.41017e-07
114 1 1.572 4.71722 4.74363 -8.90301 4.81434e-07
115 1 3.1445 3.14481 3.15432 -8.93806 5.9141e-07
116 1 4.71681 4.71721 4.74354 -8.90301 4.89223e-07
117 1 6.28934 3.1448 3.15426 -8.93807 5.63552e-07
118 1 7.86167 4.71719 4.74346 -8.90301 4.53985e-07
119 1 9.43421 3.1448 3.15423 -8.93808 5.04607e-07
120 1 11.0066 4.71718 4.74344 -8.90301 4.17889e-07
121 1 12.5791 3.1448 3.15426 -8.93807 4.46633e-07
122 1 14.1515 4.71719 4.74351 -8.90301 3.75737e-07
123 1 15.724 3.1448 3.15432 -8.93807 4.12582e-07
124 1 17.2963 4.71721 4.7436 -8.90301 3.58021e-07
125 1 18.8688 3.14481 3.15437 -8.93806 4.49637e-07
126 1 20.4411 4.71722 4.74366 -8.90301 4.1105e-07
127 1 -0.000321062 6.28965 3.15433 -8.93806 4.39322e-07
128 1 1.57198 7.86207 4.74357 -8.90301 3.81896e-07
129 1 3.14448 6.28965 3.15427 -8.93807 4.88953e-07
130 1 4.71679 7.86206 4.74345 -8.90301 4.01454e-07
131 1 6.28932 6.28963 3.15418 -8.93808 4.82342e-07
132 1 7.86165 7.86205 4.74333 -8.90301 3.99415e-07
133 1 9.4342 6.28963 3.15413 -8.93809 4.5393e-07
134 1 11.0066 7.86204 4.74329 -8.90302 3.95354e-07
135 1 12.5791 6.28963 3.15416 -8.93809 4.11772e-07
136 1 14.1515 7.86205 4.74338 -8.90301 3.56429e-07
137 1 15.724 6.28964 3.15424 -8.93808 3.64059e-07
138 1 17.2963 7.86206 4.74352 -8.90301 3.09887e-07
139 1 18.8688 6.28965 3.15432 -8.93807 3.70568e-07
140 1 20.4411 7.86207 4.7436 -8.90301 3.27625e-07
141 1 -0.000327851 9.43451 3.1543 -8.93807 3.77501e-07
142 1 1.57197 11.007 4.74354 -8.90301 3.47626e-07
143 1 3.14447 9.43451 3.15423 -8.93808 4.2629e-07
144 1 4.71678 11.007 4.74341 -8.90301 3.72771e-07
145 1 6.28931 9.43451 3.15411 -8.93809 4.38466e-07
146 1 7.86164 11.007 4.74327 -8.90302 3.86675e-07
147 1 9.43419 9.4345 3.15404 -8.93811 4.37107e-07
148 1 11.0066 11.007 4.74323 -8.90302 3.98026e-07
149 1 12.5791 9.4345 3.15407 -8.93811 4.09027e-07
150 1 14.1515 11.007 4.74332 -8.90302 3.60714e-07
151 1 15.724 9.43451 3.15418 -8.93809 3.49399e-07
152 1 17.2963 11.007 4.74348 -8.90301 3.00417e-07
153 1 18.8688 9.43451 3.15428 -8.93807 3.28945e-07
154 1 20.4411 11.007 4.74357 -8.90301 3.01197e-07
155 1 -0.000327851 12.5794 3.1543 -8.93807 3.77501e-07
156 1 1.57198 14.1518 4.74357 -8.90301 3.81896e-07
157 1 3.14447 12.5794 3.15423 -8.93808 4.2629e-07
158 1 4.71679 14.1518 4.74345 -8.90301 4.01454e-07
159 1 6.28931 12.5794 3.15411 -8.93809 4.38466e-07
160 1 7.86165 14.1519 4.74333 -8.90301 3.99415e-07
161 1 9.43419 12.5794 3.15404 -8.93811 4.37107e-07
162 1 11.0066 14.1519 4.74329 -8.90302 3.95354e-07
163 1 12.5791 12.5794 3.15407 -8.93811 4.09027e-07
164 1 14.1515 14.1519 4.74338 -8.90301 3.56429e-07
165 1 15.724 12.5794 3.15418 -8.93809 3.49399e-07
166 1 17.2963 14.1518 4.74352 -8.90301 3.09887e-07
167 1 18.8688 12.5794 3.15428 -8.93807 3.28945e-07
168 1 20.4411 14.1518 4.7436 -8.90301 3.27625e-07
169 1 -0.000321062 15.7243 3.15433 -8.93806 4.39322e-07
170 1 1.572 17.2967 4.74363 -8.90301 4.81434e-07
171 1 3.14448 15.7243 3.15427 -8.93807 4.88953e-07
172 1 4.71681 17.2967 4.74354 -8.90301 4.89223e-07
173 1 6.28932 15.7243 3.15418 -8.93808 4.82342e-07
174 1 7.86167 17.2967 4.74346 -8.90301 4.53985e-07
175 1 9.4342 15.7243 3.15413 -8.93809 4.5393e-07
176 1 11.0066 17.2967 4.74344 -8.90301 4.17889e-07
177 1 12.5791 15.7243 3.15416 -8.93809 4.11772e-07
178 1 14.1515 17.2967 4.74351 -8.90301 3.75737e-07
179 1 15.724 15.7243 3.15424 -8.93808 3.64059e-07
180 1 17.2963 17.2967 4.7436 -8.90301 3.58021e-07
181 1 18.8688 15.7243 3.15432 -8.93807 3.70568e-07
182 1 20.4411 17.2967 4.74366 -8.90301 4.1105e-07
183 1 -0.000312584 18.8691 3.15437 -8.93806 5.41017e-07
184 1 1.57201 20.4415 4.74367 -8.90301 5.83789e-07
185 1 3.1445 18.8691 3.15432 -8.93806 5.9141e-07
186 1 4.71683 20.4415 4.74361 -8.90301 5.82899e-07
187 1 6.28934 18.8691 3.15426 -8.93807 5.63552e-07
188 1 7.86169 20.4415 4.74355 -8.90301 5.23636e-07
189 1 9.43421 18.8691 3.15423 -8.93808 5.04607e-07
190 1 11.0066 20.4415 4.74355 -8.90301 4.64444e-07
191 1 12.5791 18.8691 3.15426 -8.93807 4.46633e-07
192 1 14.1515 20.4415 4.7436 -8.90301 4.20168e-07
193 1 15.724 18.8691 3.15432 -8.93807 4.12582e-07
194 1 17.2963 20.4415 4.74367 -8.90301 4.23539e-07
195 1 18.8688 18.8691 3.15437 -8.93806 4.49637e-07
196 1 20.4411 20.4415 4.7437 -8.90301 5.02032e-07
197 1 -0.000509863 -3.83346e-16 6.30546 -8.88811 5.0766e-07
198 1 1.57174 1.57239 7.87467 -8.90467 4.63551e-07
199 1 3.14429 -2.90809e-16 6.3054 -8.88811 5.64984e-07
200 1 4.71655 1.57237 7.87457 -8.90467 4.73694e-07
201 1 6.28913 -1.12889e-15 6.30532 -8.88812 5.28929e-07
202 1 7.86141 1.57236 7.87448 -8.90467 4.14102e-07
203 1 9.43401 -6.40663e-16 6.30528 -8.88812 4.61748e-07
204 1 11.0063 1.57235 7.87447 -8.90467 3.53713e-07
205 1 12.5789 1.23492e-16 6.30531 -8.88812 4.00882e-07
206 1 14.1512 1.57236 7.87454 -8.90467 2.96745e-07
207 1 15.7238 7.27252e-16 6.30539 -8.88812 3.62919e-07
208 1 17.2961 1.57237 7.87465 -8.90467 2.80304e-07
209 1 18.8686 -3.05879e-17 6.30546 -8.88811 4.02582e-07
210 1 20.4409 1.57239 7.87471 -8.90467 3.60683e-07
211 1 -0.000515938 3.14479 6.30543 -8.88811 4.41689e-07
212 1 1.57171 4.71718 7.8746 -8.90467 3.35582e-07
213 1 3.14427 3.14478 6.30536 -8.88811 4.97482e-07
214 1 4.7165 4.71715 7.87445 -8.90466 3.54543e-07
215 1 6.28911 3.14476 6.30526 -8.88812 4.72019e-07
216 1 7.86137 4.71711 7.87429 -8.90467 3.27565e-07
217 1 9.434 3.14475 6.3052 -8.88812 4.2152e-07
218 1 11.0063 4.71709 7.87425 -8.90467 3.02893e-07
219 1 12.5789 3.14475 6.30523 -8.88812 3.70671e-07
220 1 14.1512 4.71711 7.87435 -8.90467 2.54126e-07
221 1 15.7238 3.14477 6.30533 -8.88811 3.26624e-07
222 1 17.2961 4.71715 7.87453 -8.90466 2.09937e-07
223 1 18.8686 3.14479 6.30542 -8.88811 3.49744e-07
224 1 20.4409 4.71718 7.87463 -8.90467 2.5235e-07
225 1 -0.000529546 6.28962 6.30536 -8.88812 3.20741e-07
226 1 1.57168 7.86204 7.8745 -8.90467 2.16704e-07
227 1 3.14424 6.28961 6.30527 -8.88812 3.72269e-07
228 1 4.71644 7.86201 7.87429 -8.90467 2.47276e-07
229 1 6.28906 6.28958 6.30511 -8.88812 3.72549e-07
230 1 7.86131 7.86197 7.87402 -8.90469 2.65533e-07
231 1 9.43397 6.28956 6.305 -8.88813 3.62987e-07
232 1 11.0063 7.86195 7.87393 -8.90471 2.90828e-07
233 1 12.5789 6.28956 6.30503 -8.88813 3.36996e-07
234 1 14.1513 7.86197 7.87409 -8.90469 2.54094e-07
235 1 15.7238 6.28958 6.30518 -8.88812 2.78549e-07
236 1 17.2961 7.86201 7.87437 -8.90467 1.72043e-07
237 1 18.8686 6.28961 6.30533 -8.88811 2.61375e-07
238 1 20.4409 7.86204 7.87454 -8.90467 1.6159e-07
239 1 -0.000540421 9.4345 6.30531 -8.88812 2.50981e-07
240 1 1.57167 11.007 7.87446 -8.90467 1.78315e-07
241 1 3.14421 9.4345 6.30519 -8.88812 2.98338e-07
242 1 4.71641 11.007 7.87421 -8.90467 2.14319e-07
243 1 6.28903 9.43448 6.30498 -8.88813 3.2125e-07
244 1 7.86128 11.007 7.87389 -8.90471 2.54389e-07
245 1 9.43395 9.43447 6.30483 -8.88815 3.48003e-07
246 1 11.0063 11.007 7.87377 -8.90474 3.03867e-07
247 1 12.5789 9.43447 6.30486 -8.88815 3.44222e-07
248 1 14.1513 11.007 7.87396 -8.90471 2.72984e-07
249 1 15.7238 9.43448 6.30506 -8.88813 2.73358e-07
250 1 17.2961 11.007 7.87429 -8.90467 1.72843e-07
251 1 18.8686 9.4345 6.30525 -8.88812 2.20713e-07
252 1 20.4409 11.007 7.87449 -8.90467 1.36942e-07
253 1 -0.000540421 12.5794 6.30531 -8.88812 2.50981e-07
254 1 1.57168 14.1519 7.8745 -8.90467 2.16704e-07
255 1 3.14421 12.5794 6.30519 -8.88812 2.98338e-07
256 1 4.71644 14.1519 7.87429 -8.90467 2.47276e-07
257 1 6.28903 12.5794 6.30498 -8.88813 3.2125e-07
258 1 7.86131 14.1519 7.87402 -8.90469 2.65533e-07
259 1 9.43395 12.5794 6.30483 -8.88815 3.48003e-07
260 1 11.0063 14.152 7.87393 -8.90471 2.90828e-07
261 1 12.5789 12.5794 6.30486 -8.88815 3.44222e-07
262 1 14.1513 14.1519 7.87409 -8.90469 2.54094e-07
263 1 15.7238 12.5794 6.30506 -8.88813 2.73358e-07
264 1 17.2961 14.1519 7.87437 -8.90467 1.72043e-07
265 1 18.8686 12.5794 6.30525 -8.88812 2.20713e-07
266 1 20.4409 14.1519 7.87454 -8.90467 1.6159e-07
267 1 -0.000529546 15.7243 6.30536 -8.88812 3.20741e-07
268 1 1.57171 17.2967 7.8746 -8.90467 3.35582e-07
269 1 3.14424 15.7243 6.30527 -8.88812 3.72269e-07
270 1 4.7165 17.2968 7.87445 -8.90466 3.54543e-07
271 1 6.28906 15.7243 6.30511 -8.88812 3.72549e-07
272 1 7.86137 17.2968 7.87429 -8.90467 3.27565e-07
273 1 9.43397 15.7243 6.305 -8.88813 3.62987e-07
274 1 11.0063 17.2968 7.87425 -8.90467 3.02893e-07
275 1 12.5789 15.7243 6.30503 -8.88813 3.36996e-07
276 1 14.1512 17.2968 7.87435 -8.90467 2.54126e-07
277 1 15.7238 15.7243 6.30518 -8.88812 2.78549e-07
278 1 17.2961 17.2967 7.87453 -8.90466 2.09937e-07
279 1 18.8686 15.7243 6.30533 -8.88811 2.61375e-07
280 1 20.4409 17.2967 7.87463 -8.90467 2.5235e-07
281 1 -0.000515938 18.8691 6.30543 -8.88811 4.41689e-07
282 1 1.57174 20.4415 7.87467 -8.90467 4.63551e-07
283 1 3.14427 18.8691 6.30536 -8.88811 4.97482e-07
284 1 4.71655 20.4415 7.87457 -8.90467 4.73694e-07
285 1 6.28911 18.8691 6.30526 -8.88812 4.72019e-07
286 1 7.86141 20.4415 7.87448 -8.90467 4.14102e-07
287 1 9.434 18.8692 6.3052 -8.88812 4.2152e-07
288 1 11.0063 20.4416 7.87447 -8.90467 3.53713e-07
289 1 12.5789 18.8692 6.30523 -8.88812 3.70671e-07
290 1 14.1512 20.4415 7.87454 -8.90467 2.96745e-07
291 1 15.7238 18.8691 6.30533 -8.88811 3.26624e-07
292 1 17.2961 20.4415 7.87465 -8.90467 2.80304e-07
293 1 18.8686 18.8691 6.30542 -8.88811 3.49744e-07
294 1 20.4409 20.4415 7.87471 -8.90467 3.60683e-07
295 1 -0.000804623 -2.0858e-16 9.44306 -8.89866 3.58599e-07
296 1 1.5714 1.57238 11.0112 -8.9001 3.18339e-07
297 1 3.14397 -7.27633e-16 9.44298 -8.89865 4.31402e-07
298 1 4.71619 1.57235 11.0111 -8.90009 3.13036e-07
299 1 6.28881 -6.48143e-16 9.44286 -8.89865 3.83769e-07
300 1 7.86106 1.57231 11.0109 -8.90009 2.23691e-07
301 1 9.43371 -6.96198e-16 9.44279 -8.89865 3.07602e-07
302 1 11.006 1.5723 11.0109 -8.90009 1.66023e-07
303 1 12.5786 -5.17428e-16 9.44283 -8.89865 2.45467e-07
304 1 14.1509 1.57232 11.011 -8.90009 1.15588e-07
305 1 15.7235 -2.76723e-17 9.44294 -8.89865 1.94615e-07
306 1 17.2958 1.57235 11.0112 -8.90009 9.185e-08
307 1 18.8683 8.01055e-17 9.44304 -8.89865 2.30169e-07
308 1 20.4405 1.57238 11.0112 -8.9001 1.89184e-07
309 1 -0.000814826 3.14477 9.44301 -8.89865 2.762e-07
310 1 1.57135 4.71716 11.0111 -8.90009 1.622e-07
311 1 3.14394 3.14475 9.44291 -8.89865 3.43798e-07
312 1 4.71609 4.71708 11.0108 -8.90006 1.64683e-07
313 1 6.28877 3.1447 9.44274 -8.89864 3.10167e-07
314 1 7.86096 4.71697 11.0105 -8.90007 1.27177e-07
315 1 9.43368 3.14466 9.44263 -8.89865 2.60285e-07
316 1 11.006 4.71693 11.0104 -8.90007 1.37156e-07
317 1 12.5786 3.14466 9.44267 -8.89865 2.17608e-07
318 1 14.151 4.71698 11.0106 -8.90007 1.12579e-07
319 1 15.7235 3.1447 9.44283 -8.89864 1.60688e-07
320 1 17.2958 4.71709 11.0109 -8.90006 4.5234e-08
321 1 18.8683 3.14475 9.44298 -8.89865 1.70416e-07
322 1 20.4405 4.71716 11.0111 -8.90009 7.32066e-08
323 1 -0.0008376 6.28959 9.44291 -8.89865 1.35954e-07
324 1 1.57128 7.86202 11.0109 -8.90009 4.07992e-08
325 1 3.14387 6.28956 9.44275 -8.89864 1.89449e-07
326 1 4.71595 7.86194 11.0105 -8.90007 5.30065e-08
327 1 6.28867 6.28948 9.44245 -8.89864 1.90018e-07
328 1 7.86081 7.86181 11.0099 -8.90011 8.91037e-08
329 1 9.43362 6.28942 9.44221 -8.89865 2.05473e-07
330 1 11.0059 7.86176 11.0097 -8.90015 1.95958e-07
331 1 12.5787 6.28942 9.44225 -8.89865 2.11815e-07
332 1 14.1511 7.86182 11.01 -8.90011 2.09137e-07
333 1 15.7236 6.28949 9.44254 -8.89864 1.40899e-07
334 1 17.2959 7.86194 11.0106 -8.90007 8.11354e-08
335 1 18.8684 6.28957 9.44283 -8.89864 8.7144e-08
336 1 20.4406 7.86202 11.011 -8.90009 1.05737e-08
337 1 -0.000855742 9.43449 9.44282 -8.89865 6.81563e-08
338 1 1.57125 11.007 11.0109 -8.90009 1.29229e-08
339 1 3.14381 9.43447 9.44262 -8.89865 1.08217e-07
340 1 4.71589 11.007 11.0104 -8.90008 2.9624e-08
341 1 6.28858 9.43443 9.44219 -8.89865 1.39125e-07
342 1 7.86074 11.007 11.0096 -8.90015 1.01941e-07
343 1 9.43357 9.4344 9.4418 -8.89872 2.13406e-07
344 1 11.0059 11.007 11.0092 -8.90036 2.56414e-07
345 1 12.5787 9.4344 9.44184 -8.89872 2.63955e-07
346 1 14.1511 11.007 11.0097 -8.90015 2.87504e-07
347 1 15.7236 9.43443 9.44228 -8.89865 1.80934e-07
348 1 17.2959 11.007 11.0105 -8.90007 1.30135e-07
349 1 18.8684 9.43447 9.4427 -8.89865 7.07784e-08
350 1 20.4406 11.007 11.0109 -8.90009 1.16852e-08
351 1 -0.000855742 12.5794 9.44282 -8.89865 6.81563e-08
352 1 1.57128 14.1519 11.0109 -8.90009 4.07992e-08
353 1 3.14381 12.5794 9.44262 -8.89865 1.08217e-07
354 1 4.71595 14.152 11.0105 -8.90007 5.30065e-08
355 1 6.28858 12.5795 9.44219 -8.89865 1.39125e-07
356 1 7.86081 14.1521 11.0099 -8.90011 8.91037e-08
357 1 9.43357 12.5795 9.4418 -8.89872 2.13406e-07
358 1 11.0059 14.1521 11.0097 -8.90015 1.95958e-07
359 1 12.5787 12.5795 9.44184 -8.89872 2.63955e-07
360 1 14.1511 14.1521 11.01 -8.90011 2.09137e-07
361 1 15.7236 12.5795 9.44228 -8.89865 1.80934e-07
362 1 17.2959 14.152 11.0106 -8.90007 8.11354e-08
363 1 18.8684 12.5794 9.4427 -8.89865 7.07784e-08
364 1 20.4406 14.1519 11.011 -8.90009 1.05737e-08
365 1 -0.0008376 15.7243 9.44291 -8.89865 1.35954e-07
366 1 1.57135 17.2967 11.0111 -8.90009 1.622e-07
367 1 3.14387 15.7243 9.44275 -8.89864 1.89449e-07
368 1 4.71609 17.2968 11.0108 -8.90006 1.64683e-07
369 1 6.28867 15.7244 9.44245 -8.89864 1.90018e-07
370 1 7.86096 17.2969 11.0105 -8.90007 1.27177e-07
371 1 9.43362 15.7245 9.44221 -8.89865 2.05473e-07
372 1 11.006 17.297 11.0104 -8.90007 1.37156e-07
373 1 12.5787 15.7245 9.44225 -8.89865 2.11815e-07
374 1 14.151 17.2969 11.0106 -8.90007 1.12579e-07
375 1 15.7236 15.7244 9.44254 -8.89864 1.40899e-07
376 1 17.2958 17.2968 11.0109 -8.90006 4.5234e-08
377 1 18.8684 15.7243 9.44283 -8.89864 8.7144e-08
378 1 20.4405 17.2967 11.0111 -8.90009 7.32066e-08
379 1 -0.000814826 18.8691 9.44301 -8.89865 2.762e-07
380 1 1.5714 20.4415 11.0112 -8.9001 3.18339e-07
381 1 3.14394 18.8692 9.44291 -8.89865 3.43798e-07
382 1 4.71619 20.4416 11.0111 -8.90009 3.13036e-07
383 1 6.28877 18.8692 9.44274 -8.89864 3.10167e-07
384 1 7.86106 20.4416 11.0109 -8.90009 2.23691e-07
385 1 9.43368 18.8692 9.44263 -8.89865 2.60285e-07
386 1 11.006 20.4416 11.0109 -8.90009 1.66023e-07
387 1 12.5786 18.8692 9.44267 -8.89865 2.17608e-07
388 1 14.1509 20.4416 11.011 -8.90009 1.15588e-07
389 1 15.7235 18.8692 9.44283 -8.89864 1.60688e-07
390 1 17.2958 20.4415 11.0112 -8.90009 9.185e-08
391 1 18.8683 18.8691 9.44298 -8.89865 1.70416e-07
392 1 20.4405 20.4415 11.0112 -8.9001 1.89184e-07
393 1 -0.00116089 5.50836e-16 12.5794 -8.89868 2.50404e-07
394 1 3.14364 -4.14757e-16 12.5793 -8.89868 3.18751e-07
395 1 6.28847 1.49272e-16 12.5792 -8.89867 2.0882e-07
396 1 9.43336 -1.51025e-16 12.5791 -8.89868 1.03682e-07
397 1 12.5783 -5.68243e-16 12.5792 -8.89868 6.55899e-08
398 1 15.7232 -4.47989e-17 12.5793 -8.89867 2.98314e-08
399 1 18.868 2.70077e-16 12.5794 -8.89868 8.22385e-08
400 1 22.0127 3.14479 12.5794 -8.89868 1.56661e-07
401 1 3.14358 3.14475 12.5793 -8.89866 2.1245e-07
402 1 6.28838 3.14465 12.579 -8.89864 1.22999e-07
403 1 9.43331 3.14457 12.5788 -8.89865 6.39422e-08
404 1 12.5783 3.14457 12.5789 -8.89865 6.69496e-08
405 1 15.7232 3.14465 12.5791 -8.89864 2.59608e-08
406 1 18.868 3.14476 12.5794 -8.89866 3.1651e-08
407 1 22.0127 6.2896 12.5793 -8.89867 3.27482e-08
408 1 3.14344 6.28954 12.579 -8.89864 5.40261e-08
409 1 6.28816 6.28934 12.5785 -8.89854 1.58382e-08
410 1 9.43317 6.28919 12.578 -8.8986 7.49122e-08
411 1 12.5784 6.28919 12.578 -8.8986 1.85146e-07
412 1 15.7234 6.28936 12.5786 -8.89854 1.32983e-07
413 1 18.868 6.28954 12.5791 -8.89864 1.94941e-08
414 1 22.0127 9.43449 12.5791 -8.89868 1.96341e-08
415 1 3.14333 9.43445 12.5788 -8.89865 7.59023e-09
416 1 6.28797 9.43435 12.5779 -8.8986 1.64918e-08
417 1 9.43301 9.43422 12.5769 -8.89878 1.85715e-07
418 1 12.5785 9.43422 12.5769 -8.89878 3.93735e-07
419 1 15.7235 9.43435 12.5781 -8.8986 3.31128e-07
420 1 18.8681 9.43446 12.5789 -8.89865 1.09721e-07
421 1 22.0127 12.5794 12.5791 -8.89868 1.96341e-08
422 1 3.14333 12.5794 12.5788 -8.89865 7.59023e-09
423 1 6.28797 12.5796 12.5779 -8.8986 1.64918e-08
424 1 9.43301 12.5797 12.5769 -8.89878 1.85715e-07
425 1 12.5785 12.5797 12.5769 -8.89878 3.93735e-07
426 1 15.7235 12.5795 12.5781 -8.8986 3.31128e-07
427 1 18.8681 12.5794 12.5789 -8.89865 1.09721e-07
428 1 22.0127 15.7243 12.5793 -8.89867 3.27482e-08
429 1 3.14344 15.7244 12.579 -8.89864 5.40261e-08
430 1 6.28816 15.7246 12.5785 -8.89854 1.58382e-08
431 1 9.43317 15.7247 12.578 -8.8986 7.49122e-08
432 1 12.5784 15.7247 12.578 -8.8986 1.85146e-07
433 1 15.7234 15.7245 12.5786 -8.89854 1.32983e-07
434 1 18.868 15.7244 12.5791 -8.89864 1.94941e-08
435 1 22.0127 18.8691 12.5794 -8.89868 1.56661e-07
436 1 3.14358 18.8692 12.5793 -8.89866 2.1245e-07
437 1 6.28838 18.8693 12.579 -8.89864 1.22999e-07
438 1 9.43331 18.8693 12.5788 -8.89865 6.39422e-08
439 1 12.5783 18.8693 12.5789 -8.89865 6.69496e-08
440 1 15.7232 18.8692 12.5791 -8.89864 2.59608e-08
441 1 18.868 18.8691 12.5794 -8.89866 3.1651e-08
442 1 1.57107 1.57242 14.1478 -8.9047 2.99788e-07
443 1 4.7159 1.57238 14.1476 -8.90468 2.28034e-07
444 1 7.86074 1.57231 14.1475 -8.9047 5.79134e-08
445 1 11.0056 1.57228 14.1474 -8.90469 1.63038e-08
446 1 14.1505 1.57231 14.1476 -8.9047 1.57507e-08
447 1 17.2953 1.57238 14.1478 -8.90468 1.0328e-08
448 1 20.4401 1.57242 14.1478 -8.9047 1.44843e-07
449 1 1.57099 4.71723 14.1477 -8.90468 1.4833e-07
450 1 4.71573 4.71709 14.1474 -8.90465 8.56776e-08
451 1 7.86053 4.71686 14.1469 -8.90465 2.46017e-09
452 1 11.0056 4.71678 14.1467 -8.90466 9.1026e-08
453 1 14.1507 4.71688 14.147 -8.90465 1.54245e-07
454 1 17.2954 4.71711 14.1475 -8.90465 6.97622e-08
455 1 20.4401 4.71724 14.1477 -8.90468 6.94418e-08
456 1 1.57088 7.86205 14.1475 -8.9047 1.03221e-07
457 1 4.71545 7.86188 14.1469 -8.90465 5.16647e-08
458 1 7.86011 7.86151 14.1456 -8.9044 9.87785e-08
459 1 11.0056 7.86139 14.1449 -8.90466 3.84954e-07
460 1 14.151 7.86152 14.1457 -8.90439 5.4595e-07
461 1 17.2956 7.8619 14.147 -8.90465 3.41639e-07
462 1 20.4402 7.86206 14.1476 -8.9047 1.41327e-07
463 1 1.57083 11.007 14.1474 -8.90469 1.3463e-07
464 1 4.71533 11.007 14.1466 -8.90466 8.83174e-08
465 1 7.85996 11.007 14.1448 -8.90466 2.02447e-07
466 1 11.0055 11.007 14.1434 -8.90675 5.87836e-07
467 1 14.1511 11.007 14.1449 -8.90466 7.93111e-07
468 1 17.2957 11.007 14.1468 -8.90466 5.31438e-07
469 1 20.4402 11.007 14.1475 -8.90469 2.31906e-07
470 1 1.57088 14.1518 14.1475 -8.9047 1.03221e-07
471 1 4.71545 14.152 14.1469 -8.90465 5.16647e-08
472 1 7.86011 14.1524 14.1456 -8.9044 9.87785e-08
473 1 11.0056 14.1525 14.1449 -8.90466 3.84954e-07
474 1 14.151 14.1524 14.1457 -8.90439 5.4595e-07
475 1 17.2956 14.152 14.147 -8.90465 3.41639e-07
476 1 20.4402 14.1518 14.1476 -8.9047 1.41327e-07
477 1 1.57099 17.2967 14.1477 -8.90468 1.4833e-07
478 1 4.71573 17.2968 14.1474 -8.90465 8.56776e-08
479 1 7.86053 17.297 14.1469 -8.90465 2.46017e-09
480 1 11.0056 17.2971 14.1467 -8.90466 9.1026e-08
481 1 14.1507 17.297 14.147 -8.90465 1.54245e-07
482 1 17.2954 17.2968 14.1475 -8.90465 6.97622e-08
483 1 20.4401 17.2967 14.1477 -8.90468 6.94418e-08
484 1 1.57107 20.4415 14.1478 -8.9047 2.99788e-07
485 1 4.7159 20.4415 14.1476 -8.90468 2.28034e-07
486 1 7.86074 20.4416 14.1475 -8.9047 5.79134e-08
487 1 11.0056 20.4416 14.1474 -8.90469 1.63038e-08
488 1 14.1505 20.4416 14.1476 -8.9047 1.57507e-08
489 1 17.2953 20.4415 14.1478 -8.90468 1.0328e-08
490 1 20.4401 20.4415 14.1478 -8.9047 1.44843e-07
491 1 22.0124 9.46187e-16 15.7171 -8.88818 3.45765e-07
492 1 1.57088 1.57255 17.2788 -8.90298 5.40363e-07
493 1 3.14343 2.50347e-16 15.717 -8.88819 3.98316e-07
494 1 4.71589 1.5726 17.2788 -8.90303 3.96266e-07
495 1 6.28826 3.10857e-16 15.7169 -8.88817 1.69536e-07
496 1 7.86062 1.57254 17.2788 -8.9031 1.12109e-07
497 1 9.43307 6.36955e-16 15.7169 -8.8882 7.36143e-09
498 1 11.0053 1.57251 17.2787 -8.90309 7.62632e-08
499 1 12.5779 4.91564e-18 15.7169 -8.8882 1.75179e-08
500 1 14.15 1.57255 17.2789 -8.9031 1.27517e-07
501 1 15.7227 5.07951e-16 15.7171 -8.88817 2.06068e-08
502 1 17.2947 1.57261 17.279 -8.90303 1.34504e-07
503 1 18.8675 1.20312e-15 15.7171 -8.88819 1.1013e-07
504 1 20.4397 1.57256 17.2789 -8.90297 3.26922e-07
505 1 22.0124 3.14493 15.7171 -8.88819 2.62814e-07
506 1 1.57087 4.71755 17.2789 -8.90303 4.71868e-07
507 1 3.14339 3.14491 15.717 -8.88818 2.98607e-07
508 1 4.71593 4.71764 17.2788 -8.90324 3.67488e-07
509 1 6.28817 3.14479 15.7168 -8.88809 1.0512e-07
510 1 7.8604 4.71722 17.2782 -8.90292 2.28976e-07
511 1 9.433 3.14465 15.7165 -8.88817 1.93701e-08
512 1 11.0052 4.71707 17.2778 -8.90284 4.06244e-07
513 1 12.5779 3.14465 15.7166 -8.88817 1.04979e-07
514 1 14.1501 4.71725 17.2784 -8.90292 5.69591e-07
515 1 15.7227 3.1448 15.7169 -8.88809 9.931e-08
516 1 17.2945 4.71767 17.279 -8.90324 4.08438e-07
517 1 18.8675 3.14492 15.7171 -8.88818 1.00913e-07
518 1 20.4396 4.71756 17.2789 -8.90303 3.65187e-07
519 1 22.0123 6.28975 15.717 -8.88817 2.45789e-07
520 1 1.57074 7.86227 17.2788 -8.9031 6.52773e-07
521 1 3.14321 6.28968 15.7168 -8.88809 2.30842e-07
522 1 4.71543 7.86211 17.2782 -8.90292 6.07395e-07
523 1 6.28779 6.28936 15.7161 -8.8877 1.30369e-07
524 1 7.85926 7.86105 17.276 -8.90268 7.0677e-07
525 1 9.43271 6.28898 15.715 -8.88787 2.54625e-07
526 1 11.0052 7.86103 17.274 -8.90498 1.27446e-06
527 1 12.5781 6.28899 15.7151 -8.88788 5.56183e-07
528 1 14.151 7.86107 17.2762 -8.90267 1.64786e-06
529 1 15.723 6.28938 15.7163 -8.8877 5.35324e-07
530 1 17.2949 7.86213 17.2784 -8.90292 1.17793e-06
531 1 18.8675 6.2897 15.7169 -8.88809 2.8982e-07
532 1 20.4396 7.86228 17.2789 -8.9031 7.31262e-07
533 1 22.0123 9.43455 15.7169 -8.8882 4.0139e-07
534 1 1.57068 11.007 17.2787 -8.90309 8.2873e-07
535 1 3.14301 9.4345 15.7165 -8.88817 3.32341e-07
536 1 4.71524 11.007 17.2777 -8.90284 8.11373e-07
537 1 6.28736 9.43427 15.715 -8.88787 3.23909e-07
538 1 7.8592 11.007 17.2739 -8.90498 1.04788e-06
539 1 9.43208 9.43369 15.7119 -8.88714 6.65232e-07
540 1 11.0051 11.007 17.2665 -8.9171 1.81403e-06
541 1 12.5786 9.4337 15.712 -8.88714 1.16527e-06
542 1 14.151 11.007 17.2741 -8.90497 2.25269e-06
543 1 15.7233 9.43428 15.7152 -8.88788 1.12353e-06
544 1 17.295 11.007 17.2779 -8.90284 1.66005e-06
545 1 18.8676 9.43451 15.7167 -8.88817 6.47331e-07
546 1 20.4396 11.007 17.2788 -8.90309 1.00733e-06
547 1 22.0123 12.5794 15.7169 -8.8882 4.0139e-07
548 1 1.57074 14.1516 17.2788 -8.9031 6.52773e-07
549 1 3.14301 12.5794 15.7165 -8.88817 3.32341e-07
550 1 4.71543 14.1518 17.2782 -8.90292 6.07395e-07
551 1 6.28736 12.5796 15.715 -8.88787 3.23909e-07
552 1 7.85926 14.1529 17.276 -8.90268 7.0677e-07
553 1 9.43208 12.5802 15.7119 -8.88714 6.65232e-07
554 1 11.0052 14.1529 17.274 -8.90498 1.27446e-06
555 1 12.5786 12.5802 15.712 -8.88714 1.16527e-06
556 1 14.151 14.1528 17.2762 -8.90267 1.64786e-06
557 1 15.7233 12.5796 15.7152 -8.88788 1.12353e-06
558 1 17.2949 14.1518 17.2784 -8.90292 1.17793e-06
559 1 18.8676 12.5794 15.7167 -8.88817 6.47331e-07
560 1 20.4396 14.1516 17.2789 -8.9031 7.31262e-07
561 1 22.0123 15.7241 15.717 -8.88817 2.45789e-07
562 1 1.57087 17.2963 17.2789 -8.90303 4.71868e-07
563 1 3.14321 15.7242 15.7168 -8.88809 2.30842e-07
564 1 4.71593 17.2963 17.2788 -8.90324 3.67488e-07
565 1 6.28779 15.7245 15.7161 -8.8877 1.30369e-07
566 1 7.8604 17.2967 17.2782 -8.90292 2.28976e-07
567 1 9.43271 15.7249 15.715 -8.88787 2.54625e-07
568 1 11.0052 17.2968 17.2778 -8.90284 4.06244e-07
569 1 12.5781 15.7249 15.7151 -8.88788 5.56183e-07
570 1 14.1501 17.2967 17.2784 -8.90292 5.69591e-07
571 1 15.723 15.7245 15.7163 -8.8877 5.35324e-07
572 1 17.2945 17.2962 17.279 -8.90324 4.08438e-07
573 1 18.8675 15.7242 15.7169 -8.88809 2.8982e-07
574 1 20.4396 17.2963 17.2789 -8.90303 3.65187e-07
575 1 22.0124 18.869 15.7171 -8.88819 2.62814e-07
576 1 1.57088 20.4413 17.2788 -8.90298 5.40363e-07
577 1 3.14339 18.869 15.717 -8.88818 2.98607e-07
578 1 4.71589 20.4413 17.2788 -8.90303 3.96266e-07
579 1 6.28817 18.8691 15.7168 -8.88809 1.0512e-07
580 1 7.86062 20.4414 17.2788 -8.9031 1.12109e-07
581 1 9.433 18.8693 15.7165 -8.88817 1.93701e-08
582 1 11.0053 20.4414 17.2787 -8.90309 7.62632e-08
583 1 12.5779 18.8692 15.7166 -8.88817 1.04979e-07