ITEM: TIMESTEP
246
ITEM: NUMBER OF ATOMS
736
ITEM: BOX BOUNDS pp pp pp
0.0000000000000000e+00 2.2013900999999997e+01
0.0000000000000000e+00 2.2013900999999997e+01
0.0000000000000000e+00 5.3462330999999999e+01
ITEM: ATOMS id type x y z c_pot c_ke
1 1 -0.000804597 2.17052e-16 0.0976322 -7.40188 1.9441e-07
2 1 1.57158 1.5724 1.62441 -8.68379 1.75552e-07
3 1 3.14399 2.73611e-16 0.0976054 -7.40187 1.97879e-07
4 1 4.71639 1.57239 1.62435 -8.68379 1.77385e-07
5 1 6.28882 3.48674e-16 0.0975466 -7.40185 2.00671e-07
6 1 7.86125 1.57239 1.62427 -8.68378 1.78169e-07
7 1 9.4337 9.28813e-17 0.0975001 -7.40183 2.00708e-07
8 1 11.0061 1.57239 1.62423 -8.68378 1.77375e-07
9 1 12.5786 -5.76199e-17 0.0975008 -7.40183 1.97964e-07
10 1 14.151 1.57239 1.62427 -8.68378 1.75546e-07
11 1 15.7235 -7.7613e-16 0.0975482 -7.40185 1.94478e-07
12 1 17.2959 1.57239 1.62435 -8.68379 1.74022e-07
13 1 18.8683 -7.96091e-17 0.0976067 -7.40187 1.92888e-07
14 1 20.4407 1.5724 1.62441 -8.68379 1.74023e-07
15 1 -0.000804651 3.14479 0.0976061 -7.40187 1.93992e-07
16 1 1.57158 4.71721 1.62435 -8.68379 1.748e-07
17 1 3.14398 3.14479 0.0975765 -7.40186 1.97452e-07
18 1 4.71638 4.7172 1.62427 -8.68378 1.76637e-07
19 1 6.28881 3.14478 0.0975114 -7.40184 2.00252e-07
20 1 7.86124 4.7172 1.62417 -8.68377 1.77467e-07
21 1 9.43369 3.14477 0.0974598 -7.40182 2.00308e-07
22 1 11.0061 4.71719 1.62412 -8.68377 1.76725e-07
23 1 12.5786 3.14477 0.0974605 -7.40182 1.97579e-07
24 1 14.151 4.7172 1.62417 -8.68377 1.74917e-07
25 1 15.7235 3.14478 0.097513 -7.40184 1.94094e-07
26 1 17.2959 4.7172 1.62427 -8.68378 1.73366e-07
27 1 18.8683 3.14479 0.0975778 -7.40186 1.92489e-07
28 1 20.4407 4.71721 1.62435 -8.68379 1.73311e-07
29 1 -0.000804773 6.28962 0.0975475 -7.40185 1.93068e-07
30 1 1.57157 7.86206 1.62427 -8.68378 1.73915e-07
31 1 3.14397 6.28962 0.0975116 -7.40184 1.96509e-07
32 1 4.71638 7.86206 1.62417 -8.68377 1.75758e-07
33 1 6.2888 6.28961 0.0974319 -7.40181 1.99327e-07
34 1 7.86123 7.86205 1.62404 -8.68377 1.76644e-07
35 1 9.43369 6.2896 0.0973682 -7.40178 1.99424e-07
36 1 11.0061 7.86205 1.62399 -8.68376 1.75968e-07
37 1 12.5786 6.2896 0.0973689 -7.40178 1.96729e-07
38 1 14.151 7.86205 1.62404 -8.68377 1.74185e-07
39 1 15.7235 6.28961 0.0974335 -7.40181 1.93246e-07
40 1 17.2959 7.86206 1.62417 -8.68377 1.726e-07
41 1 18.8683 6.28962 0.0975129 -7.40184 1.91608e-07
42 1 20.4407 7.86206 1.62427 -8.68378 1.72477e-07
43 1 -0.00080487 9.4345 0.0975006 -7.40183 1.92344e-07
44 1 1.57157 11.007 1.62423 -8.68378 1.7354e-07
45 1 3.14397 9.4345 0.0974596 -7.40182 1.95769e-07
46 1 4.71637 11.007 1.62412 -8.68377 1.75385e-07
47 1 6.28879 9.43449 0.0973678 -7.40178 1.98601e-07
48 1 7.86123 11.007 1.62398 -8.68376 1.76297e-07
49 1 9.43369 9.43449 0.097294 -7.40175 1.98732e-07
50 1 11.0061 11.007 1.62392 -8.68376 1.7565e-07
51 1 12.5786 9.43449 0.0972946 -7.40175 1.96065e-07
52 1 14.151 11.007 1.62399 -8.68376 1.73878e-07
53 1 15.7235 9.43449 0.0973694 -7.40178 1.92583e-07
54 1 17.2959 11.007 1.62412 -8.68377 1.72278e-07
55 1 18.8683 9.4345 0.0974608 -7.40182 1.90918e-07
56 1 20.4407 11.007 1.62423 -8.68378 1.72124e-07
57 1 -0.00080487 12.5794 0.0975006 -7.40183 1.92344e-07
58 1 1.57157 14.1518 1.62427 -8.68378 1.73915e-07
59 1 3.14397 12.5794 0.0974596 -7.40182 1.95769e-07
60 1 4.71638 14.1518 1.62417 -8.68377 1.75758e-07
61 1 6.28879 12.5794 0.0973678 -7.40178 1.98601e-07
62 1 7.86123 14.1518 1.62404 -8.68377 1.76644e-07
63 1 9.43369 12.5794 0.097294 -7.40175 1.98732e-07
64 1 11.0061 14.1519 1.62399 -8.68376 1.75968e-07
65 1 12.5786 12.5794 0.0972946 -7.40175 1.96065e-07
66 1 14.151 14.1518 1.62404 -8.68377 1.74185e-07
67 1 15.7235 12.5794 0.0973694 -7.40178 1.92583e-07
68 1 17.2959 14.1518 1.62417 -8.68377 1.726e-07
69 1 18.8683 12.5794 0.0974608 -7.40182 1.90918e-07
70 1 20.4407 14.1518 1.62427 -8.68378 1.72477e-07
71 1 -0.000804773 15.7243 0.0975475 -7.40185 1.93068e-07
72 1 1.57158 17.2967 1.62435 -8.68379 1.748e-07
73 1 3.14397 15.7243 0.0975116 -7.40184 1.96509e-07
74 1 4.71638 17.2967 1.62427 -8.68378 1.76637e-07
75 1 6.2888 15.7243 0.0974319 -7.40181 1.99327e-07
76 1 7.86124 17.2967 1.62417 -8.68377 1.77467e-07
77 1 9.43369 15.7243 0.0973682 -7.40178 1.99424e-07
78 1 11.0061 17.2967 1.62412 -8.68377 1.76725e-07
79 1 12.5786 15.7243 0.0973689 -7.40178 1.96729e-07
80 1 14.151 17.2967 1.62417 -8.68377 1.74917e-07
81 1 15.7235 15.7243 0.0974335 -7.40181 1.93246e-07
82 1 17.2959 17.2967 1.62427 -8.68378 1.73366e-07
83 1 18.8683 15.7243 0.0975129 -7.40184 1.91608e-07
84 1 20.4407 17.2967 1.62435 -8.68379 1.73311e-07
85 1 -0.000804651 18.8691 0.0976061 -7.40187 1.93992e-07
86 1 1.57158 20.4415 1.62441 -8.68379 1.75552e-07
87 1 3.14398 18.8691 0.0975765 -7.40186 1.97452e-07
88 1 4.71639 20.4415 1.62435 -8.68379 1.77385e-07
89 1 6.28881 18.8691 0.0975114 -7.40184 2.00252e-07
90 1 7.86125 20.4415 1.62427 -8.68378 1.78169e-07
91 1 9.43369 18.8691 0.0974598 -7.40182 2.00308e-07
92 1 11.0061 20.4415 1.62423 -8.68378 1.77375e-07
93 1 12.5786 18.8691 0.0974605 -7.40182 1.97579e-07
94 1 14.151 20.4415 1.62427 -8.68378 1.75546e-07
95 1 15.7235 18.8691 0.097513 -7.40184 1.94094e-07
96 1 17.2959 20.4415 1.62435 -8.68379 1.74022e-07
97 1 18.8683 18.8691 0.0975778 -7.40186 1.92489e-07
98 1 20.4407 20.4415 1.62441 -8.68379 1.74023e-07
99 1 -0.000839336 1.85236e-16 3.15454 -8.93805 1.48464e-07
100 1 1.57153 1.5724 4.74382 -8.90301 1.12151e-07
101 1 3.14397 4.70692e-16 3.1545 -8.93805 1.49286e-07
102 1 4.71634 1.57239 4.74374 -8.90301 1.12417e-07
103 1 6.2888 -8.41168e-17 3.15442 -8.93806 1.49884e-07
104 1 7.86119 1.57239 4.74364 -8.90301 1.12524e-07
105 1 9.43367 5.14384e-16 3.15435 -8.93807 1.4988e-07
106 1 11.0061 1.57238 4.74359 -8.90301 1.12455e-07
107 1 12.5786 -4.36772e-17 3.15435 -8.93807 1.49283e-07
108 1 14.151 1.57239 4.74364 -8.90301 1.12209e-07
109 1 15.7234 -3.21455e-16 3.15442 -8.93806 1.48468e-07
110 1 17.2958 1.57239 4.74374 -8.90301 1.1193e-07
111 1 18.8683 1.21113e-16 3.15451 -8.93805 1.48075e-07
112 1 20.4406 1.5724 4.74382 -8.90301 1.11901e-07
113 1 -0.000839384 3.14481 3.1545 -8.93805 1.48086e-07
114 1 1.57152 4.71721 4.74374 -8.90301 1.11525e-07
115 1 3.14396 3.1448 3.15446 -8.93806 1.48898e-07
116 1 4.71633 4.7172 4.74364 -8.90301 1.11796e-07
117 1 6.2888 3.14479 3.15436 -8.93807 1.4951e-07
118 1 7.86118 4.71718 4.7435 -8.90301 1.11944e-07
119 1 9.43367 3.14479 3.15428 -8.93808 1.49535e-07
120 1 11.0061 4.71718 4.74344 -8.90301 1.11924e-07
121 1 12.5786 3.14479 3.15428 -8.93808 1.48959e-07
122 1 14.151 4.71718 4.7435 -8.90301 1.11695e-07
123 1 15.7234 3.14479 3.15436 -8.93807 1.48141e-07
124 1 17.2958 4.7172 4.74364 -8.90301 1.1139e-07
125 1 18.8683 3.1448 3.15446 -8.93806 1.47724e-07
126 1 20.4406 4.71721 4.74374 -8.90301 1.11311e-07
127 1 -0.000839488 6.28964 3.15442 -8.93806 1.4728e-07
128 1 1.57152 7.86206 4.74364 -8.90301 1.10799e-07
129 1 3.14395 6.28963 3.15436 -8.93807 1.48069e-07
130 1 4.71631 7.86205 4.7435 -8.90301 1.11077e-07
131 1 6.28878 6.28962 3.15424 -8.93808 1.48715e-07
132 1 7.86117 7.86204 4.74333 -8.90301 1.11279e-07
133 1 9.43366 6.28962 3.15413 -8.9381 1.48803e-07
134 1 11.0061 7.86203 4.74325 -8.90302 1.11318e-07
135 1 12.5786 6.28962 3.15413 -8.9381 1.48274e-07
136 1 14.151 7.86204 4.74333 -8.90301 1.11112e-07
137 1 15.7234 6.28962 3.15424 -8.93808 1.47451e-07
138 1 17.2958 7.86205 4.74351 -8.90301 1.10774e-07
139 1 18.8683 6.28963 3.15436 -8.93807 1.4698e-07
140 1 20.4406 7.86206 4.74364 -8.90301 1.10631e-07
141 1 -0.00083957 9.43451 3.15435 -8.93807 1.46676e-07
142 1 1.57151 11.007 4.74359 -8.90301 1.10496e-07
143 1 3.14395 9.43451 3.15428 -8.93808 1.47447e-07
144 1 4.71631 11.007 4.74344 -8.90301 1.10776e-07
145 1 6.28878 9.4345 3.15413 -8.9381 1.4812e-07
146 1 7.86116 11.007 4.74325 -8.90302 1.11003e-07
147 1 9.43366 9.4345 3.15401 -8.93812 1.4826e-07
148 1 11.0061 11.007 4.74316 -8.90302 1.11069e-07
149 1 12.5786 9.4345 3.15401 -8.93812 1.47769e-07
150 1 14.151 11.007 4.74325 -8.90302 1.10872e-07
151 1 15.7234 9.4345 3.15414 -8.9381 1.46942e-07
152 1 17.2959 11.007 4.74345 -8.90301 1.1052e-07
153 1 18.8683 9.43451 3.15428 -8.93808 1.46427e-07
154 1 20.4406 11.007 4.74359 -8.90301 1.10348e-07
155 1 -0.00083957 12.5794 3.15435 -8.93807 1.46676e-07
156 1 1.57152 14.1518 4.74364 -8.90301 1.10799e-07
157 1 3.14395 12.5794 3.15428 -8.93808 1.47447e-07
158 1 4.71631 14.1518 4.7435 -8.90301 1.11077e-07
159 1 6.28878 12.5794 3.15413 -8.9381 1.4812e-07
160 1 7.86117 14.1519 4.74333 -8.90301 1.11279e-07
161 1 9.43366 12.5794 3.15401 -8.93812 1.4826e-07
162 1 11.0061 14.1519 4.74325 -8.90302 1.11318e-07
163 1 12.5786 12.5794 3.15401 -8.93812 1.47769e-07
164 1 14.151 14.1519 4.74333 -8.90301 1.11112e-07
165 1 15.7234 12.5794 3.15414 -8.9381 1.46942e-07
166 1 17.2958 14.1518 4.74351 -8.90301 1.10774e-07
167 1 18.8683 12.5794 3.15428 -8.93808 1.46427e-07
168 1 20.4406 14.1518 4.74364 -8.90301 1.10631e-07
169 1 -0.000839488 15.7243 3.15442 -8.93806 1.4728e-07
170 1 1.57152 17.2967 4.74374 -8.90301 1.11525e-07
171 1 3.14395 15.7243 3.15436 -8.93807 1.48069e-07
172 1 4.71633 17.2967 4.74364 -8.90301 1.11796e-07
173 1 6.28878 15.7243 3.15424 -8.93808 1.48715e-07
174 1 7.86118 17.2967 4.7435 -8.90301 1.11944e-07
175 1 9.43366 15.7243 3.15413 -8.9381 1.48803e-07
176 1 11.0061 17.2967 4.74344 -8.90301 1.11924e-07
177 1 12.5786 15.7243 3.15413 -8.9381 1.48274e-07
178 1 14.151 17.2967 4.7435 -8.90301 1.11695e-07
179 1 15.7234 15.7243 3.15424 -8.93808 1.47451e-07
180 1 17.2958 17.2967 4.74364 -8.90301 1.1139e-07
181 1 18.8683 15.7243 3.15436 -8.93807 1.4698e-07
182 1 20.4406 17.2967 4.74374 -8.90301 1.11311e-07
183 1 -0.000839384 18.8691 3.1545 -8.93805 1.48086e-07
184 1 1.57153 20.4415 4.74382 -8.90301 1.12151e-07
185 1 3.14396 18.8691 3.15446 -8.93806 1.48898e-07
186 1 4.71634 20.4415 4.74374 -8.90301 1.12417e-07
187 1 6.2888 18.8691 3.15436 -8.93807 1.4951e-07
188 1 7.86119 20.4415 4.74364 -8.90301 1.12524e-07
189 1 9.43367 18.8691 3.15428 -8.93808 1.49535e-07
190 1 11.0061 20.4415 4.74359 -8.90301 1.12455e-07
191 1 12.5786 18.8691 3.15428 -8.93808 1.48959e-07
192 1 14.151 20.4415 4.74364 -8.90301 1.12209e-07
193 1 15.7234 18.8691 3.15436 -8.93807 1.48141e-07
194 1 17.2958 20.4415 4.74374 -8.90301 1.1193e-07
195 1 18.8683 18.8691 3.15446 -8.93806 1.47724e-07
196 1 20.4406 20.4415 4.74382 -8.90301 1.11901e-07
197 1 -0.000913174 4.34e-17 6.3056 -8.88811 6.95465e-08
198 1 1.57142 1.57238 7.87481 -8.90467 3.50021e-08
199 1 3.14387 -2.10894e-16 6.30555 -8.88811 6.981e-08
200 1 4.71621 1.57237 7.8747 -8.90467 3.51769e-08
201 1 6.2887 -1.5681e-17 6.30543 -8.88812 6.99915e-08
202 1 7.86107 1.57235 7.87455 -8.90467 3.52508e-08
203 1 9.43358 1.37064e-16 6.30534 -8.88812 7.00249e-08
204 1 11.006 1.57235 7.87449 -8.90467 3.52327e-08
205 1 12.5785 8.87087e-18 6.30534 -8.88812 6.98945e-08
206 1 14.1509 1.57235 7.87456 -8.90467 3.50842e-08
207 1 15.7234 -8.47687e-17 6.30544 -8.88812 6.96238e-08
208 1 17.2958 1.57237 7.8747 -8.90467 3.48751e-08
209 1 18.8682 1.36503e-16 6.30555 -8.88811 6.94402e-08
210 1 20.4406 1.57238 7.87481 -8.90467 3.48341e-08
211 1 -0.000913227 3.14479 6.30555 -8.88811 6.92365e-08
212 1 1.57141 4.71717 7.8747 -8.90467 3.45389e-08
213 1 3.14386 3.14478 6.30549 -8.88811 6.94903e-08
214 1 4.71618 4.71714 7.87454 -8.90466 3.47179e-08
215 1 6.28869 3.14476 6.30535 -8.88812 6.96861e-08
216 1 7.86104 4.7171 7.87432 -8.90467 3.48344e-08
217 1 9.43358 3.14474 6.30524 -8.88812 6.97467e-08
218 1 11.006 4.71708 7.87423 -8.90467 3.48637e-08
219 1 12.5785 3.14474 6.30524 -8.88812 6.96358e-08
220 1 14.1509 4.7171 7.87433 -8.90467 3.47314e-08
221 1 15.7234 3.14476 6.30535 -8.88812 6.93619e-08
222 1 17.2958 4.71714 7.87454 -8.90466 3.44944e-08
223 1 18.8682 3.14478 6.30549 -8.88811 6.91551e-08
224 1 20.4406 4.71717 7.8747 -8.90467 3.44056e-08
225 1 -0.000913337 6.28962 6.30543 -8.88812 6.85858e-08
226 1 1.57139 7.86203 7.87456 -8.90467 3.40194e-08
227 1 3.14384 6.2896 6.30535 -8.88812 6.88184e-08
228 1 4.71614 7.862 7.87432 -8.90467 3.42065e-08
229 1 6.28866 6.28957 6.30515 -8.88812 6.90467e-08
230 1 7.861 7.86196 7.87401 -8.90469 3.43779e-08
231 1 9.43356 6.28955 6.30499 -8.88813 6.91687e-08
232 1 11.006 7.86194 7.87386 -8.90471 3.44667e-08
233 1 12.5785 6.28955 6.30499 -8.88813 6.91021e-08
234 1 14.151 7.86196 7.87401 -8.90469 3.43563e-08
235 1 15.7234 6.28957 6.30516 -8.88812 6.88223e-08
236 1 17.2958 7.862 7.87433 -8.90467 3.4085e-08
237 1 18.8682 6.2896 6.30535 -8.88812 6.85633e-08
238 1 20.4406 7.86203 7.87456 -8.90467 3.39315e-08
239 1 -0.000913417 9.4345 6.30534 -8.88812 6.81089e-08
240 1 1.57139 11.007 7.87449 -8.90467 3.38087e-08
241 1 3.14383 9.43449 6.30524 -8.88812 6.83249e-08
242 1 4.71612 11.007 7.87423 -8.90467 3.40005e-08
243 1 6.28864 9.43448 6.30499 -8.88813 6.85816e-08
244 1 7.86098 11.007 7.87386 -8.90471 3.41984e-08
245 1 9.43355 9.43447 6.30478 -8.88815 6.87537e-08
246 1 11.006 11.007 7.87367 -8.90475 3.43138e-08
247 1 12.5785 9.43447 6.30478 -8.88815 6.87228e-08
248 1 14.151 11.007 7.87386 -8.90471 3.42129e-08
249 1 15.7234 9.43448 6.30499 -8.88813 6.84385e-08
250 1 17.2959 11.007 7.87423 -8.90467 3.39252e-08
251 1 18.8682 9.43449 6.30524 -8.88812 6.81356e-08
252 1 20.4406 11.007 7.87449 -8.90467 3.37414e-08
253 1 -0.000913417 12.5794 6.30534 -8.88812 6.81089e-08
254 1 1.57139 14.1519 7.87456 -8.90467 3.40194e-08
255 1 3.14383 12.5794 6.30524 -8.88812 6.83249e-08
256 1 4.71614 14.1519 7.87432 -8.90467 3.42065e-08
257 1 6.28864 12.5794 6.30499 -8.88813 6.85816e-08
258 1 7.861 14.1519 7.87401 -8.90469 3.43779e-08
259 1 9.43355 12.5794 6.30478 -8.88815 6.87537e-08
260 1 11.006 14.152 7.87386 -8.90471 3.44667e-08
261 1 12.5785 12.5794 6.30478 -8.88815 6.87228e-08
262 1 14.151 14.1519 7.87401 -8.90469 3.43563e-08
263 1 15.7234 12.5794 6.30499 -8.88813 6.84385e-08
264 1 17.2958 14.1519 7.87433 -8.90467 3.4085e-08
265 1 18.8682 12.5794 6.30524 -8.88812 6.81356e-08
266 1 20.4406 14.1519 7.87456 -8.90467 3.39315e-08
267 1 -0.000913337 15.7243 6.30543 -8.88812 6.85858e-08
268 1 1.57141 17.2967 7.8747 -8.90467 3.45389e-08
269 1 3.14384 15.7243 6.30535 -8.88812 6.88184e-08
270 1 4.71618 17.2968 7.87454 -8.90466 3.47179e-08
271 1 6.28866 15.7243 6.30515 -8.88812 6.90467e-08
272 1 7.86104 17.2968 7.87432 -8.90467 3.48344e-08
273 1 9.43356 15.7244 6.30499 -8.88813 6.91687e-08
274 1 11.006 17.2968 7.87423 -8.90467 3.48637e-08
275 1 12.5785 15.7244 6.30499 -8.88813 6.91021e-08
276 1 14.1509 17.2968 7.87433 -8.90467 3.47314e-08
277 1 15.7234 15.7243 6.30516 -8.88812 6.88223e-08
278 1 17.2958 17.2968 7.87454 -8.90466 3.44944e-08
279 1 18.8682 15.7243 6.30535 -8.88812 6.85633e-08
280 1 20.4406 17.2967 7.8747 -8.90467 3.44056e-08
281 1 -0.000913227 18.8691 6.30555 -8.88811 6.92365e-08
282 1 1.57142 20.4415 7.87481 -8.90467 3.50021e-08
283 1 3.14386 18.8691 6.30549 -8.88811 6.94903e-08
284 1 4.71621 20.4415 7.8747 -8.90467 3.51769e-08
285 1 6.28869 18.8691 6.30535 -8.88812 6.96861e-08
286 1 7.86107 20.4415 7.87455 -8.90467 3.52508e-08
287 1 9.43358 18.8692 6.30524 -8.88812 6.97467e-08
288 1 11.006 20.4416 7.87449 -8.90467 3.52327e-08
289 1 12.5785 18.8692 6.30524 -8.88812 6.96358e-08
290 1 14.1509 20.4415 7.87456 -8.90467 3.50842e-08
291 1 15.7234 18.8691 6.30535 -8.88812 6.93619e-08
292 1 17.2958 20.4415 7.8747 -8.90467 3.48751e-08
293 1 18.8682 18.8691 6.30549 -8.88811 6.91551e-08
294 1 20.4406 20.4415 7.87481 -8.90467 3.48341e-08
295 1 -0.00101216 -2.25288e-16 9.44319 -8.89866 9.83901e-09
296 1 1.57131 1.57237 11.0113 -8.9001 2.17533e-10
297 1 3.14375 -4.55371e-16 9.44312 -8.89865 1.00143e-08
298 1 4.71608 1.57234 11.0112 -8.90009 2.14626e-10
299 1 6.28857 -5.13335e-16 9.44296 -8.89865 1.00823e-08
300 1 7.86094 1.57231 11.011 -8.90009 1.15432e-10
301 1 9.43347 -6.74426e-17 9.44283 -8.89865 1.0064e-08
302 1 11.0059 1.57229 11.0109 -8.90009 7.25888e-11
303 1 12.5784 -2.75027e-16 9.44283 -8.89865 9.98608e-09
304 1 14.1508 1.57231 11.011 -8.90009 6.5901e-11
305 1 15.7233 -5.0291e-16 9.44296 -8.89865 9.8284e-09
306 1 17.2957 1.57234 11.0112 -8.90009 4.54948e-11
307 1 18.8681 -5.79344e-16 9.44312 -8.89865 9.73169e-09
308 1 20.4405 1.57237 11.0113 -8.9001 1.04139e-10
309 1 -0.00101225 3.14476 9.44312 -8.89865 9.65907e-09
310 1 1.57128 4.71715 11.0112 -8.90009 1.10503e-10
311 1 3.14373 3.14474 9.44303 -8.89865 9.82454e-09
312 1 4.716 4.71707 11.0109 -8.90006 1.11494e-10
313 1 6.28854 3.14469 9.44282 -8.89864 9.90756e-09
314 1 7.86086 4.71696 11.0106 -8.90007 5.66569e-11
315 1 9.43345 3.14465 9.44265 -8.89865 9.91818e-09
316 1 11.0059 4.71692 11.0104 -8.90008 6.89184e-11
317 1 12.5784 3.14465 9.44265 -8.89865 9.86119e-09
318 1 14.1509 4.71696 11.0106 -8.90007 8.67861e-11
319 1 15.7233 3.14469 9.44283 -8.89864 9.69964e-09
320 1 17.2958 4.71707 11.0109 -8.90006 3.80607e-11
321 1 18.8681 3.14474 9.44304 -8.89865 9.57778e-09
322 1 20.4405 4.71715 11.0112 -8.90009 3.85154e-11
323 1 -0.00101241 6.28958 9.44296 -8.89865 9.30403e-09
324 1 1.57124 7.86201 11.011 -8.90009 2.89237e-11
325 1 3.14368 6.28955 9.44283 -8.89864 9.44634e-09
326 1 4.71589 7.86193 11.0106 -8.90007 3.28389e-11
327 1 6.28846 6.28947 9.44248 -8.89864 9.56221e-09
328 1 7.86074 7.8618 11.0099 -8.90011 3.57759e-11
329 1 9.43342 6.28941 9.44217 -8.89865 9.63961e-09
330 1 11.0059 7.86175 11.0096 -8.90015 1.19003e-10
331 1 12.5785 6.28941 9.44218 -8.89865 9.63116e-09
332 1 14.151 7.8618 11.0099 -8.90011 1.67166e-10
333 1 15.7234 6.28947 9.44248 -8.89864 9.46236e-09
334 1 17.2959 7.86193 11.0106 -8.90007 8.43253e-11
335 1 18.8682 6.28955 9.44283 -8.89864 9.28522e-09
336 1 20.4405 7.86201 11.011 -8.90009 1.14518e-11
337 1 -0.00101252 9.43448 9.44283 -8.89865 9.06622e-09
338 1 1.57122 11.007 11.0109 -8.90009 1.11114e-11
339 1 3.14364 9.43447 9.44265 -8.89865 9.19045e-09
340 1 4.71585 11.007 11.0104 -8.90008 1.62379e-11
341 1 6.2884 9.43443 9.44217 -8.89865 9.33697e-09
342 1 7.86068 11.007 11.0096 -8.90015 4.6273e-11
343 1 9.43338 9.43439 9.44172 -8.89872 9.47038e-09
344 1 11.0059 11.007 11.0091 -8.90037 1.60812e-10
345 1 12.5785 9.43439 9.44172 -8.89872 9.50022e-09
346 1 14.1511 11.007 11.0096 -8.90015 2.20319e-10
347 1 15.7235 9.43443 9.44218 -8.89865 9.32557e-09
348 1 17.2959 11.007 11.0104 -8.90008 1.23193e-10
349 1 18.8682 9.43447 9.44265 -8.89865 9.10064e-09
350 1 20.4405 11.007 11.0109 -8.90009 1.82534e-11
351 1 -0.00101252 12.5794 9.44283 -8.89865 9.06622e-09
352 1 1.57124 14.1519 11.011 -8.90009 2.89237e-11
353 1 3.14364 12.5794 9.44265 -8.89865 9.19045e-09
354 1 4.71589 14.152 11.0106 -8.90007 3.28389e-11
355 1 6.2884 12.5795 9.44217 -8.89865 9.33697e-09
356 1 7.86074 14.1521 11.0099 -8.90011 3.57759e-11
357 1 9.43338 12.5795 9.44172 -8.89872 9.47038e-09
358 1 11.0059 14.1522 11.0096 -8.90015 1.19003e-10
359 1 12.5785 12.5795 9.44172 -8.89872 9.50022e-09
360 1 14.151 14.1521 11.0099 -8.90011 1.67166e-10
361 1 15.7235 12.5795 9.44218 -8.89865 9.32557e-09
362 1 17.2959 14.152 11.0106 -8.90007 8.43253e-11
363 1 18.8682 12.5794 9.44265 -8.89865 9.10064e-09
364 1 20.4405 14.1519 11.011 -8.90009 1.14518e-11
365 1 -0.00101241 15.7243 9.44296 -8.89865 9.30403e-09
366 1 1.57128 17.2968 11.0112 -8.90009 1.10503e-10
367 1 3.14368 15.7243 9.44283 -8.89864 9.44634e-09
368 1 4.716 17.2968 11.0109 -8.90006 1.11494e-10
369 1 6.28846 15.7244 9.44248 -8.89864 9.56221e-09
370 1 7.86086 17.2969 11.0106 -8.90007 5.66569e-11
371 1 9.43342 15.7245 9.44217 -8.89865 9.63961e-09
372 1 11.0059 17.297 11.0104 -8.90008 6.89184e-11
373 1 12.5785 15.7245 9.44218 -8.89865 9.63116e-09
374 1 14.1509 17.2969 11.0106 -8.90007 8.67861e-11
375 1 15.7234 15.7244 9.44248 -8.89864 9.46236e-09
376 1 17.2958 17.2968 11.0109 -8.90006 3.80607e-11
377 1 18.8682 15.7243 9.44283 -8.89864 9.28522e-09
378 1 20.4405 17.2968 11.0112 -8.90009 3.85154e-11
379 1 -0.00101225 18.8691 9.44312 -8.89865 9.65907e-09
380 1 1.57131 20.4415 11.0113 -8.9001 2.17533e-10
381 1 3.14373 18.8692 9.44303 -8.89865 9.82454e-09
382 1 4.71608 20.4416 11.0112 -8.90009 2.14626e-10
383 1 6.28854 18.8692 9.44282 -8.89864 9.90756e-09
384 1 7.86094 20.4416 11.011 -8.90009 1.15432e-10
385 1 9.43345 18.8692 9.44265 -8.89865 9.91818e-09
386 1 11.0059 20.4416 11.0109 -8.90009 7.25888e-11
387 1 12.5784 18.8692 9.44265 -8.89865 9.86119e-09
388 1 14.1508 20.4416 11.011 -8.90009 6.5901e-11
389 1 15.7233 18.8692 9.44283 -8.89864 9.69964e-09
390 1 17.2957 20.4416 11.0112 -8.90009 4.54948e-11
391 1 18.8681 18.8692 9.44304 -8.89865 9.57778e-09
392 1 20.4405 20.4415 11.0113 -8.9001 1.04139e-10
393 1 -0.00112164 -4.86511e-16 12.5796 -8.89868 7.50574e-09
394 1 3.14366 -8.08253e-16 12.5795 -8.89867 7.41367e-09
395 1 6.28847 -5.14624e-16 12.5793 -8.89867 7.12515e-09
396 1 9.43336 -4.12282e-16 12.5791 -8.89868 6.94027e-09
397 1 12.5783 -5.00321e-16 12.5791 -8.89868 7.03498e-09
398 1 15.7232 -5.96747e-16 12.5793 -8.89867 7.24145e-09
399 1 18.868 -4.95276e-16 12.5795 -8.89867 7.41073e-09
400 1 22.0128 3.14478 12.5795 -8.89867 7.62944e-09
401 1 3.14362 3.14474 12.5794 -8.89866 7.5254e-09
402 1 6.2884 3.14464 12.5791 -8.89864 7.25264e-09
403 1 9.43333 3.14455 12.5788 -8.89865 7.09683e-09
404 1 12.5783 3.14455 12.5788 -8.89865 7.22209e-09
405 1 15.7233 3.14464 12.5791 -8.89864 7.43495e-09
406 1 18.868 3.14474 12.5794 -8.89866 7.57264e-09
407 1 22.0128 6.28959 12.5793 -8.89867 7.9348e-09
408 1 3.14351 6.28952 12.5791 -8.89864 7.801e-09
409 1 6.28821 6.28933 12.5785 -8.89854 7.56899e-09
410 1 9.43322 6.28917 12.5779 -8.8986 7.47845e-09
411 1 12.5784 6.28917 12.5779 -8.8986 7.67467e-09
412 1 15.7234 6.28933 12.5785 -8.89854 7.90713e-09
413 1 18.8681 6.28952 12.5791 -8.89864 7.96508e-09
414 1 22.0128 9.43448 12.5791 -8.89868 8.2086e-09
415 1 3.14343 9.43445 12.5788 -8.89865 8.04293e-09
416 1 6.28805 9.43434 12.5779 -8.8986 7.82728e-09
417 1 9.43309 9.43421 12.5768 -8.89878 7.79322e-09
418 1 12.5786 9.43421 12.5768 -8.89878 8.03727e-09
419 1 15.7236 9.43434 12.5779 -8.8986 8.28407e-09
420 1 18.8682 9.43445 12.5788 -8.89865 8.30102e-09
421 1 22.0128 12.5794 12.5791 -8.89868 8.2086e-09
422 1 3.14343 12.5795 12.5788 -8.89865 8.04293e-09
423 1 6.28805 12.5796 12.5779 -8.8986 7.82728e-09
424 1 9.43309 12.5797 12.5768 -8.89878 7.79322e-09
425 1 12.5786 12.5797 12.5768 -8.89878 8.03727e-09
426 1 15.7236 12.5796 12.5779 -8.8986 8.28407e-09
427 1 18.8682 12.5795 12.5788 -8.89865 8.30102e-09
428 1 22.0128 15.7243 12.5793 -8.89867 7.9348e-09
429 1 3.14351 15.7244 12.5791 -8.89864 7.801e-09
430 1 6.28821 15.7246 12.5785 -8.89854 7.56899e-09
431 1 9.43322 15.7247 12.5779 -8.8986 7.47845e-09
432 1 12.5784 15.7247 12.5779 -8.8986 7.67467e-09
433 1 15.7234 15.7246 12.5785 -8.89854 7.90713e-09
434 1 18.8681 15.7244 12.5791 -8.89864 7.96508e-09
435 1 22.0128 18.8691 12.5795 -8.89867 7.62944e-09
436 1 3.14362 18.8692 12.5794 -8.89866 7.5254e-09
437 1 6.2884 18.8693 12.5791 -8.89864 7.25264e-09
438 1 9.43333 18.8693 12.5788 -8.89865 7.09683e-09
439 1 12.5783 18.8693 12.5788 -8.89865 7.22209e-09
440 1 15.7233 18.8693 12.5791 -8.89864 7.43495e-09
441 1 18.868 18.8692 12.5794 -8.89866 7.57264e-09
442 1 1.57124 1.57241 14.1479 -8.9047 3.10121e-08
443 1 4.71604 1.57237 14.1478 -8.90468 3.0574e-08
444 1 7.86087 1.5723 14.1475 -8.9047 3.01019e-08
445 1 11.0058 1.57227 14.1474 -8.9047 3.00899e-08
446 1 14.1507 1.5723 14.1475 -8.9047 3.05106e-08
447 1 17.2955 1.57237 14.1478 -8.90468 3.09415e-08
448 1 20.4403 1.57241 14.1479 -8.9047 3.11243e-08
449 1 1.5712 4.71722 14.1478 -8.90468 3.1676e-08
450 1 4.71591 4.71708 14.1475 -8.90465 3.12691e-08
451 1 7.8607 4.71685 14.1469 -8.90465 3.08372e-08
452 1 11.0058 4.71676 14.1466 -8.90466 3.08855e-08
453 1 14.1509 4.71685 14.1469 -8.90465 3.13793e-08
454 1 17.2956 4.71708 14.1475 -8.90465 3.17941e-08
455 1 20.4404 4.71722 14.1478 -8.90468 3.18522e-08
456 1 1.57113 7.86204 14.1475 -8.9047 3.25071e-08
457 1 4.71568 7.86188 14.1469 -8.90465 3.21021e-08
458 1 7.86033 7.8615 14.1455 -8.9044 3.17627e-08
459 1 11.0058 7.86138 14.1447 -8.90466 3.18645e-08
460 1 14.1512 7.8615 14.1455 -8.9044 3.24775e-08
461 1 17.2959 7.86188 14.1469 -8.90465 3.28166e-08
462 1 20.4404 7.86204 14.1475 -8.9047 3.27633e-08
463 1 1.5711 11.007 14.1474 -8.9047 3.28769e-08
464 1 4.71559 11.007 14.1466 -8.90466 3.24512e-08
465 1 7.8602 11.007 14.1447 -8.90466 3.2104e-08
466 1 11.0058 11.007 14.1432 -8.90674 3.22265e-08
467 1 14.1513 11.007 14.1447 -8.90466 3.28778e-08
468 1 17.296 11.007 14.1466 -8.90466 3.32444e-08
469 1 20.4405 11.007 14.1474 -8.9047 3.31676e-08
470 1 1.57113 14.1519 14.1475 -8.9047 3.25071e-08
471 1 4.71568 14.152 14.1469 -8.90465 3.21021e-08
472 1 7.86033 14.1524 14.1455 -8.9044 3.17627e-08
473 1 11.0058 14.1525 14.1447 -8.90466 3.18645e-08
474 1 14.1512 14.1524 14.1455 -8.9044 3.24775e-08
475 1 17.2959 14.152 14.1469 -8.90465 3.28166e-08
476 1 20.4404 14.1519 14.1475 -8.9047 3.27633e-08
477 1 1.5712 17.2967 14.1478 -8.90468 3.1676e-08
478 1 4.71591 17.2968 14.1475 -8.90465 3.12691e-08
479 1 7.8607 17.297 14.1469 -8.90465 3.08372e-08
480 1 11.0058 17.2971 14.1466 -8.90466 3.08855e-08
481 1 14.1509 17.297 14.1469 -8.90465 3.13793e-08
482 1 17.2956 17.2968 14.1475 -8.90465 3.17941e-08
483 1 20.4404 17.2967 14.1478 -8.90468 3.18522e-08
484 1 1.57124 20.4415 14.1479 -8.9047 3.10121e-08
485 1 4.71604 20.4415 14.1478 -8.90468 3.0574e-08
486 1 7.86087 20.4416 14.1475 -8.9047 3.01019e-08
487 1 11.0058 20.4416 14.1474 -8.9047 3.00899e-08
488 1 14.1507 20.4416 14.1475 -8.9047 3.05106e-08
489 1 17.2955 20.4415 14.1478 -8.90468 3.09415e-08
490 1 20.4403 20.4415 14.1479 -8.9047 3.11243e-08
491 1 22.0127 -6.70174e-16 15.7172 -8.88818 6.51165e-08
492 1 1.57129 1.57255 17.279 -8.90297 1.08673e-07
493 1 3.1437 -8.55804e-16 15.7172 -8.88819 6.47879e-08
494 1 4.71628 1.5726 17.279 -8.90302 1.08186e-07
495 1 6.28852 -8.39881e-16 15.7171 -8.88817 6.41784e-08
496 1 7.861 1.57254 17.2788 -8.9031 1.07595e-07
497 1 9.43332 -8.3777e-16 15.7169 -8.8882 6.38171e-08
498 1 11.0057 1.5725 17.2787 -8.90309 1.07502e-07
499 1 12.5781 -6.62555e-16 15.7169 -8.8882 6.40851e-08
500 1 14.1504 1.57254 17.2788 -8.9031 1.08011e-07
501 1 15.7229 -6.33515e-16 15.7171 -8.88817 6.46453e-08
502 1 17.2951 1.5726 17.279 -8.90302 1.085e-07
503 1 18.8678 -4.74096e-16 15.7172 -8.88819 6.50257e-08
504 1 20.4401 1.57255 17.279 -8.90297 1.08742e-07
505 1 22.0127 3.14492 15.7172 -8.88819 6.57656e-08
506 1 1.57134 4.71755 17.279 -8.90302 1.1047e-07
507 1 3.14369 3.14491 15.7171 -8.88818 6.54227e-08
508 1 4.71638 4.71764 17.2789 -8.90324 1.10059e-07
509 1 6.28845 3.14478 15.7169 -8.88809 6.48805e-08
510 1 7.86084 4.71722 17.2782 -8.90292 1.09763e-07
511 1 9.43328 3.14464 15.7165 -8.88817 6.45485e-08
512 1 11.0057 4.71706 17.2777 -8.90284 1.09711e-07
513 1 12.5782 3.14464 15.7165 -8.88817 6.48676e-08
514 1 14.1505 4.71722 17.2782 -8.90292 1.10409e-07
515 1 15.723 3.14478 15.7169 -8.88809 6.54546e-08
516 1 17.295 4.71764 17.2789 -8.90324 1.10588e-07
517 1 18.8678 3.14491 15.7171 -8.88818 6.57345e-08
518 1 20.44 4.71755 17.279 -8.90302 1.10627e-07
519 1 22.0127 6.28974 15.7171 -8.88817 6.72921e-08
520 1 1.57127 7.86227 17.2788 -8.9031 1.12795e-07
521 1 3.14356 6.28967 15.7169 -8.88809 6.69597e-08
522 1 4.71596 7.86211 17.2782 -8.90292 1.12658e-07
523 1 6.28813 6.28936 15.7161 -8.8877 6.66301e-08
524 1 7.85978 7.86105 17.2759 -8.90267 1.12732e-07
525 1 9.43305 6.28897 15.7149 -8.88787 6.6301e-08
526 1 11.0057 7.86102 17.2737 -8.90497 1.12613e-07
527 1 12.5784 6.28897 15.7149 -8.88787 6.67499e-08
528 1 14.1516 7.86105 17.2759 -8.90267 1.13827e-07
529 1 15.7233 6.28936 15.7161 -8.8877 6.75054e-08
530 1 17.2954 7.86211 17.2782 -8.90292 1.13542e-07
531 1 18.8679 6.28967 15.7169 -8.88809 6.74613e-08
532 1 20.4401 7.86227 17.2788 -8.9031 1.13076e-07
533 1 22.0127 9.43454 15.7169 -8.8882 6.85097e-08
534 1 1.57124 11.007 17.2787 -8.90309 1.1381e-07
535 1 3.14342 9.4345 15.7165 -8.88817 6.81426e-08
536 1 4.71579 11.007 17.2777 -8.90284 1.13679e-07
537 1 6.28775 9.43427 15.7149 -8.88787 6.78111e-08
538 1 7.85975 11.007 17.2737 -8.90497 1.13684e-07
539 1 9.43246 9.43369 15.7118 -8.88714 6.7529e-08
540 1 11.0057 11.007 17.2662 -8.91709 1.14114e-07
541 1 12.579 9.43369 15.7118 -8.88714 6.80401e-08
542 1 14.1516 11.007 17.2737 -8.90497 1.14817e-07
543 1 15.7237 9.43427 15.7149 -8.88788 6.88685e-08
544 1 17.2956 11.007 17.2777 -8.90284 1.14692e-07
545 1 18.868 9.4345 15.7165 -8.88817 6.87883e-08
546 1 20.4401 11.007 17.2787 -8.90309 1.14146e-07
547 1 22.0127 12.5794 15.7169 -8.8882 6.85097e-08
548 1 1.57127 14.1516 17.2788 -8.9031 1.12795e-07
549 1 3.14342 12.5794 15.7165 -8.88817 6.81426e-08
550 1 4.71596 14.1518 17.2782 -8.90292 1.12658e-07
551 1 6.28775 12.5796 15.7149 -8.88787 6.78111e-08
552 1 7.85978 14.1529 17.2759 -8.90267 1.12732e-07
553 1 9.43246 12.5802 15.7118 -8.88714 6.7529e-08
554 1 11.0057 14.1529 17.2737 -8.90497 1.12613e-07
555 1 12.579 12.5802 15.7118 -8.88714 6.80401e-08
556 1 14.1516 14.1529 17.2759 -8.90267 1.13827e-07
557 1 15.7237 12.5796 15.7149 -8.88788 6.88685e-08
558 1 17.2954 14.1518 17.2782 -8.90292 1.13542e-07
559 1 18.868 12.5794 15.7165 -8.88817 6.87883e-08
560 1 20.4401 14.1516 17.2788 -8.9031 1.13076e-07
561 1 22.0127 15.7242 15.7171 -8.88817 6.72921e-08
562 1 1.57134 17.2964 17.279 -8.90302 1.1047e-07
563 1 3.14356 15.7242 15.7169 -8.88809 6.69597e-08
564 1 4.71638 17.2963 17.2789 -8.90324 1.10059e-07
565 1 6.28813 15.7245 15.7161 -8.8877 6.66301e-08
566 1 7.86084 17.2967 17.2782 -8.90292 1.09763e-07
567 1 9.43305 15.7249 15.7149 -8.88787 6.6301e-08
568 1 11.0057 17.2968 17.2777 -8.90284 1.09711e-07
569 1 12.5784 15.7249 15.7149 -8.88787 6.67499e-08
570 1 14.1505 17.2967 17.2782 -8.90292 1.10409e-07
571 1 15.7233 15.7245 15.7161 -8.8877 6.75054e-08
572 1 17.295 17.2963 17.2789 -8.90324 1.10588e-07
573 1 18.8679 15.7242 15.7169 -8.88809 6.74613e-08
574 1 20.44 17.2964 17.279 -8.90302 1.10627e-07
575 1 22.0127 18.869 15.7172 -8.88819 6.57656e-08
576 1 1.57129 20.4413 17.279 -8.90297 1.08673e-07
577 1 3.14369 18.869 15.7171 -8.88818 6.54227e-08
578 1 4.71628 20.4413 17.279 -8.90302 1.08186e-07
579 1 6.28845 18.8691 15.7169 -8.88809 6.48805e-08
580 1 7.861 20.4414 17.2788 -8.9031 1.07595e-07
581 1 9.43328 18.8693 15.7165 -8.88817 6.45485e-08
582 1 11.0057 20.4414 17.2787 -8.90309 1.07502e-07
583 1 12.5782 18.8693 15.7165 -8.88817 6.48676e-08