ITEM: TIMESTEP
280
ITEM: NUMBER OF ATOMS
736
ITEM: BOX BOUNDS pp pp pp
0.0000000000000000e+00 2.2013900999999997e+01
0.0000000000000000e+00 2.2013900999999997e+01
0.0000000000000000e+00 5.3462330999999999e+01
ITEM: ATOMS id type x y z c_pot c_ke
1 1 -0.000950491 7.77725e-16 0.0976349 -7.40188 1.37477e-09
2 1 1.57144 1.5724 1.62442 -8.68379 1.22692e-09
3 1 3.14384 1.35412e-15 0.0976083 -7.40187 1.37867e-09
4 1 4.71625 1.57239 1.62435 -8.68379 1.22924e-09
5 1 6.28867 2.45684e-15 0.097549 -7.40185 1.3825e-09
6 1 7.86111 1.57239 1.62427 -8.68378 1.23075e-09
7 1 9.43355 2.27497e-15 0.0975015 -7.40183 1.38338e-09
8 1 11.006 1.57239 1.62423 -8.68378 1.23032e-09
9 1 12.5785 2.07574e-15 0.0975016 -7.40183 1.38065e-09
10 1 14.1509 1.57239 1.62427 -8.68378 1.22827e-09
11 1 15.7233 2.40717e-15 0.0975491 -7.40185 1.37636e-09
12 1 17.2957 1.57239 1.62435 -8.68379 1.22613e-09
13 1 18.8682 1.01958e-15 0.0976085 -7.40187 1.37374e-09
14 1 20.4405 1.5724 1.62442 -8.68379 1.22552e-09
15 1 -0.000950486 3.14479 0.0976084 -7.40187 1.37465e-09
16 1 1.57144 4.71721 1.62435 -8.68379 1.22674e-09
17 1 3.14384 3.14479 0.0975791 -7.40186 1.37854e-09
18 1 4.71625 4.7172 1.62427 -8.68378 1.22903e-09
19 1 6.28866 3.14478 0.0975134 -7.40184 1.38233e-09
20 1 7.8611 4.71719 1.62417 -8.68377 1.23049e-09
21 1 9.43355 3.14477 0.0974608 -7.40182 1.38317e-09
22 1 11.006 4.71719 1.62412 -8.68377 1.23004e-09
23 1 12.5785 3.14477 0.0974609 -7.40182 1.38044e-09
24 1 14.1509 4.71719 1.62417 -8.68377 1.22802e-09
25 1 15.7233 3.14478 0.0975136 -7.40184 1.37619e-09
26 1 17.2957 4.7172 1.62427 -8.68378 1.22593e-09
27 1 18.8682 3.14479 0.0975792 -7.40186 1.37361e-09
28 1 20.4405 4.71721 1.62435 -8.68379 1.22536e-09
29 1 -0.000950476 6.28962 0.0975491 -7.40185 1.37439e-09
30 1 1.57143 7.86206 1.62427 -8.68378 1.22654e-09
31 1 3.14383 6.28962 0.0975135 -7.40184 1.37823e-09
32 1 4.71624 7.86206 1.62417 -8.68377 1.22878e-09
33 1 6.28866 6.28961 0.0974332 -7.40181 1.38194e-09
34 1 7.86109 7.86205 1.62404 -8.68377 1.23018e-09
35 1 9.43354 6.2896 0.0973685 -7.40178 1.38271e-09
36 1 11.006 7.86205 1.62398 -8.68376 1.22972e-09
37 1 12.5785 6.2896 0.0973686 -7.40178 1.37999e-09
38 1 14.1509 7.86205 1.62404 -8.68377 1.22774e-09
39 1 15.7233 6.28961 0.0974334 -7.40181 1.37582e-09
40 1 17.2957 7.86206 1.62417 -8.68377 1.22571e-09
41 1 18.8682 6.28962 0.0975136 -7.40184 1.37332e-09
42 1 20.4406 7.86206 1.62427 -8.68378 1.22517e-09
43 1 -0.000950467 9.4345 0.0975016 -7.40183 1.37419e-09
44 1 1.57143 11.007 1.62423 -8.68378 1.22646e-09
45 1 3.14382 9.4345 0.0974608 -7.40182 1.378e-09
46 1 4.71623 11.007 1.62412 -8.68377 1.22868e-09
47 1 6.28865 9.43449 0.0973685 -7.40178 1.38163e-09
48 1 7.86109 11.007 1.62398 -8.68376 1.23006e-09
49 1 9.43354 9.43449 0.0972937 -7.40175 1.38235e-09
50 1 11.006 11.007 1.62392 -8.68376 1.22958e-09
51 1 12.5785 9.43449 0.0972937 -7.40175 1.37964e-09
52 1 14.1509 11.007 1.62398 -8.68376 1.22762e-09
53 1 15.7234 9.43449 0.0973687 -7.40178 1.37552e-09
54 1 17.2958 11.007 1.62412 -8.68377 1.22562e-09
55 1 18.8682 9.4345 0.0974609 -7.40182 1.37309e-09
56 1 20.4406 11.007 1.62423 -8.68378 1.22509e-09
57 1 -0.000950467 12.5794 0.0975016 -7.40183 1.37419e-09
58 1 1.57143 14.1518 1.62427 -8.68378 1.22654e-09
59 1 3.14382 12.5794 0.0974608 -7.40182 1.378e-09
60 1 4.71624 14.1518 1.62417 -8.68377 1.22878e-09
61 1 6.28865 12.5794 0.0973685 -7.40178 1.38163e-09
62 1 7.86109 14.1519 1.62404 -8.68377 1.23018e-09
63 1 9.43354 12.5794 0.0972937 -7.40175 1.38235e-09
64 1 11.006 14.1519 1.62398 -8.68376 1.22972e-09
65 1 12.5785 12.5794 0.0972937 -7.40175 1.37964e-09
66 1 14.1509 14.1519 1.62404 -8.68377 1.22774e-09
67 1 15.7234 12.5794 0.0973687 -7.40178 1.37552e-09
68 1 17.2957 14.1518 1.62417 -8.68377 1.22571e-09
69 1 18.8682 12.5794 0.0974609 -7.40182 1.37309e-09
70 1 20.4406 14.1518 1.62427 -8.68378 1.22517e-09
71 1 -0.000950476 15.7243 0.0975491 -7.40185 1.37439e-09
72 1 1.57144 17.2967 1.62435 -8.68379 1.22674e-09
73 1 3.14383 15.7243 0.0975135 -7.40184 1.37823e-09
74 1 4.71625 17.2967 1.62427 -8.68378 1.22903e-09
75 1 6.28866 15.7243 0.0974332 -7.40181 1.38194e-09
76 1 7.8611 17.2967 1.62417 -8.68377 1.23049e-09
77 1 9.43354 15.7243 0.0973685 -7.40178 1.38271e-09
78 1 11.006 17.2967 1.62412 -8.68377 1.23004e-09
79 1 12.5785 15.7243 0.0973686 -7.40178 1.37999e-09
80 1 14.1509 17.2967 1.62417 -8.68377 1.22802e-09
81 1 15.7233 15.7243 0.0974334 -7.40181 1.37582e-09
82 1 17.2957 17.2967 1.62427 -8.68378 1.22593e-09
83 1 18.8682 15.7243 0.0975136 -7.40184 1.37332e-09
84 1 20.4405 17.2967 1.62435 -8.68379 1.22536e-09
85 1 -0.000950486 18.8691 0.0976084 -7.40187 1.37465e-09
86 1 1.57144 20.4415 1.62442 -8.68379 1.22692e-09
87 1 3.14384 18.8691 0.0975791 -7.40186 1.37854e-09
88 1 4.71625 20.4415 1.62435 -8.68379 1.22924e-09
89 1 6.28866 18.8691 0.0975134 -7.40184 1.38233e-09
90 1 7.86111 20.4415 1.62427 -8.68378 1.23075e-09
91 1 9.43355 18.8691 0.0974608 -7.40182 1.38317e-09
92 1 11.006 20.4415 1.62423 -8.68378 1.23032e-09
93 1 12.5785 18.8691 0.0974609 -7.40182 1.38044e-09
94 1 14.1509 20.4415 1.62427 -8.68378 1.22827e-09
95 1 15.7233 18.8691 0.0975136 -7.40184 1.37619e-09
96 1 17.2957 20.4415 1.62435 -8.68379 1.22613e-09
97 1 18.8682 18.8691 0.0975792 -7.40186 1.37361e-09
98 1 20.4405 20.4415 1.62442 -8.68379 1.22552e-09
99 1 -0.000966227 3.0359e-15 3.15455 -8.93805 1.03357e-09
100 1 1.57142 1.5724 4.74383 -8.90301 7.72603e-10
101 1 3.14384 -1.60385e-16 3.15451 -8.93805 1.03445e-09
102 1 4.71623 1.57239 4.74374 -8.90301 7.73049e-10
103 1 6.28867 -7.54866e-15 3.15442 -8.93806 1.03549e-09
104 1 7.86108 1.57239 4.74364 -8.90301 7.73541e-10
105 1 9.43354 -1.26066e-14 3.15435 -8.93807 1.03592e-09
106 1 11.006 1.57238 4.74359 -8.90301 7.73722e-10
107 1 12.5784 -1.35426e-14 3.15435 -8.93807 1.03543e-09
108 1 14.1509 1.57239 4.74364 -8.90301 7.73451e-10
109 1 15.7233 -7.76877e-15 3.15442 -8.93806 1.03437e-09
110 1 17.2957 1.57239 4.74374 -8.90301 7.7292e-10
111 1 18.8681 -1.22901e-15 3.15451 -8.93805 1.03353e-09
112 1 20.4405 1.5724 4.74383 -8.90301 7.7254e-10
113 1 -0.000966221 3.14481 3.15451 -8.93805 1.03351e-09
114 1 1.57141 4.71721 4.74374 -8.90301 7.72555e-10
115 1 3.14384 3.1448 3.15446 -8.93806 1.03438e-09
116 1 4.71622 4.7172 4.74364 -8.90301 7.7299e-10
117 1 6.28867 3.14479 3.15436 -8.93807 1.0354e-09
118 1 7.86107 4.71718 4.7435 -8.90301 7.73466e-10
119 1 9.43354 3.14479 3.15428 -8.93808 1.03583e-09
120 1 11.006 4.71718 4.74344 -8.90301 7.7363e-10
121 1 12.5784 3.14479 3.15428 -8.93808 1.03534e-09
122 1 14.1509 4.71718 4.7435 -8.90301 7.73362e-10
123 1 15.7233 3.14479 3.15436 -8.93807 1.03429e-09
124 1 17.2957 4.7172 4.74364 -8.90301 7.72854e-10
125 1 18.8681 3.1448 3.15446 -8.93806 1.03347e-09
126 1 20.4405 4.71721 4.74374 -8.90301 7.72493e-10
127 1 -0.000966206 6.28964 3.15442 -8.93806 1.0334e-09
128 1 1.57141 7.86206 4.74364 -8.90301 7.72543e-10
129 1 3.14383 6.28963 3.15436 -8.93807 1.03424e-09
130 1 4.7162 7.86205 4.7435 -8.90301 7.72977e-10
131 1 6.28866 6.28962 3.15424 -8.93808 1.03524e-09
132 1 7.86106 7.86204 4.74333 -8.90301 7.73435e-10
133 1 9.43353 6.28962 3.15413 -8.9381 1.03564e-09
134 1 11.006 7.86203 4.74325 -8.90302 7.73574e-10
135 1 12.5784 6.28962 3.15413 -8.9381 1.03516e-09
136 1 14.1509 7.86204 4.74333 -8.90301 7.73312e-10
137 1 15.7233 6.28962 3.15424 -8.93808 1.03415e-09
138 1 17.2957 7.86205 4.7435 -8.90301 7.72826e-10
139 1 18.8681 6.28963 3.15436 -8.93807 1.03336e-09
140 1 20.4405 7.86206 4.74364 -8.90301 7.72479e-10
141 1 -0.000966193 9.43451 3.15435 -8.93807 1.03333e-09
142 1 1.5714 11.007 4.74359 -8.90301 7.72553e-10
143 1 3.14382 9.43451 3.15428 -8.93808 1.03416e-09
144 1 4.7162 11.007 4.74344 -8.90301 7.72992e-10
145 1 6.28865 9.4345 3.15413 -8.9381 1.03515e-09
146 1 7.86105 11.007 4.74325 -8.90302 7.73445e-10
147 1 9.43353 9.4345 3.15401 -8.93812 1.03553e-09
148 1 11.006 11.007 4.74316 -8.90302 7.7357e-10
149 1 12.5784 9.4345 3.15401 -8.93812 1.03504e-09
150 1 14.1509 11.007 4.74325 -8.90302 7.73311e-10
151 1 15.7233 9.4345 3.15413 -8.9381 1.03406e-09
152 1 17.2957 11.007 4.74344 -8.90301 7.72832e-10
153 1 18.8681 9.43451 3.15428 -8.93808 1.03329e-09
154 1 20.4405 11.007 4.74359 -8.90301 7.72487e-10
155 1 -0.000966193 12.5794 3.15435 -8.93807 1.03333e-09
156 1 1.57141 14.1518 4.74364 -8.90301 7.72543e-10
157 1 3.14382 12.5794 3.15428 -8.93808 1.03416e-09
158 1 4.7162 14.1518 4.7435 -8.90301 7.72977e-10
159 1 6.28865 12.5794 3.15413 -8.9381 1.03515e-09
160 1 7.86106 14.1519 4.74333 -8.90301 7.73435e-10
161 1 9.43353 12.5794 3.15401 -8.93812 1.03553e-09
162 1 11.006 14.1519 4.74325 -8.90302 7.73574e-10
163 1 12.5784 12.5794 3.15401 -8.93812 1.03504e-09
164 1 14.1509 14.1519 4.74333 -8.90301 7.73312e-10
165 1 15.7233 12.5794 3.15413 -8.9381 1.03406e-09
166 1 17.2957 14.1518 4.7435 -8.90301 7.72826e-10
167 1 18.8681 12.5794 3.15428 -8.93808 1.03329e-09
168 1 20.4405 14.1518 4.74364 -8.90301 7.72479e-10
169 1 -0.000966206 15.7243 3.15442 -8.93806 1.0334e-09
170 1 1.57141 17.2967 4.74374 -8.90301 7.72555e-10
171 1 3.14383 15.7243 3.15436 -8.93807 1.03424e-09
172 1 4.71622 17.2967 4.74364 -8.90301 7.7299e-10
173 1 6.28866 15.7243 3.15424 -8.93808 1.03524e-09
174 1 7.86107 17.2967 4.7435 -8.90301 7.73466e-10
175 1 9.43353 15.7243 3.15413 -8.9381 1.03564e-09
176 1 11.006 17.2967 4.74344 -8.90301 7.7363e-10
177 1 12.5784 15.7243 3.15413 -8.9381 1.03516e-09
178 1 14.1509 17.2967 4.7435 -8.90301 7.73362e-10
179 1 15.7233 15.7243 3.15424 -8.93808 1.03415e-09
180 1 17.2957 17.2967 4.74364 -8.90301 7.72854e-10
181 1 18.8681 15.7243 3.15436 -8.93807 1.03336e-09
182 1 20.4405 17.2967 4.74374 -8.90301 7.72493e-10
183 1 -0.000966221 18.8691 3.15451 -8.93805 1.03351e-09
184 1 1.57142 20.4415 4.74383 -8.90301 7.72603e-10
185 1 3.14384 18.8691 3.15446 -8.93806 1.03438e-09
186 1 4.71623 20.4415 4.74374 -8.90301 7.73049e-10
187 1 6.28867 18.8691 3.15436 -8.93807 1.0354e-09
188 1 7.86108 20.4415 4.74364 -8.90301 7.73541e-10
189 1 9.43354 18.8691 3.15428 -8.93808 1.03583e-09
190 1 11.006 20.4415 4.74359 -8.90301 7.73722e-10
191 1 12.5784 18.8691 3.15428 -8.93808 1.03534e-09
192 1 14.1509 20.4415 4.74364 -8.90301 7.73451e-10
193 1 15.7233 18.8691 3.15436 -8.93807 1.03429e-09
194 1 17.2957 20.4415 4.74374 -8.90301 7.7292e-10
195 1 18.8681 18.8691 3.15446 -8.93806 1.03347e-09
196 1 20.4405 20.4415 4.74383 -8.90301 7.7254e-10
197 1 -0.000999348 -2.44741e-14 6.3056 -8.88811 4.72276e-10
198 1 1.57136 1.57238 7.87482 -8.90467 2.31709e-10
199 1 3.14379 -1.64765e-14 6.30555 -8.88811 4.72529e-10
200 1 4.71615 1.57237 7.8747 -8.90467 2.32028e-10
201 1 6.28862 -1.61113e-15 6.30544 -8.88812 4.73039e-10
202 1 7.86101 1.57235 7.87456 -8.90467 2.32422e-10
203 1 9.4335 1.43749e-14 6.30534 -8.88812 4.73431e-10
204 1 11.0059 1.57235 7.87449 -8.90467 2.32603e-10
205 1 12.5784 1.47379e-14 6.30534 -8.88812 4.73411e-10
206 1 14.1508 1.57235 7.87456 -8.90467 2.32412e-10
207 1 15.7233 -2.30587e-15 6.30544 -8.88812 4.72982e-10
208 1 17.2957 1.57237 7.8747 -8.90467 2.3199e-10
209 1 18.8681 -1.68174e-14 6.30555 -8.88811 4.72473e-10
210 1 20.4405 1.57238 7.87482 -8.90467 2.31679e-10
211 1 -0.000999339 3.14479 6.30555 -8.88811 4.72253e-10
212 1 1.57135 4.71717 7.8747 -8.90467 2.31678e-10
213 1 3.14378 3.14478 6.30549 -8.88811 4.72512e-10
214 1 4.71612 4.71714 7.87454 -8.90466 2.31943e-10
215 1 6.2886 3.14476 6.30535 -8.88812 4.73016e-10
216 1 7.86098 4.7171 7.87433 -8.90467 2.32338e-10
217 1 9.43349 3.14474 6.30524 -8.88812 4.73398e-10
218 1 11.0059 4.71708 7.87423 -8.90467 2.3257e-10
219 1 12.5784 3.14474 6.30524 -8.88812 4.73369e-10
220 1 14.1509 4.7171 7.87433 -8.90467 2.3242e-10
221 1 15.7233 3.14476 6.30535 -8.88812 4.72938e-10
222 1 17.2957 4.71714 7.87454 -8.90466 2.31972e-10
223 1 18.8681 3.14478 6.30549 -8.88811 4.72431e-10
224 1 20.4405 4.71717 7.8747 -8.90467 2.31624e-10
225 1 -0.000999316 6.28962 6.30544 -8.88812 4.7226e-10
226 1 1.57133 7.86203 7.87456 -8.90467 2.31718e-10
227 1 3.14376 6.2896 6.30535 -8.88812 4.72533e-10
228 1 4.71608 7.862 7.87433 -8.90467 2.31919e-10
229 1 6.28857 6.28957 6.30515 -8.88812 4.73006e-10
230 1 7.86094 7.86196 7.87401 -8.90469 2.32309e-10
231 1 9.43348 6.28955 6.30499 -8.88813 4.73377e-10
232 1 11.0059 7.86194 7.87386 -8.90471 2.32652e-10
233 1 12.5784 6.28955 6.30499 -8.88813 4.73362e-10
234 1 14.1509 7.86196 7.87401 -8.90469 2.32601e-10
235 1 15.7233 6.28957 6.30515 -8.88812 4.72943e-10
236 1 17.2958 7.862 7.87433 -8.90467 2.32107e-10
237 1 18.8681 6.2896 6.30535 -8.88812 4.72421e-10
238 1 20.4405 7.86203 7.87456 -8.90467 2.31662e-10
239 1 -0.000999294 9.4345 6.30534 -8.88812 4.72318e-10
240 1 1.57133 11.007 7.87449 -8.90467 2.31763e-10
241 1 3.14374 9.43449 6.30524 -8.88812 4.72607e-10
242 1 4.71606 11.007 7.87423 -8.90467 2.31938e-10
243 1 6.28855 9.43448 6.30499 -8.88813 4.73057e-10
244 1 7.86092 11.007 7.87386 -8.90471 2.32332e-10
245 1 9.43347 9.43447 6.30478 -8.88815 4.73418e-10
246 1 11.0059 11.007 7.87367 -8.90475 2.3274e-10
247 1 12.5784 9.43447 6.30478 -8.88815 4.73454e-10
248 1 14.1509 11.007 7.87386 -8.90471 2.32748e-10
249 1 15.7234 9.43448 6.30499 -8.88813 4.73044e-10
250 1 17.2958 11.007 7.87423 -8.90467 2.32217e-10
251 1 18.8682 9.43449 6.30524 -8.88812 4.72479e-10
252 1 20.4405 11.007 7.87449 -8.90467 2.3171e-10
253 1 -0.000999294 12.5794 6.30534 -8.88812 4.72318e-10
254 1 1.57133 14.1519 7.87456 -8.90467 2.31718e-10
255 1 3.14374 12.5794 6.30524 -8.88812 4.72607e-10
256 1 4.71608 14.1519 7.87433 -8.90467 2.3192e-10
257 1 6.28855 12.5794 6.30499 -8.88813 4.73057e-10
258 1 7.86094 14.1519 7.87401 -8.90469 2.3231e-10
259 1 9.43347 12.5794 6.30478 -8.88815 4.73418e-10
260 1 11.0059 14.152 7.87386 -8.90471 2.32652e-10
261 1 12.5784 12.5794 6.30478 -8.88815 4.73454e-10
262 1 14.1509 14.1519 7.87401 -8.90469 2.326e-10
263 1 15.7234 12.5794 6.30499 -8.88813 4.73045e-10
264 1 17.2958 14.1519 7.87433 -8.90467 2.32107e-10
265 1 18.8682 12.5794 6.30524 -8.88812 4.72479e-10
266 1 20.4405 14.1519 7.87456 -8.90467 2.31662e-10
267 1 -0.000999316 15.7243 6.30544 -8.88812 4.7226e-10
268 1 1.57135 17.2967 7.8747 -8.90467 2.31678e-10
269 1 3.14376 15.7243 6.30535 -8.88812 4.72533e-10
270 1 4.71612 17.2968 7.87454 -8.90466 2.31943e-10
271 1 6.28857 15.7243 6.30515 -8.88812 4.73005e-10
272 1 7.86098 17.2968 7.87433 -8.90467 2.32338e-10
273 1 9.43348 15.7244 6.30499 -8.88813 4.73376e-10
274 1 11.0059 17.2968 7.87423 -8.90467 2.3257e-10
275 1 12.5784 15.7244 6.30499 -8.88813 4.73362e-10
276 1 14.1509 17.2968 7.87433 -8.90467 2.3242e-10
277 1 15.7233 15.7243 6.30515 -8.88812 4.72944e-10
278 1 17.2957 17.2968 7.87454 -8.90466 2.31972e-10
279 1 18.8681 15.7243 6.30535 -8.88812 4.72421e-10
280 1 20.4405 17.2967 7.8747 -8.90467 2.31625e-10
281 1 -0.000999339 18.8691 6.30555 -8.88811 4.72253e-10
282 1 1.57136 20.4415 7.87482 -8.90467 2.31709e-10
283 1 3.14378 18.8691 6.30549 -8.88811 4.72512e-10
284 1 4.71615 20.4415 7.8747 -8.90467 2.32027e-10
285 1 6.2886 18.8691 6.30535 -8.88812 4.73016e-10
286 1 7.86101 20.4415 7.87456 -8.90467 2.32422e-10
287 1 9.43349 18.8692 6.30524 -8.88812 4.73397e-10
288 1 11.0059 20.4416 7.87449 -8.90467 2.32603e-10
289 1 12.5784 18.8692 6.30524 -8.88812 4.73369e-10
290 1 14.1508 20.4415 7.87456 -8.90467 2.32413e-10
291 1 15.7233 18.8691 6.30535 -8.88812 4.72938e-10
292 1 17.2957 20.4415 7.8747 -8.90467 2.3199e-10
293 1 18.8681 18.8691 6.30549 -8.88811 4.72432e-10
294 1 20.4405 20.4415 7.87482 -8.90467 2.31679e-10
295 1 -0.00104358 3.38351e-14 9.44319 -8.89866 6.08581e-11
296 1 1.57131 1.57237 11.0113 -8.9001 3.95747e-14
297 1 3.14372 1.61732e-13 9.44312 -8.89865 6.10116e-11
298 1 4.71608 1.57234 11.0112 -8.90009 4.89929e-14
299 1 6.28854 3.09191e-13 9.44296 -8.89865 6.12609e-11
300 1 7.86094 1.57231 11.011 -8.90009 3.52075e-14
301 1 9.43344 4.0011e-13 9.44283 -8.89865 6.14514e-11
302 1 11.0059 1.57229 11.0109 -8.90009 2.57309e-14
303 1 12.5784 4.00512e-13 9.44283 -8.89865 6.14192e-11
304 1 14.1508 1.57231 11.011 -8.90009 2.46256e-14
305 1 15.7233 3.0929e-13 9.44296 -8.89865 6.11748e-11
306 1 17.2957 1.57234 11.0112 -8.90009 1.6499e-14
307 1 18.8681 1.61776e-13 9.44312 -8.89865 6.09112e-11
308 1 20.4405 1.57237 11.0113 -8.9001 1.80266e-14
309 1 -0.00104358 3.14476 9.44312 -8.89865 6.08059e-11
310 1 1.57128 4.71715 11.0112 -8.90009 2.53206e-14
311 1 3.1437 3.14474 9.44304 -8.89865 6.09272e-11
312 1 4.716 4.71707 11.0109 -8.90006 3.58174e-14
313 1 6.28851 3.14469 9.44283 -8.89864 6.11608e-11
314 1 7.86086 4.71696 11.0106 -8.90007 2.44943e-14
315 1 9.43342 3.14465 9.44265 -8.89865 6.13932e-11
316 1 11.0059 4.71692 11.0104 -8.90008 2.68193e-14
317 1 12.5784 3.14465 9.44265 -8.89865 6.14058e-11
318 1 14.1509 4.71696 11.0106 -8.90007 3.25608e-14
319 1 15.7233 3.14469 9.44283 -8.89864 6.11762e-11
320 1 17.2958 4.71707 11.0109 -8.90006 1.97733e-14
321 1 18.8681 3.14474 9.44304 -8.89865 6.08812e-11
322 1 20.4405 4.71715 11.0112 -8.90009 1.26444e-14
323 1 -0.00104356 6.28958 9.44296 -8.89865 6.07605e-11
324 1 1.57124 7.86201 11.011 -8.90009 1.3467e-14
325 1 3.14365 6.28955 9.44283 -8.89864 6.08033e-11
326 1 4.71589 7.86193 11.0106 -8.90007 2.08933e-14
327 1 6.28843 6.28947 9.44248 -8.89864 6.10582e-11
328 1 7.86074 7.8618 11.0099 -8.90011 5.54489e-14
329 1 9.43338 6.28941 9.44217 -8.89865 6.13521e-11
330 1 11.0059 7.86175 11.0096 -8.90015 1.23878e-13
331 1 12.5784 6.28941 9.44217 -8.89865 6.14429e-11
332 1 14.151 7.8618 11.0099 -8.90011 1.08156e-13
333 1 15.7234 6.28947 9.44248 -8.89864 6.12114e-11
334 1 17.2959 7.86193 11.0106 -8.90007 3.19562e-14
335 1 18.8682 6.28955 9.44283 -8.89864 6.0915e-11
336 1 20.4405 7.86201 11.011 -8.90009 1.29502e-14
337 1 -0.00104353 9.43448 9.44283 -8.89865 6.0784e-11
338 1 1.57122 11.007 11.0109 -8.90009 1.03486e-14
339 1 3.14361 9.43447 9.44265 -8.89865 6.07758e-11
340 1 4.71585 11.007 11.0104 -8.90008 1.78686e-14
341 1 6.28837 9.43443 9.44217 -8.89865 6.11125e-11
342 1 7.86068 11.007 11.0096 -8.90015 1.01205e-13
343 1 9.43335 9.43439 9.44171 -8.89872 6.15128e-11
344 1 11.0059 11.007 11.0091 -8.90037 2.85729e-13
345 1 12.5785 9.43439 9.44171 -8.89872 6.15252e-11
346 1 14.1511 11.007 11.0096 -8.90015 1.54358e-13
347 1 15.7234 9.43443 9.44217 -8.89865 6.13087e-11
348 1 17.2959 11.007 11.0104 -8.90008 4.0802e-14
349 1 18.8682 9.43447 9.44265 -8.89865 6.10166e-11
350 1 20.4405 11.007 11.0109 -8.90009 1.53307e-14
351 1 -0.00104353 12.5794 9.44283 -8.89865 6.0784e-11
352 1 1.57124 14.1519 11.011 -8.90009 1.34705e-14
353 1 3.14361 12.5794 9.44265 -8.89865 6.07761e-11
354 1 4.71589 14.152 11.0106 -8.90007 2.0904e-14
355 1 6.28837 12.5795 9.44217 -8.89865 6.11131e-11
356 1 7.86074 14.1521 11.0099 -8.90011 5.50732e-14
357 1 9.43335 12.5795 9.44171 -8.89872 6.15132e-11
358 1 11.0059 14.1522 11.0096 -8.90015 1.22772e-13
359 1 12.5785 12.5795 9.44171 -8.89872 6.15249e-11
360 1 14.151 14.1521 11.0099 -8.90011 1.07462e-13
361 1 15.7234 12.5795 9.44217 -8.89865 6.1308e-11
362 1 17.2959 14.152 11.0106 -8.90007 3.19397e-14
363 1 18.8682 12.5794 9.44265 -8.89865 6.10163e-11
364 1 20.4405 14.1519 11.011 -8.90009 1.29401e-14
365 1 -0.00104356 15.7243 9.44296 -8.89865 6.07605e-11
366 1 1.57128 17.2968 11.0112 -8.90009 2.5323e-14
367 1 3.14365 15.7243 9.44283 -8.89864 6.08038e-11
368 1 4.716 17.2968 11.0109 -8.90006 3.57866e-14
369 1 6.28843 15.7244 9.44248 -8.89864 6.10591e-11
370 1 7.86086 17.2969 11.0106 -8.90007 2.44948e-14
371 1 9.43338 15.7245 9.44217 -8.89865 6.13529e-11
372 1 11.0059 17.297 11.0104 -8.90008 2.6825e-14
373 1 12.5784 15.7245 9.44217 -8.89865 6.14422e-11
374 1 14.1509 17.2969 11.0106 -8.90007 3.257e-14
375 1 15.7234 15.7244 9.44248 -8.89864 6.12106e-11
376 1 17.2958 17.2968 11.0109 -8.90006 1.97752e-14
377 1 18.8682 15.7243 9.44283 -8.89864 6.09144e-11
378 1 20.4405 17.2968 11.0112 -8.90009 1.26318e-14
379 1 -0.00104358 18.8691 9.44312 -8.89865 6.08059e-11
380 1 1.57131 20.4415 11.0113 -8.9001 3.9578e-14
381 1 3.1437 18.8692 9.44304 -8.89865 6.09272e-11
382 1 4.71608 20.4416 11.0112 -8.90009 4.898e-14
383 1 6.28851 18.8692 9.44283 -8.89864 6.1161e-11
384 1 7.86094 20.4416 11.011 -8.90009 3.51852e-14
385 1 9.43342 18.8692 9.44265 -8.89865 6.13933e-11
386 1 11.0059 20.4416 11.0109 -8.90009 2.5726e-14
387 1 12.5784 18.8692 9.44265 -8.89865 6.14057e-11
388 1 14.1508 20.4416 11.011 -8.90009 2.46311e-14
389 1 15.7233 18.8692 9.44283 -8.89864 6.11759e-11
390 1 17.2957 20.4416 11.0112 -8.90009 1.6495e-14
391 1 18.8681 18.8692 9.44304 -8.89865 6.08812e-11
392 1 20.4405 20.4415 11.0113 -8.9001 1.80276e-14
393 1 -0.00109235 3.61653e-13 12.5796 -8.89868 5.73946e-11
394 1 3.14369 -1.13034e-13 12.5795 -8.89867 5.72794e-11
395 1 6.2885 -1.18384e-12 12.5793 -8.89867 5.70011e-11
396 1 9.43339 -1.90065e-12 12.5791 -8.89868 5.66792e-11
397 1 12.5783 -1.89881e-12 12.5791 -8.89868 5.66804e-11
398 1 15.7232 -1.18119e-12 12.5793 -8.89867 5.69976e-11
399 1 18.868 -1.10919e-13 12.5795 -8.89867 5.73393e-11
400 1 22.0128 3.14478 12.5795 -8.89867 5.75647e-11
401 1 3.14365 3.14474 12.5794 -8.89866 5.75996e-11
402 1 6.28843 3.14464 12.5791 -8.89864 5.71224e-11
403 1 9.43335 3.14455 12.5788 -8.89865 5.67624e-11
404 1 12.5784 3.14455 12.5788 -8.89865 5.68732e-11
405 1 15.7233 3.14464 12.5791 -8.89864 5.72111e-11
406 1 18.8681 3.14474 12.5794 -8.89866 5.73897e-11
407 1 22.0128 6.28959 12.5793 -8.89867 5.78035e-11
408 1 3.14354 6.28952 12.5791 -8.89864 5.77339e-11
409 1 6.28824 6.28933 12.5785 -8.89854 5.59151e-11
410 1 9.43325 6.28917 12.5779 -8.8986 5.67905e-11
411 1 12.5785 6.28917 12.5779 -8.8986 5.75155e-11
412 1 15.7235 6.28933 12.5785 -8.89854 5.8985e-11
413 1 18.8682 6.28952 12.5791 -8.89864 5.77378e-11
414 1 22.0128 9.43448 12.5791 -8.89868 5.78678e-11
415 1 3.14346 9.43445 12.5788 -8.89865 5.7563e-11
416 1 6.28808 9.43434 12.5779 -8.8986 5.49186e-11
417 1 9.43312 9.43421 12.5768 -8.89878 5.72823e-11
418 1 12.5786 9.43421 12.5768 -8.89878 5.65391e-11
419 1 15.7236 9.43434 12.5779 -8.8986 5.98255e-11
420 1 18.8683 9.43445 12.5788 -8.89865 5.79435e-11
421 1 22.0128 12.5794 12.5791 -8.89868 5.78678e-11
422 1 3.14346 12.5795 12.5788 -8.89865 5.75643e-11
423 1 6.28808 12.5796 12.5779 -8.8986 5.49243e-11
424 1 9.43312 12.5797 12.5768 -8.89878 5.72885e-11
425 1 12.5786 12.5797 12.5768 -8.89878 5.65305e-11
426 1 15.7236 12.5796 12.5779 -8.8986 5.98183e-11
427 1 18.8683 12.5795 12.5788 -8.89865 5.79422e-11
428 1 22.0128 15.7243 12.5793 -8.89867 5.78035e-11
429 1 3.14354 15.7244 12.5791 -8.89864 5.77333e-11
430 1 6.28824 15.7246 12.5785 -8.89854 5.59262e-11
431 1 9.43325 15.7247 12.5779 -8.8986 5.679e-11
432 1 12.5785 15.7247 12.5779 -8.8986 5.75123e-11
433 1 15.7235 15.7246 12.5785 -8.89854 5.8972e-11
434 1 18.8682 15.7244 12.5791 -8.89864 5.77384e-11
435 1 22.0128 18.8691 12.5795 -8.89867 5.75647e-11
436 1 3.14365 18.8692 12.5794 -8.89866 5.75976e-11
437 1 6.28843 18.8693 12.5791 -8.89864 5.71217e-11
438 1 9.43335 18.8693 12.5788 -8.89865 5.67622e-11
439 1 12.5784 18.8693 12.5788 -8.89865 5.68734e-11
440 1 15.7233 18.8693 12.5791 -8.89864 5.72118e-11
441 1 18.8681 18.8692 12.5794 -8.89866 5.73916e-11
442 1 1.5713 1.57241 14.1479 -8.9047 2.2537e-10
443 1 4.7161 1.57237 14.1478 -8.90468 2.25059e-10
444 1 7.86093 1.5723 14.1475 -8.9047 2.24141e-10
445 1 11.0058 1.57227 14.1474 -8.9047 2.23833e-10
446 1 14.1507 1.5723 14.1475 -8.9047 2.24333e-10
447 1 17.2956 1.57237 14.1478 -8.90468 2.24956e-10
448 1 20.4404 1.57241 14.1479 -8.9047 2.25266e-10
449 1 1.57126 4.71722 14.1478 -8.90468 2.26387e-10
450 1 4.71597 4.71708 14.1475 -8.90465 2.23143e-10
451 1 7.86076 4.71685 14.1469 -8.90465 2.23008e-10
452 1 11.0058 4.71676 14.1466 -8.90466 2.24904e-10
453 1 14.1509 4.71685 14.1469 -8.90465 2.27344e-10
454 1 17.2957 4.71708 14.1475 -8.90465 2.28674e-10
455 1 20.4404 4.71722 14.1478 -8.90468 2.25954e-10
456 1 1.57119 7.86204 14.1475 -8.9047 2.26401e-10
457 1 4.71574 7.86188 14.1469 -8.90465 2.2061e-10
458 1 7.86039 7.8615 14.1455 -8.9044 2.35739e-10
459 1 11.0058 7.86138 14.1447 -8.90466 2.25811e-10
460 1 14.1513 7.8615 14.1455 -8.9044 2.17586e-10
461 1 17.2959 7.86188 14.1469 -8.90465 2.32133e-10
462 1 20.4405 7.86204 14.1475 -8.9047 2.27082e-10
463 1 1.57116 11.007 14.1474 -8.9047 2.26189e-10
464 1 4.71564 11.007 14.1466 -8.90466 2.20322e-10
465 1 7.86026 11.007 14.1447 -8.90466 2.40154e-10
466 1 11.0058 11.007 14.1432 -8.90674 2.34403e-10
467 1 14.1514 11.007 14.1447 -8.90466 2.13343e-10
468 1 17.296 11.007 14.1466 -8.90466 2.32199e-10
469 1 20.4405 11.007 14.1474 -8.9047 2.27469e-10
470 1 1.57119 14.1519 14.1475 -8.9047 2.26405e-10
471 1 4.71574 14.152 14.1469 -8.90465 2.20646e-10
472 1 7.86039 14.1524 14.1455 -8.9044 2.35713e-10
473 1 11.0058 14.1525 14.1447 -8.90466 2.25793e-10
474 1 14.1513 14.1524 14.1455 -8.9044 2.17593e-10
475 1 17.2959 14.152 14.1469 -8.90465 2.32095e-10
476 1 20.4405 14.1519 14.1475 -8.9047 2.27078e-10
477 1 1.57126 17.2967 14.1478 -8.90468 2.26384e-10
478 1 4.71597 17.2968 14.1475 -8.90465 2.2317e-10
479 1 7.86076 17.297 14.1469 -8.90465 2.23024e-10
480 1 11.0058 17.2971 14.1466 -8.90466 2.24902e-10
481 1 14.1509 17.297 14.1469 -8.90465 2.27325e-10
482 1 17.2957 17.2968 14.1475 -8.90465 2.28646e-10
483 1 20.4404 17.2967 14.1478 -8.90468 2.25958e-10
484 1 1.5713 20.4415 14.1479 -8.9047 2.25368e-10
485 1 4.7161 20.4415 14.1478 -8.90468 2.25057e-10
486 1 7.86093 20.4416 14.1475 -8.9047 2.24141e-10
487 1 11.0058 20.4416 14.1474 -8.9047 2.23833e-10
488 1 14.1507 20.4416 14.1475 -8.9047 2.24333e-10
489 1 17.2956 20.4415 14.1478 -8.90468 2.24959e-10
490 1 20.4404 20.4415 14.1479 -8.9047 2.25268e-10
491 1 22.0128 4.66869e-13 15.7172 -8.88818 4.64025e-10
492 1 1.5714 1.57255 17.279 -8.90297 7.64414e-10
493 1 3.14379 -1.18388e-12 15.7172 -8.88819 4.63961e-10
494 1 4.71639 1.5726 17.279 -8.90302 7.6339e-10
495 1 6.2886 -2.62494e-12 15.7171 -8.88817 4.63351e-10
496 1 7.86111 1.57254 17.2788 -8.9031 7.61589e-10
497 1 9.4334 -2.02533e-12 15.7169 -8.8882 4.62454e-10
498 1 11.0058 1.5725 17.2787 -8.90309 7.61805e-10
499 1 12.5782 -2.02332e-12 15.7169 -8.8882 4.61935e-10
500 1 14.1505 1.57254 17.2788 -8.9031 7.63189e-10
501 1 15.723 -2.62137e-12 15.7171 -8.88817 4.62841e-10
502 1 17.2952 1.5726 17.279 -8.90302 7.63376e-10
503 1 18.8678 -1.18211e-12 15.7172 -8.88819 4.63595e-10
504 1 20.4402 1.57255 17.279 -8.90297 7.63584e-10
505 1 22.0128 3.14492 15.7172 -8.88819 4.64804e-10
506 1 1.57145 4.71755 17.279 -8.90302 7.6561e-10
507 1 3.14377 3.14491 15.7171 -8.88818 4.64648e-10
508 1 4.71649 4.71764 17.2789 -8.90324 7.56195e-10
509 1 6.28854 3.14478 15.7169 -8.88809 4.6027e-10
510 1 7.86095 4.71722 17.2782 -8.90292 7.74106e-10
511 1 9.43336 3.14464 15.7165 -8.88817 4.62907e-10
512 1 11.0058 4.71706 17.2777 -8.90284 7.65384e-10
513 1 12.5783 3.14464 15.7165 -8.88817 4.63697e-10
514 1 14.1506 4.71722 17.2782 -8.90292 7.60188e-10
515 1 15.7231 3.14478 15.7169 -8.88809 4.67607e-10
516 1 17.2951 4.71764 17.2789 -8.90324 7.74368e-10
517 1 18.8679 3.14491 15.7171 -8.88818 4.64377e-10
518 1 20.4401 4.71755 17.279 -8.90302 7.66509e-10
519 1 22.0128 6.28974 15.7171 -8.88817 4.66459e-10
520 1 1.57138 7.86227 17.2788 -8.9031 7.5928e-10
521 1 3.14364 6.28967 15.7169 -8.88809 4.60006e-10
522 1 4.71607 7.86211 17.2782 -8.90292 8.17819e-10
523 1 6.28822 6.28936 15.7161 -8.8877 4.81481e-10
524 1 7.85989 7.86105 17.2759 -8.90267 9.98855e-10
525 1 9.43314 6.28897 15.7149 -8.88787 4.78714e-10
526 1 11.0058 7.86102 17.2737 -8.90497 7.53108e-10
527 1 12.5785 6.28897 15.7149 -8.88787 4.55766e-10
528 1 14.1517 7.86105 17.2759 -8.90267 6.32112e-10
529 1 15.7234 6.28936 15.7161 -8.8877 4.5461e-10
530 1 17.2955 7.86211 17.2782 -8.90292 7.26661e-10
531 1 18.868 6.28967 15.7169 -8.88809 4.72294e-10
532 1 20.4402 7.86227 17.2788 -8.9031 7.7718e-10
533 1 22.0128 9.43454 15.7169 -8.8882 4.67237e-10
534 1 1.57135 11.007 17.2787 -8.90309 7.55348e-10
535 1 3.1435 9.4345 15.7165 -8.88817 4.57603e-10
536 1 4.7159 11.007 17.2777 -8.90284 8.41247e-10
537 1 6.28783 9.43427 15.7149 -8.88787 5.20755e-10
538 1 7.85986 11.007 17.2737 -8.90497 6.93537e-10
539 1 9.43255 9.43369 15.7118 -8.88714 5.01477e-10
540 1 11.0058 11.007 17.2662 -8.91709 2.34636e-09
541 1 12.5791 9.43369 15.7118 -8.88714 4.43634e-10
542 1 14.1517 11.007 17.2737 -8.90497 8.56957e-10
543 1 15.7238 9.43427 15.7149 -8.88787 4.21736e-10
544 1 17.2957 11.007 17.2777 -8.90284 7.06721e-10
545 1 18.8681 9.4345 15.7165 -8.88817 4.76067e-10
546 1 20.4402 11.007 17.2787 -8.90309 7.82398e-10
547 1 22.0128 12.5794 15.7169 -8.8882 4.67237e-10
548 1 1.57138 14.1516 17.2788 -8.9031 7.59371e-10
549 1 3.1435 12.5794 15.7165 -8.88817 4.57654e-10
550 1 4.71607 14.1518 17.2782 -8.90292 8.1738e-10
551 1 6.28783 12.5796 15.7149 -8.88787 5.20337e-10
552 1 7.85989 14.1529 17.2759 -8.90267 9.96302e-10
553 1 9.43255 12.5802 15.7118 -8.88714 5.01289e-10
554 1 11.0058 14.1529 17.2737 -8.90497 7.53138e-10
555 1 12.5791 12.5802 15.7118 -8.88714 4.43418e-10
556 1 14.1517 14.1529 17.2759 -8.90267 6.33225e-10
557 1 15.7238 12.5796 15.7149 -8.88787 4.22082e-10
558 1 17.2955 14.1518 17.2782 -8.90292 7.27073e-10
559 1 18.8681 12.5794 15.7165 -8.88817 4.76015e-10
560 1 20.4402 14.1516 17.2788 -8.9031 7.77089e-10
561 1 22.0128 15.7242 15.7171 -8.88817 4.66459e-10
562 1 1.57145 17.2964 17.279 -8.90302 7.65617e-10
563 1 3.14364 15.7242 15.7169 -8.88809 4.6007e-10
564 1 4.71649 17.2963 17.2789 -8.90324 7.56286e-10
565 1 6.28822 15.7245 15.7161 -8.8877 4.81374e-10
566 1 7.86095 17.2967 17.2782 -8.90292 7.73957e-10
567 1 9.43314 15.7249 15.7149 -8.88787 4.78628e-10
568 1 11.0058 17.2968 17.2777 -8.90284 7.65362e-10
569 1 12.5785 15.7249 15.7149 -8.88787 4.5578e-10
570 1 14.1506 17.2967 17.2782 -8.90292 7.60312e-10
571 1 15.7234 15.7245 15.7161 -8.8877 4.54706e-10
572 1 17.2951 17.2963 17.2789 -8.90324 7.74275e-10
573 1 18.868 15.7242 15.7169 -8.88809 4.72229e-10
574 1 20.4401 17.2964 17.279 -8.90302 7.66502e-10
575 1 22.0128 18.869 15.7172 -8.88819 4.64804e-10
576 1 1.5714 20.4413 17.279 -8.90297 7.64408e-10
577 1 3.14377 18.869 15.7171 -8.88818 4.64645e-10
578 1 4.71639 20.4413 17.279 -8.90302 7.63396e-10
579 1 6.28854 18.8691 15.7169 -8.88809 4.60306e-10
580 1 7.86111 20.4414 17.2788 -8.9031 7.61605e-10
581 1 9.43336 18.8693 15.7165 -8.88817 4.62906e-10
582 1 11.0058 20.4414 17.2787 -8.90309 7.61805e-10
583 1 12.5783 18.8693 15.7165 -8.88817 4.63695e-10