ITEM: TIMESTEP
241
ITEM: NUMBER OF ATOMS
736
ITEM: BOX BOUNDS pp pp pp
0.0000000000000000e+00 2.2013900999999997e+01
0.0000000000000000e+00 2.2013900999999997e+01
0.0000000000000000e+00 5.3462330999999999e+01
ITEM: ATOMS id type x y z c_pot c_ke
1 1 -0.000782154 2.13804e-16 0.0976314 -7.40188 1.89722e-07
2 1 1.5716 1.5724 1.62441 -8.68379 1.71818e-07
3 1 3.14401 4.33366e-16 0.0976045 -7.40187 1.93774e-07
4 1 4.71641 1.57239 1.62435 -8.68379 1.7394e-07
5 1 6.28884 5.7032e-16 0.0975458 -7.40185 1.96968e-07
6 1 7.86127 1.57239 1.62426 -8.68378 1.74794e-07
7 1 9.43372 8.46944e-16 0.0974996 -7.40183 1.96935e-07
8 1 11.0062 1.57239 1.62423 -8.68378 1.7382e-07
9 1 12.5786 2.29034e-16 0.0975006 -7.40183 1.93699e-07
10 1 14.151 1.57239 1.62427 -8.68378 1.71673e-07
11 1 15.7235 -6.62174e-16 0.0975479 -7.40185 1.89662e-07
12 1 17.2959 1.57239 1.62435 -8.68379 1.69923e-07
13 1 18.8683 1.3479e-16 0.0976061 -7.40187 1.8788e-07
14 1 20.4407 1.5724 1.62441 -8.68379 1.69985e-07
15 1 -0.000782231 3.14479 0.0976053 -7.40187 1.89207e-07
16 1 1.5716 4.71721 1.62435 -8.68379 1.70878e-07
17 1 3.14401 3.14479 0.0975757 -7.40186 1.93247e-07
18 1 4.71641 4.7172 1.62427 -8.68378 1.73009e-07
19 1 6.28883 3.14478 0.0975107 -7.40184 1.96455e-07
20 1 7.86126 4.7172 1.62417 -8.68377 1.73929e-07
21 1 9.43372 3.14477 0.0974594 -7.40182 1.9645e-07
22 1 11.0062 4.71719 1.62412 -8.68377 1.7303e-07
23 1 12.5786 3.14477 0.0974603 -7.40182 1.93235e-07
24 1 14.151 4.7172 1.62417 -8.68377 1.70909e-07
25 1 15.7235 3.14478 0.0975128 -7.40184 1.89196e-07
26 1 17.2959 4.7172 1.62427 -8.68378 1.69117e-07
27 1 18.8683 3.14479 0.0975773 -7.40186 1.87392e-07
28 1 20.4407 4.71721 1.62435 -8.68379 1.69101e-07
29 1 -0.000782405 6.28962 0.097547 -7.40185 1.88071e-07
30 1 1.57159 7.86206 1.62427 -8.68378 1.69778e-07
31 1 3.144 6.28962 0.097511 -7.40184 1.92087e-07
32 1 4.7164 7.86206 1.62417 -8.68377 1.7192e-07
33 1 6.28882 6.28961 0.0974315 -7.40181 1.95325e-07
34 1 7.86125 7.86205 1.62404 -8.68377 1.72924e-07
35 1 9.43371 6.2896 0.0973681 -7.40178 1.95381e-07
36 1 11.0062 7.86205 1.62399 -8.68376 1.72118e-07
37 1 12.5786 6.2896 0.097369 -7.40178 1.92214e-07
38 1 14.1511 7.86205 1.62404 -8.68377 1.70031e-07
39 1 15.7235 6.28961 0.0974335 -7.40181 1.88173e-07
40 1 17.2959 7.86206 1.62417 -8.68377 1.68186e-07
41 1 18.8683 6.28962 0.0975127 -7.40184 1.86317e-07
42 1 20.4407 7.86206 1.62427 -8.68378 1.68071e-07
43 1 -0.000782544 9.4345 0.0975003 -7.40183 1.87183e-07
44 1 1.57159 11.007 1.62423 -8.68378 1.69315e-07
45 1 3.14399 9.4345 0.0974592 -7.40182 1.91179e-07
46 1 4.71639 11.007 1.62412 -8.68377 1.71462e-07
47 1 6.28882 9.43449 0.0973676 -7.40178 1.94441e-07
48 1 7.86125 11.007 1.62398 -8.68376 1.72503e-07
49 1 9.43371 9.43449 0.0972941 -7.40175 1.94547e-07
50 1 11.0062 11.007 1.62392 -8.68376 1.71738e-07
51 1 12.5786 9.43449 0.0972949 -7.40175 1.91418e-07
52 1 14.1511 11.007 1.62399 -8.68376 1.69666e-07
53 1 15.7235 9.43449 0.0973696 -7.40178 1.87375e-07
54 1 17.2959 11.007 1.62412 -8.68377 1.67798e-07
55 1 18.8683 9.4345 0.0974608 -7.40182 1.85478e-07
56 1 20.4407 11.007 1.62423 -8.68378 1.67639e-07
57 1 -0.000782544 12.5794 0.0975003 -7.40183 1.87183e-07
58 1 1.57159 14.1518 1.62427 -8.68378 1.69778e-07
59 1 3.14399 12.5794 0.0974592 -7.40182 1.91179e-07
60 1 4.7164 14.1518 1.62417 -8.68377 1.7192e-07
61 1 6.28882 12.5794 0.0973676 -7.40178 1.94441e-07
62 1 7.86125 14.1518 1.62404 -8.68377 1.72924e-07
63 1 9.43371 12.5794 0.0972941 -7.40175 1.94547e-07
64 1 11.0062 14.1519 1.62399 -8.68376 1.72118e-07
65 1 12.5786 12.5794 0.0972949 -7.40175 1.91418e-07
66 1 14.1511 14.1518 1.62404 -8.68377 1.70031e-07
67 1 15.7235 12.5794 0.0973696 -7.40178 1.87375e-07
68 1 17.2959 14.1518 1.62417 -8.68377 1.68186e-07
69 1 18.8683 12.5794 0.0974608 -7.40182 1.85478e-07
70 1 20.4407 14.1518 1.62427 -8.68378 1.68071e-07
71 1 -0.000782405 15.7243 0.097547 -7.40185 1.88071e-07
72 1 1.5716 17.2967 1.62435 -8.68379 1.70878e-07
73 1 3.144 15.7243 0.097511 -7.40184 1.92087e-07
74 1 4.71641 17.2967 1.62427 -8.68378 1.73009e-07
75 1 6.28882 15.7243 0.0974315 -7.40181 1.95325e-07
76 1 7.86126 17.2967 1.62417 -8.68377 1.73929e-07
77 1 9.43371 15.7243 0.0973681 -7.40178 1.95381e-07
78 1 11.0062 17.2967 1.62412 -8.68377 1.7303e-07
79 1 12.5786 15.7243 0.097369 -7.40178 1.92214e-07
80 1 14.151 17.2967 1.62417 -8.68377 1.70909e-07
81 1 15.7235 15.7243 0.0974335 -7.40181 1.88173e-07
82 1 17.2959 17.2967 1.62427 -8.68378 1.69117e-07
83 1 18.8683 15.7243 0.0975127 -7.40184 1.86317e-07
84 1 20.4407 17.2967 1.62435 -8.68379 1.69101e-07
85 1 -0.000782231 18.8691 0.0976053 -7.40187 1.89207e-07
86 1 1.5716 20.4415 1.62441 -8.68379 1.71818e-07
87 1 3.14401 18.8691 0.0975757 -7.40186 1.93247e-07
88 1 4.71641 20.4415 1.62435 -8.68379 1.7394e-07
89 1 6.28883 18.8691 0.0975107 -7.40184 1.96455e-07
90 1 7.86127 20.4415 1.62426 -8.68378 1.74794e-07
91 1 9.43372 18.8691 0.0974594 -7.40182 1.9645e-07
92 1 11.0062 20.4415 1.62423 -8.68378 1.7382e-07
93 1 12.5786 18.8691 0.0974603 -7.40182 1.93235e-07
94 1 14.151 20.4415 1.62427 -8.68378 1.71673e-07
95 1 15.7235 18.8691 0.0975128 -7.40184 1.89196e-07
96 1 17.2959 20.4415 1.62435 -8.68379 1.69923e-07
97 1 18.8683 18.8691 0.0975773 -7.40186 1.87392e-07
98 1 20.4407 20.4415 1.62441 -8.68379 1.69985e-07
99 1 -0.000819715 3.49899e-16 3.15454 -8.93805 1.4545e-07
100 1 1.57154 1.5724 4.74382 -8.90301 1.10191e-07
101 1 3.14399 5.42669e-16 3.1545 -8.93805 1.46435e-07
102 1 4.71636 1.57239 4.74374 -8.90301 1.10507e-07
103 1 6.28882 4.82698e-16 3.15442 -8.93806 1.47105e-07
104 1 7.86121 1.57239 4.74364 -8.90301 1.10602e-07
105 1 9.43369 7.7267e-16 3.15435 -8.93807 1.47056e-07
106 1 11.0061 1.57238 4.74359 -8.90301 1.10493e-07
107 1 12.5786 4.50003e-16 3.15435 -8.93807 1.46332e-07
108 1 14.151 1.57239 4.74364 -8.90301 1.10185e-07
109 1 15.7234 1.76542e-16 3.15442 -8.93806 1.45374e-07
110 1 17.2958 1.57239 4.74374 -8.90301 1.09856e-07
111 1 18.8683 1.1906e-16 3.1545 -8.93805 1.44943e-07
112 1 20.4407 1.5724 4.74382 -8.90301 1.09854e-07
113 1 -0.000819785 3.14481 3.1545 -8.93805 1.44974e-07
114 1 1.57154 4.71721 4.74374 -8.90301 1.09396e-07
115 1 3.14398 3.1448 3.15446 -8.93806 1.45945e-07
116 1 4.71635 4.7172 4.74363 -8.90301 1.09721e-07
117 1 6.28881 3.14479 3.15436 -8.93807 1.46637e-07
118 1 7.8612 4.71718 4.7435 -8.90301 1.09877e-07
119 1 9.43369 3.14479 3.15428 -8.93808 1.46629e-07
120 1 11.0061 4.71718 4.74344 -8.90301 1.09835e-07
121 1 12.5786 3.14479 3.15428 -8.93808 1.45934e-07
122 1 14.151 4.71718 4.7435 -8.90301 1.0955e-07
123 1 15.7234 3.14479 3.15436 -8.93807 1.44971e-07
124 1 17.2958 4.7172 4.74364 -8.90301 1.09182e-07
125 1 18.8683 3.1448 3.15446 -8.93806 1.44505e-07
126 1 20.4407 4.71721 4.74374 -8.90301 1.0911e-07
127 1 -0.000819939 6.28964 3.15442 -8.93806 1.43964e-07
128 1 1.57153 7.86206 4.74364 -8.90301 1.0848e-07
129 1 3.14397 6.28963 3.15436 -8.93807 1.44906e-07
130 1 4.71633 7.86205 4.7435 -8.90301 1.08816e-07
131 1 6.2888 6.28962 3.15424 -8.93808 1.45647e-07
132 1 7.86119 7.86204 4.74333 -8.90301 1.0905e-07
133 1 9.43368 6.28962 3.15413 -8.9381 1.4573e-07
134 1 11.0061 7.86203 4.74325 -8.90302 1.09092e-07
135 1 12.5786 6.28962 3.15413 -8.9381 1.45099e-07
136 1 14.151 7.86204 4.74333 -8.90301 1.08836e-07
137 1 15.7235 6.28962 3.15424 -8.93808 1.44126e-07
138 1 17.2959 7.86205 4.74351 -8.90301 1.0842e-07
139 1 18.8683 6.28963 3.15436 -8.93807 1.43582e-07
140 1 20.4407 7.86206 4.74364 -8.90301 1.08257e-07
141 1 -0.00082006 9.43451 3.15435 -8.93807 1.43213e-07
142 1 1.57153 11.007 4.74359 -8.90301 1.08099e-07
143 1 3.14397 9.43451 3.15428 -8.93808 1.44131e-07
144 1 4.71632 11.007 4.74344 -8.90301 1.08441e-07
145 1 6.2888 9.4345 3.15413 -8.9381 1.44913e-07
146 1 7.86118 11.007 4.74325 -8.90302 1.08709e-07
147 1 9.43368 9.4345 3.15401 -8.93812 1.45069e-07
148 1 11.0061 11.007 4.74316 -8.90302 1.08789e-07
149 1 12.5786 9.4345 3.15401 -8.93812 1.44491e-07
150 1 14.151 11.007 4.74325 -8.90302 1.08546e-07
151 1 15.7235 9.4345 3.15414 -8.9381 1.43509e-07
152 1 17.2959 11.007 4.74345 -8.90301 1.08108e-07
153 1 18.8683 9.43451 3.15428 -8.93808 1.42902e-07
154 1 20.4407 11.007 4.74359 -8.90301 1.07905e-07
155 1 -0.00082006 12.5794 3.15435 -8.93807 1.43213e-07
156 1 1.57153 14.1518 4.74364 -8.90301 1.0848e-07
157 1 3.14397 12.5794 3.15428 -8.93808 1.44131e-07
158 1 4.71633 14.1518 4.7435 -8.90301 1.08816e-07
159 1 6.2888 12.5794 3.15413 -8.9381 1.44913e-07
160 1 7.86119 14.1519 4.74333 -8.90301 1.0905e-07
161 1 9.43368 12.5794 3.15401 -8.93812 1.45069e-07
162 1 11.0061 14.1519 4.74325 -8.90302 1.09092e-07
163 1 12.5786 12.5794 3.15401 -8.93812 1.44491e-07
164 1 14.151 14.1519 4.74333 -8.90301 1.08836e-07
165 1 15.7235 12.5794 3.15414 -8.9381 1.43509e-07
166 1 17.2959 14.1518 4.74351 -8.90301 1.0842e-07
167 1 18.8683 12.5794 3.15428 -8.93808 1.42902e-07
168 1 20.4407 14.1518 4.74364 -8.90301 1.08257e-07
169 1 -0.000819939 15.7243 3.15442 -8.93806 1.43964e-07
170 1 1.57154 17.2967 4.74374 -8.90301 1.09396e-07
171 1 3.14397 15.7243 3.15436 -8.93807 1.44906e-07
172 1 4.71635 17.2967 4.74363 -8.90301 1.09721e-07
173 1 6.2888 15.7243 3.15424 -8.93808 1.45647e-07
174 1 7.8612 17.2967 4.7435 -8.90301 1.09877e-07
175 1 9.43368 15.7243 3.15413 -8.9381 1.4573e-07
176 1 11.0061 17.2967 4.74344 -8.90301 1.09835e-07
177 1 12.5786 15.7243 3.15413 -8.9381 1.45099e-07
178 1 14.151 17.2967 4.7435 -8.90301 1.0955e-07
179 1 15.7235 15.7243 3.15424 -8.93808 1.44126e-07
180 1 17.2958 17.2967 4.74364 -8.90301 1.09182e-07
181 1 18.8683 15.7243 3.15436 -8.93807 1.43582e-07
182 1 20.4407 17.2967 4.74374 -8.90301 1.0911e-07
183 1 -0.000819785 18.8691 3.1545 -8.93805 1.44974e-07
184 1 1.57154 20.4415 4.74382 -8.90301 1.10191e-07
185 1 3.14398 18.8691 3.15446 -8.93806 1.45945e-07
186 1 4.71636 20.4415 4.74374 -8.90301 1.10507e-07
187 1 6.28881 18.8691 3.15436 -8.93807 1.46637e-07
188 1 7.86121 20.4415 4.74364 -8.90301 1.10602e-07
189 1 9.43369 18.8691 3.15428 -8.93808 1.46629e-07
190 1 11.0061 20.4415 4.74359 -8.90301 1.10493e-07
191 1 12.5786 18.8691 3.15428 -8.93808 1.45934e-07
192 1 14.151 20.4415 4.74364 -8.90301 1.10185e-07
193 1 15.7234 18.8691 3.15436 -8.93807 1.44971e-07
194 1 17.2958 20.4415 4.74374 -8.90301 1.09856e-07
195 1 18.8683 18.8691 3.15446 -8.93806 1.44505e-07
196 1 20.4407 20.4415 4.74382 -8.90301 1.09854e-07
197 1 -0.000899736 2.56132e-16 6.3056 -8.88811 6.86013e-08
198 1 1.57143 1.57238 7.87481 -8.90467 3.47855e-08
199 1 3.14389 5.49258e-16 6.30555 -8.88811 6.89389e-08
200 1 4.71622 1.57237 7.8747 -8.90467 3.49972e-08
201 1 6.28872 7.05809e-16 6.30543 -8.88812 6.91375e-08
202 1 7.86108 1.57235 7.87455 -8.90467 3.50603e-08
203 1 9.4336 4.95985e-16 6.30534 -8.88812 6.91459e-08
204 1 11.006 1.57235 7.87449 -8.90467 3.50164e-08
205 1 12.5785 5.36821e-16 6.30534 -8.88812 6.89686e-08
206 1 14.1509 1.57235 7.87456 -8.90467 3.48251e-08
207 1 15.7234 4.06102e-16 6.30544 -8.88812 6.8636e-08
208 1 17.2958 1.57237 7.8747 -8.90467 3.45732e-08
209 1 18.8682 3.48002e-16 6.30555 -8.88811 6.84334e-08
210 1 20.4406 1.57238 7.87481 -8.90467 3.455e-08
211 1 -0.000899816 3.14479 6.30555 -8.88811 6.82045e-08
212 1 1.57142 4.71717 7.8747 -8.90467 3.41873e-08
213 1 3.14388 3.14478 6.30549 -8.88811 6.85296e-08
214 1 4.71619 4.71714 7.87454 -8.90466 3.44065e-08
215 1 6.2887 3.14476 6.30535 -8.88812 6.8749e-08
216 1 7.86105 4.7171 7.87432 -8.90467 3.45297e-08
217 1 9.43359 3.14474 6.30524 -8.88812 6.87959e-08
218 1 11.006 4.71708 7.87423 -8.90467 3.45524e-08
219 1 12.5785 3.14474 6.30524 -8.88812 6.86457e-08
220 1 14.1509 4.7171 7.87433 -8.90467 3.43836e-08
221 1 15.7234 3.14476 6.30535 -8.88812 6.83079e-08
222 1 17.2958 4.71714 7.87454 -8.90466 3.40922e-08
223 1 18.8682 3.14478 6.30549 -8.88811 6.80719e-08
224 1 20.4406 4.71717 7.8747 -8.90467 3.40004e-08
225 1 -0.000899985 6.28962 6.30543 -8.88812 6.73748e-08
226 1 1.5714 7.86203 7.87456 -8.90467 3.35196e-08
227 1 3.14386 6.2896 6.30535 -8.88812 6.76715e-08
228 1 4.71615 7.862 7.87432 -8.90467 3.37501e-08
229 1 6.28867 6.28957 6.30515 -8.88812 6.79383e-08
230 1 7.86101 7.86196 7.87401 -8.90469 3.39504e-08
231 1 9.43358 6.28955 6.30499 -8.88813 6.80723e-08
232 1 11.006 7.86194 7.87386 -8.90471 3.40571e-08
233 1 12.5785 6.28955 6.30499 -8.88813 6.79839e-08
234 1 14.151 7.86196 7.87401 -8.90469 3.39185e-08
235 1 15.7234 6.28957 6.30516 -8.88812 6.7636e-08
236 1 17.2959 7.862 7.87433 -8.90467 3.35784e-08
237 1 18.8682 6.2896 6.30535 -8.88812 6.7325e-08
238 1 20.4406 7.86203 7.87456 -8.90467 3.3396e-08
239 1 -0.000900112 9.4345 6.30534 -8.88812 6.67704e-08
240 1 1.57139 11.007 7.87449 -8.90467 3.32499e-08
241 1 3.14384 9.43449 6.30524 -8.88812 6.70446e-08
242 1 4.71613 11.007 7.87423 -8.90467 3.34867e-08
243 1 6.28865 9.43448 6.30499 -8.88813 6.73515e-08
244 1 7.86099 11.007 7.87386 -8.90471 3.37232e-08
245 1 9.43357 9.43447 6.30478 -8.88815 6.75565e-08
246 1 11.006 11.007 7.87367 -8.90475 3.38676e-08
247 1 12.5785 9.43447 6.30478 -8.88815 6.75181e-08
248 1 14.151 11.007 7.87386 -8.90471 3.37422e-08
249 1 15.7235 9.43448 6.30499 -8.88813 6.71624e-08
250 1 17.2959 11.007 7.87423 -8.90467 3.33794e-08
251 1 18.8683 9.43449 6.30524 -8.88812 6.67893e-08
252 1 20.4406 11.007 7.87449 -8.90467 3.3155e-08
253 1 -0.000900112 12.5794 6.30534 -8.88812 6.67704e-08
254 1 1.5714 14.1519 7.87456 -8.90467 3.35196e-08
255 1 3.14384 12.5794 6.30524 -8.88812 6.70446e-08
256 1 4.71615 14.1519 7.87432 -8.90467 3.37501e-08
257 1 6.28865 12.5794 6.30499 -8.88813 6.73515e-08
258 1 7.86101 14.1519 7.87401 -8.90469 3.39504e-08
259 1 9.43357 12.5794 6.30478 -8.88815 6.75565e-08
260 1 11.006 14.152 7.87386 -8.90471 3.40571e-08
261 1 12.5785 12.5794 6.30478 -8.88815 6.75181e-08
262 1 14.151 14.1519 7.87401 -8.90469 3.39185e-08
263 1 15.7235 12.5794 6.30499 -8.88813 6.71624e-08
264 1 17.2959 14.1519 7.87433 -8.90467 3.35784e-08
265 1 18.8683 12.5794 6.30524 -8.88812 6.67893e-08
266 1 20.4406 14.1519 7.87456 -8.90467 3.3396e-08
267 1 -0.000899985 15.7243 6.30543 -8.88812 6.73748e-08
268 1 1.57142 17.2967 7.8747 -8.90467 3.41873e-08
269 1 3.14386 15.7243 6.30535 -8.88812 6.76715e-08
270 1 4.71619 17.2968 7.87454 -8.90466 3.44065e-08
271 1 6.28867 15.7243 6.30515 -8.88812 6.79383e-08
272 1 7.86105 17.2968 7.87432 -8.90467 3.45297e-08
273 1 9.43358 15.7244 6.30499 -8.88813 6.80723e-08
274 1 11.006 17.2968 7.87423 -8.90467 3.45524e-08
275 1 12.5785 15.7244 6.30499 -8.88813 6.79839e-08
276 1 14.1509 17.2968 7.87433 -8.90467 3.43836e-08
277 1 15.7234 15.7243 6.30516 -8.88812 6.7636e-08
278 1 17.2958 17.2968 7.87454 -8.90466 3.40922e-08
279 1 18.8682 15.7243 6.30535 -8.88812 6.7325e-08
280 1 20.4406 17.2967 7.8747 -8.90467 3.40004e-08
281 1 -0.000899816 18.8691 6.30555 -8.88811 6.82045e-08
282 1 1.57143 20.4415 7.87481 -8.90467 3.47855e-08
283 1 3.14388 18.8691 6.30549 -8.88811 6.85296e-08
284 1 4.71622 20.4415 7.8747 -8.90467 3.49972e-08
285 1 6.2887 18.8691 6.30535 -8.88812 6.8749e-08
286 1 7.86108 20.4415 7.87455 -8.90467 3.50603e-08
287 1 9.43359 18.8692 6.30524 -8.88812 6.87959e-08
288 1 11.006 20.4416 7.87449 -8.90467 3.50164e-08
289 1 12.5785 18.8692 6.30524 -8.88812 6.86457e-08
290 1 14.1509 20.4415 7.87456 -8.90467 3.48251e-08
291 1 15.7234 18.8691 6.30535 -8.88812 6.83079e-08
292 1 17.2958 20.4415 7.8747 -8.90467 3.45732e-08
293 1 18.8682 18.8691 6.30549 -8.88811 6.80719e-08
294 1 20.4406 20.4415 7.87481 -8.90467 3.455e-08
295 1 -0.00100712 -3.47353e-16 9.44319 -8.89866 9.97022e-09
296 1 1.57131 1.57237 11.0113 -8.9001 3.13382e-10
297 1 3.14376 -3.90013e-16 9.44312 -8.89865 1.01988e-08
298 1 4.71608 1.57234 11.0112 -8.90009 3.0731e-10
299 1 6.28858 -2.63572e-16 9.44296 -8.89865 1.02634e-08
300 1 7.86094 1.57231 11.011 -8.90009 1.66523e-10
301 1 9.43348 4.40201e-18 9.44283 -8.89865 1.02171e-08
302 1 11.0059 1.57229 11.0109 -8.90009 1.05809e-10
303 1 12.5784 -3.7847e-16 9.44283 -8.89865 1.01117e-08
304 1 14.1508 1.57231 11.011 -8.90009 9.46645e-11
305 1 15.7233 -4.59688e-16 9.44296 -8.89865 9.91619e-09
306 1 17.2957 1.57234 11.0112 -8.90009 6.62112e-11
307 1 18.8681 -1.78894e-16 9.44312 -8.89865 9.80995e-09
308 1 20.4405 1.57237 11.0113 -8.9001 1.52244e-10
309 1 -0.00100724 3.14476 9.44312 -8.89865 9.73463e-09
310 1 1.57128 4.71715 11.0112 -8.90009 1.58048e-10
311 1 3.14373 3.14474 9.44303 -8.89865 9.94983e-09
312 1 4.716 4.71707 11.0109 -8.90006 1.58011e-10
313 1 6.28854 3.14469 9.44282 -8.89864 1.00357e-08
314 1 7.86086 4.71696 11.0106 -8.90007 8.10876e-11
315 1 9.43346 3.14465 9.44265 -8.89865 1.00301e-08
316 1 11.0059 4.71692 11.0104 -8.90008 9.89983e-11
317 1 12.5784 3.14465 9.44265 -8.89865 9.95426e-09
318 1 14.1509 4.71696 11.0106 -8.90007 1.2225e-10
319 1 15.7233 3.14469 9.44283 -8.89864 9.75355e-09
320 1 17.2958 4.71707 11.0109 -8.90006 5.28221e-11
321 1 18.8682 3.14474 9.44304 -8.89865 9.61166e-09
322 1 20.4405 4.71715 11.0112 -8.90009 5.57409e-11
323 1 -0.00100749 6.28958 9.44296 -8.89865 9.27194e-09
324 1 1.57124 7.86201 11.011 -8.90009 4.00456e-11
325 1 3.14368 6.28955 9.44282 -8.89864 9.45502e-09
326 1 4.71589 7.86193 11.0106 -8.90007 4.50026e-11
327 1 6.28847 6.28947 9.44248 -8.89864 9.58783e-09
328 1 7.86074 7.8618 11.0099 -8.90011 5.07946e-11
329 1 9.43342 6.28941 9.44217 -8.89865 9.67597e-09
330 1 11.0059 7.86175 11.0096 -8.90015 1.6995e-10
331 1 12.5785 6.28941 9.44218 -8.89865 9.66879e-09
332 1 14.151 7.8618 11.0099 -8.90011 2.36231e-10
333 1 15.7234 6.28947 9.44248 -8.89864 9.45825e-09
334 1 17.2959 7.86193 11.0106 -8.90007 1.17182e-10
335 1 18.8682 6.28955 9.44283 -8.89864 9.23749e-09
336 1 20.4405 7.86201 11.011 -8.90009 1.5089e-11
337 1 -0.00100766 9.43448 9.44283 -8.89865 8.96505e-09
338 1 1.57122 11.007 11.0109 -8.90009 1.44909e-11
339 1 3.14365 9.43447 9.44265 -8.89865 9.12227e-09
340 1 4.71585 11.007 11.0104 -8.90008 2.14729e-11
341 1 6.2884 9.43443 9.44217 -8.89865 9.29692e-09
342 1 7.86068 11.007 11.0096 -8.90015 6.57887e-11
343 1 9.43338 9.43439 9.44172 -8.89872 9.46322e-09
344 1 11.0059 11.007 11.0091 -8.90037 2.29878e-10
345 1 12.5785 9.43439 9.44172 -8.89872 9.51065e-09
346 1 14.1511 11.007 11.0096 -8.90015 3.12894e-10
347 1 15.7235 9.43443 9.44218 -8.89865 9.2925e-09
348 1 17.2959 11.007 11.0104 -8.90008 1.72835e-10
349 1 18.8682 9.43447 9.44265 -8.89865 9.00516e-09
350 1 20.4405 11.007 11.0109 -8.90009 2.45536e-11
351 1 -0.00100766 12.5794 9.44283 -8.89865 8.96505e-09
352 1 1.57124 14.1519 11.011 -8.90009 4.00456e-11
353 1 3.14365 12.5794 9.44265 -8.89865 9.12227e-09
354 1 4.71589 14.152 11.0106 -8.90007 4.50026e-11
355 1 6.2884 12.5795 9.44217 -8.89865 9.29692e-09
356 1 7.86074 14.1521 11.0099 -8.90011 5.07946e-11
357 1 9.43338 12.5795 9.44172 -8.89872 9.46322e-09
358 1 11.0059 14.1522 11.0096 -8.90015 1.6995e-10
359 1 12.5785 12.5795 9.44172 -8.89872 9.51065e-09
360 1 14.151 14.1521 11.0099 -8.90011 2.36231e-10
361 1 15.7235 12.5795 9.44218 -8.89865 9.2925e-09
362 1 17.2959 14.152 11.0106 -8.90007 1.17182e-10
363 1 18.8682 12.5794 9.44265 -8.89865 9.00516e-09
364 1 20.4405 14.1519 11.011 -8.90009 1.5089e-11
365 1 -0.00100749 15.7243 9.44296 -8.89865 9.27194e-09
366 1 1.57128 17.2968 11.0112 -8.90009 1.58048e-10
367 1 3.14368 15.7243 9.44282 -8.89864 9.45502e-09
368 1 4.716 17.2968 11.0109 -8.90006 1.58011e-10
369 1 6.28847 15.7244 9.44248 -8.89864 9.58783e-09
370 1 7.86086 17.2969 11.0106 -8.90007 8.10876e-11
371 1 9.43342 15.7245 9.44217 -8.89865 9.67597e-09
372 1 11.0059 17.297 11.0104 -8.90008 9.89983e-11
373 1 12.5785 15.7245 9.44218 -8.89865 9.66879e-09
374 1 14.1509 17.2969 11.0106 -8.90007 1.2225e-10
375 1 15.7234 15.7244 9.44248 -8.89864 9.45825e-09
376 1 17.2958 17.2968 11.0109 -8.90006 5.28221e-11
377 1 18.8682 15.7243 9.44283 -8.89864 9.23749e-09
378 1 20.4405 17.2968 11.0112 -8.90009 5.57409e-11
379 1 -0.00100724 18.8691 9.44312 -8.89865 9.73463e-09
380 1 1.57131 20.4415 11.0113 -8.9001 3.13382e-10
381 1 3.14373 18.8692 9.44303 -8.89865 9.94983e-09
382 1 4.71608 20.4416 11.0112 -8.90009 3.0731e-10
383 1 6.28854 18.8692 9.44282 -8.89864 1.00357e-08
384 1 7.86094 20.4416 11.011 -8.90009 1.66523e-10
385 1 9.43346 18.8692 9.44265 -8.89865 1.00301e-08
386 1 11.0059 20.4416 11.0109 -8.90009 1.05809e-10
387 1 12.5784 18.8692 9.44265 -8.89865 9.95426e-09
388 1 14.1508 20.4416 11.011 -8.90009 9.46645e-11
389 1 15.7233 18.8692 9.44283 -8.89864 9.75355e-09
390 1 17.2957 20.4416 11.0112 -8.90009 6.62112e-11
391 1 18.8682 18.8692 9.44304 -8.89865 9.61166e-09
392 1 20.4405 20.4415 11.0113 -8.9001 1.52244e-10
393 1 -0.00112599 -4.34475e-16 12.5796 -8.89868 7.17977e-09
394 1 3.14365 -4.29803e-16 12.5795 -8.89867 7.0802e-09
395 1 6.28846 -7.01602e-16 12.5793 -8.89867 6.71492e-09
396 1 9.43336 -1.66987e-16 12.5791 -8.89868 6.47902e-09
397 1 12.5783 -6.27475e-16 12.5791 -8.89868 6.59482e-09
398 1 15.7232 -3.40604e-16 12.5793 -8.89867 6.83766e-09
399 1 18.868 -2.2481e-16 12.5795 -8.89867 7.04158e-09
400 1 22.0128 3.14478 12.5795 -8.89867 7.31772e-09
401 1 3.14361 3.14474 12.5794 -8.89866 7.20066e-09
402 1 6.2884 3.14464 12.5791 -8.89864 6.85859e-09
403 1 9.43332 3.14455 12.5788 -8.89865 6.667e-09
404 1 12.5783 3.14455 12.5788 -8.89865 6.826e-09
405 1 15.7233 3.14464 12.5791 -8.89864 7.07483e-09
406 1 18.868 3.14474 12.5794 -8.89866 7.23327e-09
407 1 22.0128 6.28959 12.5793 -8.89867 7.67842e-09
408 1 3.14351 6.28952 12.5791 -8.89864 7.51839e-09
409 1 6.28821 6.28933 12.5785 -8.89854 7.23372e-09
410 1 9.43322 6.28917 12.5779 -8.8986 7.14303e-09
411 1 12.5784 6.28917 12.5779 -8.8986 7.40268e-09
412 1 15.7234 6.28933 12.5785 -8.89854 7.67065e-09
413 1 18.8681 6.28952 12.5791 -8.89864 7.71717e-09
414 1 22.0128 9.43448 12.5791 -8.89868 8.01952e-09
415 1 3.14343 9.43445 12.5788 -8.89865 7.81657e-09
416 1 6.28805 9.43434 12.5779 -8.8986 7.56262e-09
417 1 9.43308 9.43421 12.5768 -8.89878 7.55852e-09
418 1 12.5786 9.43421 12.5768 -8.89878 7.88869e-09
419 1 15.7236 9.43434 12.5779 -8.8986 8.17031e-09
420 1 18.8682 9.43445 12.5788 -8.89865 8.15008e-09
421 1 22.0128 12.5794 12.5791 -8.89868 8.01952e-09
422 1 3.14343 12.5795 12.5788 -8.89865 7.81657e-09
423 1 6.28805 12.5796 12.5779 -8.8986 7.56262e-09
424 1 9.43308 12.5797 12.5768 -8.89878 7.55852e-09
425 1 12.5786 12.5797 12.5768 -8.89878 7.88869e-09
426 1 15.7236 12.5796 12.5779 -8.8986 8.17031e-09
427 1 18.8682 12.5795 12.5788 -8.89865 8.15008e-09
428 1 22.0128 15.7243 12.5793 -8.89867 7.67842e-09
429 1 3.14351 15.7244 12.5791 -8.89864 7.51839e-09
430 1 6.28821 15.7246 12.5785 -8.89854 7.23372e-09
431 1 9.43322 15.7247 12.5779 -8.8986 7.14303e-09
432 1 12.5784 15.7247 12.5779 -8.8986 7.40268e-09
433 1 15.7234 15.7246 12.5785 -8.89854 7.67065e-09
434 1 18.8681 15.7244 12.5791 -8.89864 7.71717e-09
435 1 22.0128 18.8691 12.5795 -8.89867 7.31772e-09
436 1 3.14361 18.8692 12.5794 -8.89866 7.20066e-09
437 1 6.2884 18.8693 12.5791 -8.89864 6.85859e-09
438 1 9.43332 18.8693 12.5788 -8.89865 6.667e-09
439 1 12.5783 18.8693 12.5788 -8.89865 6.826e-09
440 1 15.7233 18.8693 12.5791 -8.89864 7.07483e-09
441 1 18.868 18.8692 12.5794 -8.89866 7.23327e-09
442 1 1.57123 1.57241 14.1479 -8.9047 3.00265e-08
443 1 4.71603 1.57237 14.1478 -8.90468 2.94883e-08
444 1 7.86086 1.5723 14.1475 -8.9047 2.89036e-08
445 1 11.0058 1.57227 14.1474 -8.9047 2.8896e-08
446 1 14.1507 1.5723 14.1475 -8.9047 2.94051e-08
447 1 17.2955 1.57237 14.1478 -8.90468 2.99097e-08
448 1 20.4403 1.57241 14.1479 -8.9047 3.01405e-08
449 1 1.57119 4.71722 14.1478 -8.90468 3.08137e-08
450 1 4.7159 4.71708 14.1475 -8.90465 3.0309e-08
451 1 7.86069 4.71685 14.1469 -8.90465 2.97926e-08
452 1 11.0058 4.71676 14.1466 -8.90466 2.98809e-08
453 1 14.1508 4.71685 14.1469 -8.90465 3.04811e-08
454 1 17.2956 4.71708 14.1475 -8.90465 3.09514e-08
455 1 20.4403 4.71722 14.1478 -8.90468 3.10183e-08
456 1 1.57112 7.86204 14.1475 -8.9047 3.18335e-08
457 1 4.71567 7.86188 14.1469 -8.90465 3.13348e-08
458 1 7.86032 7.8615 14.1455 -8.9044 3.09468e-08
459 1 11.0058 7.86138 14.1447 -8.90466 3.11377e-08
460 1 14.1512 7.8615 14.1455 -8.9044 3.1879e-08
461 1 17.2959 7.86188 14.1469 -8.90465 3.22475e-08
462 1 20.4404 7.86204 14.1475 -8.9047 3.21523e-08
463 1 1.57109 11.007 14.1474 -8.9047 3.22997e-08
464 1 4.71558 11.007 14.1466 -8.90466 3.17829e-08
465 1 7.86019 11.007 14.1447 -8.90466 3.14056e-08
466 1 11.0058 11.007 14.1432 -8.90674 3.16388e-08
467 1 14.1513 11.007 14.1447 -8.90466 3.24252e-08
468 1 17.296 11.007 14.1466 -8.90466 3.28098e-08
469 1 20.4404 11.007 14.1474 -8.9047 3.26685e-08
470 1 1.57112 14.1519 14.1475 -8.9047 3.18335e-08
471 1 4.71567 14.152 14.1469 -8.90465 3.13348e-08
472 1 7.86032 14.1524 14.1455 -8.9044 3.09468e-08
473 1 11.0058 14.1525 14.1447 -8.90466 3.11377e-08
474 1 14.1512 14.1524 14.1455 -8.9044 3.1879e-08
475 1 17.2959 14.152 14.1469 -8.90465 3.22475e-08
476 1 20.4404 14.1519 14.1475 -8.9047 3.21523e-08
477 1 1.57119 17.2967 14.1478 -8.90468 3.08137e-08
478 1 4.7159 17.2968 14.1475 -8.90465 3.0309e-08
479 1 7.86069 17.297 14.1469 -8.90465 2.97926e-08
480 1 11.0058 17.2971 14.1466 -8.90466 2.98809e-08
481 1 14.1508 17.297 14.1469 -8.90465 3.04811e-08
482 1 17.2956 17.2968 14.1475 -8.90465 3.09514e-08
483 1 20.4403 17.2967 14.1478 -8.90468 3.10183e-08
484 1 1.57123 20.4415 14.1479 -8.9047 3.00265e-08
485 1 4.71603 20.4415 14.1478 -8.90468 2.94883e-08
486 1 7.86086 20.4416 14.1475 -8.9047 2.89036e-08
487 1 11.0058 20.4416 14.1474 -8.9047 2.8896e-08
488 1 14.1507 20.4416 14.1475 -8.9047 2.94051e-08
489 1 17.2955 20.4415 14.1478 -8.90468 2.99097e-08
490 1 20.4403 20.4415 14.1479 -8.9047 3.01405e-08
491 1 22.0127 -7.34443e-16 15.7172 -8.88818 6.33458e-08
492 1 1.57127 1.57255 17.279 -8.90297 1.06118e-07
493 1 3.14369 -9.6753e-16 15.7172 -8.88819 6.29606e-08
494 1 4.71627 1.5726 17.279 -8.90302 1.05522e-07
495 1 6.28851 -5.68328e-16 15.7171 -8.88817 6.21987e-08
496 1 7.86099 1.57254 17.2788 -8.9031 1.04785e-07
497 1 9.43331 -5.48303e-16 15.7169 -8.8882 6.17564e-08
498 1 11.0057 1.5725 17.2787 -8.90309 1.04691e-07
499 1 12.5781 -1.0246e-15 15.7169 -8.8882 6.20927e-08
500 1 14.1504 1.57254 17.2788 -8.9031 1.0531e-07
501 1 15.7229 -6.60382e-16 15.7171 -8.88817 6.27593e-08
502 1 17.2951 1.5726 17.279 -8.90302 1.0588e-07
503 1 18.8677 -2.3819e-16 15.7172 -8.88819 6.32135e-08
504 1 20.4401 1.57255 17.279 -8.90297 1.06175e-07
505 1 22.0127 3.14492 15.7172 -8.88819 6.41284e-08
506 1 1.57132 4.71755 17.279 -8.90302 1.08302e-07
507 1 3.14367 3.14491 15.7171 -8.88818 6.37224e-08
508 1 4.71636 4.71764 17.2789 -8.90324 1.07796e-07
509 1 6.28844 3.14478 15.7169 -8.88809 6.30404e-08
510 1 7.86083 4.71722 17.2782 -8.90292 1.07402e-07
511 1 9.43326 3.14464 15.7165 -8.88817 6.26507e-08
512 1 11.0057 4.71706 17.2777 -8.90284 1.07406e-07
513 1 12.5782 3.14464 15.7165 -8.88817 6.30582e-08
514 1 14.1505 4.71722 17.2782 -8.90292 1.08242e-07
515 1 15.723 3.14478 15.7169 -8.88809 6.37509e-08
516 1 17.295 4.71764 17.2789 -8.90324 1.08457e-07
517 1 18.8678 3.14491 15.7171 -8.88818 6.408e-08
518 1 20.44 4.71755 17.279 -8.90302 1.08483e-07
519 1 22.0127 6.28974 15.7171 -8.88817 6.59904e-08
520 1 1.57126 7.86227 17.2788 -8.9031 1.11158e-07
521 1 3.14355 6.28967 15.7169 -8.88809 6.55781e-08
522 1 4.71594 7.86211 17.2782 -8.90292 1.10951e-07
523 1 6.28812 6.28936 15.7161 -8.8877 6.51362e-08
524 1 7.85976 7.86105 17.2759 -8.90267 1.10989e-07
525 1 9.43304 6.28897 15.7149 -8.88787 6.48103e-08
526 1 11.0057 7.86102 17.2737 -8.90497 1.11037e-07
527 1 12.5784 6.28897 15.7149 -8.88787 6.53981e-08
528 1 14.1516 7.86105 17.2759 -8.90267 1.12428e-07
529 1 15.7233 6.28936 15.7161 -8.8877 6.62601e-08
530 1 17.2954 7.86211 17.2782 -8.90292 1.12102e-07
531 1 18.8679 6.28967 15.7169 -8.88809 6.62025e-08
532 1 20.4401 7.86227 17.2788 -8.9031 1.11516e-07
533 1 22.0127 9.43454 15.7169 -8.8882 6.7512e-08
534 1 1.57122 11.007 17.2787 -8.90309 1.1243e-07
535 1 3.1434 9.4345 15.7165 -8.88817 6.70523e-08
536 1 4.71578 11.007 17.2777 -8.90284 1.12241e-07
537 1 6.28773 9.43427 15.7149 -8.88787 6.66398e-08
538 1 7.85974 11.007 17.2737 -8.90497 1.12256e-07
539 1 9.43245 9.43369 15.7118 -8.88714 6.64162e-08
540 1 11.0057 11.007 17.2662 -8.91709 1.12888e-07
541 1 12.579 9.43369 15.7118 -8.88714 6.70998e-08
542 1 14.1516 11.007 17.2737 -8.90497 1.13765e-07
543 1 15.7237 9.43427 15.7149 -8.88788 6.8027e-08
544 1 17.2956 11.007 17.2777 -8.90284 1.13579e-07
545 1 18.868 9.4345 15.7165 -8.88817 6.78835e-08
546 1 20.4401 11.007 17.2787 -8.90309 1.12866e-07
547 1 22.0127 12.5794 15.7169 -8.8882 6.7512e-08
548 1 1.57126 14.1516 17.2788 -8.9031 1.11158e-07
549 1 3.1434 12.5794 15.7165 -8.88817 6.70523e-08
550 1 4.71594 14.1518 17.2782 -8.90292 1.10951e-07
551 1 6.28773 12.5796 15.7149 -8.88787 6.66398e-08
552 1 7.85976 14.1529 17.2759 -8.90267 1.10989e-07
553 1 9.43245 12.5802 15.7118 -8.88714 6.64162e-08
554 1 11.0057 14.1529 17.2737 -8.90497 1.11037e-07
555 1 12.579 12.5802 15.7118 -8.88714 6.70998e-08
556 1 14.1516 14.1529 17.2759 -8.90267 1.12428e-07
557 1 15.7237 12.5796 15.7149 -8.88788 6.8027e-08
558 1 17.2954 14.1518 17.2782 -8.90292 1.12102e-07
559 1 18.868 12.5794 15.7165 -8.88817 6.78835e-08
560 1 20.4401 14.1516 17.2788 -8.9031 1.11516e-07
561 1 22.0127 15.7242 15.7171 -8.88817 6.59904e-08
562 1 1.57132 17.2964 17.279 -8.90302 1.08302e-07
563 1 3.14355 15.7242 15.7169 -8.88809 6.55781e-08
564 1 4.71636 17.2963 17.2789 -8.90324 1.07796e-07
565 1 6.28812 15.7245 15.7161 -8.8877 6.51362e-08
566 1 7.86083 17.2967 17.2782 -8.90292 1.07402e-07
567 1 9.43304 15.7249 15.7149 -8.88787 6.48103e-08
568 1 11.0057 17.2968 17.2777 -8.90284 1.07406e-07
569 1 12.5784 15.7249 15.7149 -8.88787 6.53981e-08
570 1 14.1505 17.2967 17.2782 -8.90292 1.08242e-07
571 1 15.7233 15.7245 15.7161 -8.8877 6.62601e-08
572 1 17.295 17.2963 17.2789 -8.90324 1.08457e-07
573 1 18.8679 15.7242 15.7169 -8.88809 6.62025e-08
574 1 20.44 17.2964 17.279 -8.90302 1.08483e-07
575 1 22.0127 18.869 15.7172 -8.88819 6.41284e-08
576 1 1.57127 20.4413 17.279 -8.90297 1.06118e-07
577 1 3.14367 18.869 15.7171 -8.88818 6.37224e-08
578 1 4.71627 20.4413 17.279 -8.90302 1.05522e-07
579 1 6.28844 18.8691 15.7169 -8.88809 6.30404e-08
580 1 7.86099 20.4414 17.2788 -8.9031 1.04785e-07
581 1 9.43326 18.8693 15.7165 -8.88817 6.26507e-08
582 1 11.0057 20.4414 17.2787 -8.90309 1.04691e-07
583 1 12.5782 18.8693 15.7165 -8.88817 6.30582e-08
584 1 14.1504 20.4414 17.2788 -8.9031 1.0531e-07