ITEM: TIMESTEP
8
ITEM: NUMBER OF ATOMS
736
ITEM: BOX BOUNDS pp pp pp
0.0000000000000000e+00 2.2013900999999997e+01
0.0000000000000000e+00 2.2013900999999997e+01
0.0000000000000000e+00 5.3462330999999999e+01
ITEM: ATOMS id type x y z c_pot c_ke
1 1 3.96948e-17 4.05425e-17 0.0027093 -7.37203 0.00475108
2 1 1.57242 1.57242 1.57278 -8.70781 8.6075e-05
3 1 3.14484 4.29216e-17 0.0027093 -7.37203 0.00475108
4 1 4.71726 1.57242 1.57278 -8.70781 8.6075e-05
5 1 6.28969 4.29695e-17 0.0027093 -7.37203 0.00475108
6 1 7.86211 1.57242 1.57278 -8.70781 8.6075e-05
7 1 9.43453 4.39093e-17 0.0027093 -7.37203 0.00475108
8 1 11.007 1.57242 1.57278 -8.70781 8.6075e-05
9 1 12.5794 4.17917e-17 0.0027093 -7.37203 0.00475108
10 1 14.1518 1.57242 1.57278 -8.70781 8.6075e-05
11 1 15.7242 4.3353e-17 0.0027093 -7.37203 0.00475108
12 1 17.2966 1.57242 1.57278 -8.70781 8.6075e-05
13 1 18.8691 4.17732e-17 0.0027093 -7.37203 0.00475108
14 1 20.4415 1.57242 1.57278 -8.70781 8.6075e-05
15 1 4.15923e-17 3.14484 0.0027093 -7.37203 0.00475108
16 1 1.57242 4.71726 1.57278 -8.70781 8.6075e-05
17 1 3.14484 3.14484 0.0027093 -7.37203 0.00475108
18 1 4.71726 4.71726 1.57278 -8.70781 8.6075e-05
19 1 6.28969 3.14484 0.0027093 -7.37203 0.00475108
20 1 7.86211 4.71726 1.57278 -8.70781 8.6075e-05
21 1 9.43453 3.14484 0.0027093 -7.37203 0.00475108
22 1 11.007 4.71726 1.57278 -8.70781 8.6075e-05
23 1 12.5794 3.14484 0.0027093 -7.37203 0.00475108
24 1 14.1518 4.71726 1.57278 -8.70781 8.6075e-05
25 1 15.7242 3.14484 0.0027093 -7.37203 0.00475108
26 1 17.2966 4.71726 1.57278 -8.70781 8.6075e-05
27 1 18.8691 3.14484 0.0027093 -7.37203 0.00475108
28 1 20.4415 4.71726 1.57278 -8.70781 8.6075e-05
29 1 4.11869e-17 6.28969 0.0027093 -7.37203 0.00475108
30 1 1.57242 7.86211 1.57278 -8.70781 8.6075e-05
31 1 3.14484 6.28969 0.0027093 -7.37203 0.00475108
32 1 4.71726 7.86211 1.57278 -8.70781 8.6075e-05
33 1 6.28969 6.28969 0.0027093 -7.37203 0.00475108
34 1 7.86211 7.86211 1.57278 -8.70781 8.6075e-05
35 1 9.43453 6.28969 0.0027093 -7.37203 0.00475108
36 1 11.007 7.86211 1.57278 -8.70781 8.6075e-05
37 1 12.5794 6.28969 0.0027093 -7.37203 0.00475108
38 1 14.1518 7.86211 1.57278 -8.70781 8.6075e-05
39 1 15.7242 6.28969 0.0027093 -7.37203 0.00475108
40 1 17.2966 7.86211 1.57278 -8.70781 8.6075e-05
41 1 18.8691 6.28969 0.0027093 -7.37203 0.00475108
42 1 20.4415 7.86211 1.57278 -8.70781 8.6075e-05
43 1 4.00983e-17 9.43453 0.0027093 -7.37203 0.00475108
44 1 1.57242 11.007 1.57278 -8.70781 8.6075e-05
45 1 3.14484 9.43453 0.0027093 -7.37203 0.00475108
46 1 4.71726 11.007 1.57278 -8.70781 8.6075e-05
47 1 6.28969 9.43453 0.0027093 -7.37203 0.00475108
48 1 7.86211 11.007 1.57278 -8.70781 8.6075e-05
49 1 9.43453 9.43453 0.0027093 -7.37203 0.00475108
50 1 11.007 11.007 1.57278 -8.70781 8.6075e-05
51 1 12.5794 9.43453 0.0027093 -7.37203 0.00475108
52 1 14.1518 11.007 1.57278 -8.70781 8.6075e-05
53 1 15.7242 9.43453 0.0027093 -7.37203 0.00475108
54 1 17.2966 11.007 1.57278 -8.70781 8.6075e-05
55 1 18.8691 9.43453 0.0027093 -7.37203 0.00475108
56 1 20.4415 11.007 1.57278 -8.70781 8.6075e-05
57 1 4.06372e-17 12.5794 0.0027093 -7.37203 0.00475108
58 1 1.57242 14.1518 1.57278 -8.70781 8.6075e-05
59 1 3.14484 12.5794 0.0027093 -7.37203 0.00475108
60 1 4.71726 14.1518 1.57278 -8.70781 8.6075e-05
61 1 6.28969 12.5794 0.0027093 -7.37203 0.00475108
62 1 7.86211 14.1518 1.57278 -8.70781 8.6075e-05
63 1 9.43453 12.5794 0.0027093 -7.37203 0.00475108
64 1 11.007 14.1518 1.57278 -8.70781 8.6075e-05
65 1 12.5794 12.5794 0.0027093 -7.37203 0.00475108
66 1 14.1518 14.1518 1.57278 -8.70781 8.6075e-05
67 1 15.7242 12.5794 0.0027093 -7.37203 0.00475108
68 1 17.2966 14.1518 1.57278 -8.70781 8.6075e-05
69 1 18.8691 12.5794 0.0027093 -7.37203 0.00475108
70 1 20.4415 14.1518 1.57278 -8.70781 8.6075e-05
71 1 3.89223e-17 15.7242 0.0027093 -7.37203 0.00475108
72 1 1.57242 17.2966 1.57278 -8.70781 8.6075e-05
73 1 3.14484 15.7242 0.0027093 -7.37203 0.00475108
74 1 4.71726 17.2966 1.57278 -8.70781 8.6075e-05
75 1 6.28969 15.7242 0.0027093 -7.37203 0.00475108
76 1 7.86211 17.2966 1.57278 -8.70781 8.6075e-05
77 1 9.43453 15.7242 0.0027093 -7.37203 0.00475108
78 1 11.007 17.2966 1.57278 -8.70781 8.6075e-05
79 1 12.5794 15.7242 0.0027093 -7.37203 0.00475108
80 1 14.1518 17.2966 1.57278 -8.70781 8.6075e-05
81 1 15.7242 15.7242 0.0027093 -7.37203 0.00475108
82 1 17.2966 17.2966 1.57278 -8.70781 8.6075e-05
83 1 18.8691 15.7242 0.0027093 -7.37203 0.00475108
84 1 20.4415 17.2966 1.57278 -8.70781 8.6075e-05
85 1 4.08053e-17 18.8691 0.0027093 -7.37203 0.00475108
86 1 1.57242 20.4415 1.57278 -8.70781 8.6075e-05
87 1 3.14484 18.8691 0.0027093 -7.37203 0.00475108
88 1 4.71726 20.4415 1.57278 -8.70781 8.6075e-05
89 1 6.28969 18.8691 0.0027093 -7.37203 0.00475108
90 1 7.86211 20.4415 1.57278 -8.70781 8.6075e-05
91 1 9.43453 18.8691 0.0027093 -7.37203 0.00475108
92 1 11.007 20.4415 1.57278 -8.70781 8.6075e-05
93 1 12.5794 18.8691 0.0027093 -7.37203 0.00475108
94 1 14.1518 20.4415 1.57278 -8.70781 8.6075e-05
95 1 15.7242 18.8691 0.0027093 -7.37203 0.00475108
96 1 17.2966 20.4415 1.57278 -8.70781 8.6075e-05
97 1 18.8691 18.8691 0.0027093 -7.37203 0.00475108
98 1 20.4415 20.4415 1.57278 -8.70781 8.6075e-05
99 1 7.1376e-17 7.21469e-17 3.14237 -8.92078 0.00387558
100 1 1.57242 1.57242 4.71723 -8.90022 1.16378e-06
101 1 3.14484 7.25306e-17 3.14237 -8.92078 0.00387558
102 1 4.71726 1.57242 4.71723 -8.90022 1.16378e-06
103 1 6.28969 7.21264e-17 3.14237 -8.92078 0.00387558
104 1 7.86211 1.57242 4.71723 -8.90022 1.16378e-06
105 1 9.43453 7.5066e-17 3.14237 -8.92078 0.00387558
106 1 11.007 1.57242 4.71723 -8.90022 1.16378e-06
107 1 12.5794 7.17229e-17 3.14237 -8.92078 0.00387558
108 1 14.1518 1.57242 4.71723 -8.90022 1.16378e-06
109 1 15.7242 7.71413e-17 3.14237 -8.92078 0.00387558
110 1 17.2966 1.57242 4.71723 -8.90022 1.16378e-06
111 1 18.8691 7.11954e-17 3.14237 -8.92078 0.00387558
112 1 20.4415 1.57242 4.71723 -8.90022 1.16378e-06
113 1 7.10559e-17 3.14484 3.14237 -8.92078 0.00387558
114 1 1.57242 4.71726 4.71723 -8.90022 1.16378e-06
115 1 3.14484 3.14484 3.14237 -8.92078 0.00387558
116 1 4.71726 4.71726 4.71723 -8.90022 1.16378e-06
117 1 6.28969 3.14484 3.14237 -8.92078 0.00387558
118 1 7.86211 4.71726 4.71723 -8.90022 1.16378e-06
119 1 9.43453 3.14484 3.14237 -8.92078 0.00387558
120 1 11.007 4.71726 4.71723 -8.90022 1.16378e-06
121 1 12.5794 3.14484 3.14237 -8.92078 0.00387558
122 1 14.1518 4.71726 4.71723 -8.90022 1.16378e-06
123 1 15.7242 3.14484 3.14237 -8.92078 0.00387558
124 1 17.2966 4.71726 4.71723 -8.90022 1.16378e-06
125 1 18.8691 3.14484 3.14237 -8.92078 0.00387558
126 1 20.4415 4.71726 4.71723 -8.90022 1.16378e-06
127 1 7.10894e-17 6.28969 3.14237 -8.92078 0.00387558
128 1 1.57242 7.86211 4.71723 -8.90022 1.16378e-06
129 1 3.14484 6.28969 3.14237 -8.92078 0.00387558
130 1 4.71726 7.86211 4.71723 -8.90022 1.16378e-06
131 1 6.28969 6.28969 3.14237 -8.92078 0.00387558
132 1 7.86211 7.86211 4.71723 -8.90022 1.16378e-06
133 1 9.43453 6.28969 3.14237 -8.92078 0.00387558
134 1 11.007 7.86211 4.71723 -8.90022 1.16378e-06
135 1 12.5794 6.28969 3.14237 -8.92078 0.00387558
136 1 14.1518 7.86211 4.71723 -8.90022 1.16378e-06
137 1 15.7242 6.28969 3.14237 -8.92078 0.00387558
138 1 17.2966 7.86211 4.71723 -8.90022 1.16378e-06
139 1 18.8691 6.28969 3.14237 -8.92078 0.00387558
140 1 20.4415 7.86211 4.71723 -8.90022 1.16378e-06
141 1 7.19436e-17 9.43453 3.14237 -8.92078 0.00387558
142 1 1.57242 11.007 4.71723 -8.90022 1.16378e-06
143 1 3.14484 9.43453 3.14237 -8.92078 0.00387558
144 1 4.71726 11.007 4.71723 -8.90022 1.16378e-06
145 1 6.28969 9.43453 3.14237 -8.92078 0.00387558
146 1 7.86211 11.007 4.71723 -8.90022 1.16378e-06
147 1 9.43453 9.43453 3.14237 -8.92078 0.00387558
148 1 11.007 11.007 4.71723 -8.90022 1.16378e-06
149 1 12.5794 9.43453 3.14237 -8.92078 0.00387558
150 1 14.1518 11.007 4.71723 -8.90022 1.16378e-06
151 1 15.7242 9.43453 3.14237 -8.92078 0.00387558
152 1 17.2966 11.007 4.71723 -8.90022 1.16378e-06
153 1 18.8691 9.43453 3.14237 -8.92078 0.00387558
154 1 20.4415 11.007 4.71723 -8.90022 1.16378e-06
155 1 7.33675e-17 12.5794 3.14237 -8.92078 0.00387558
156 1 1.57242 14.1518 4.71723 -8.90022 1.16378e-06
157 1 3.14484 12.5794 3.14237 -8.92078 0.00387558
158 1 4.71726 14.1518 4.71723 -8.90022 1.16378e-06
159 1 6.28969 12.5794 3.14237 -8.92078 0.00387558
160 1 7.86211 14.1518 4.71723 -8.90022 1.16378e-06
161 1 9.43453 12.5794 3.14237 -8.92078 0.00387558
162 1 11.007 14.1518 4.71723 -8.90022 1.16378e-06
163 1 12.5794 12.5794 3.14237 -8.92078 0.00387558
164 1 14.1518 14.1518 4.71723 -8.90022 1.16378e-06
165 1 15.7242 12.5794 3.14237 -8.92078 0.00387558
166 1 17.2966 14.1518 4.71723 -8.90022 1.16378e-06
167 1 18.8691 12.5794 3.14237 -8.92078 0.00387558
168 1 20.4415 14.1518 4.71723 -8.90022 1.16378e-06
169 1 7.14788e-17 15.7242 3.14237 -8.92078 0.00387558
170 1 1.57242 17.2966 4.71723 -8.90022 1.16378e-06
171 1 3.14484 15.7242 3.14237 -8.92078 0.00387558
172 1 4.71726 17.2966 4.71723 -8.90022 1.16378e-06
173 1 6.28969 15.7242 3.14237 -8.92078 0.00387558
174 1 7.86211 17.2966 4.71723 -8.90022 1.16378e-06
175 1 9.43453 15.7242 3.14237 -8.92078 0.00387558
176 1 11.007 17.2966 4.71723 -8.90022 1.16378e-06
177 1 12.5794 15.7242 3.14237 -8.92078 0.00387558
178 1 14.1518 17.2966 4.71723 -8.90022 1.16378e-06
179 1 15.7242 15.7242 3.14237 -8.92078 0.00387558
180 1 17.2966 17.2966 4.71723 -8.90022 1.16378e-06
181 1 18.8691 15.7242 3.14237 -8.92078 0.00387558
182 1 20.4415 17.2966 4.71723 -8.90022 1.16378e-06
183 1 7.04664e-17 18.8691 3.14237 -8.92078 0.00387558
184 1 1.57242 20.4415 4.71723 -8.90022 1.16378e-06
185 1 3.14484 18.8691 3.14237 -8.92078 0.00387558
186 1 4.71726 20.4415 4.71723 -8.90022 1.16378e-06
187 1 6.28969 18.8691 3.14237 -8.92078 0.00387558
188 1 7.86211 20.4415 4.71723 -8.90022 1.16378e-06
189 1 9.43453 18.8691 3.14237 -8.92078 0.00387558
190 1 11.007 20.4415 4.71723 -8.90022 1.16378e-06
191 1 12.5794 18.8691 3.14237 -8.92078 0.00387558
192 1 14.1518 20.4415 4.71723 -8.90022 1.16378e-06
193 1 15.7242 18.8691 3.14237 -8.92078 0.00387558
194 1 17.2966 20.4415 4.71723 -8.90022 1.16378e-06
195 1 18.8691 18.8691 3.14237 -8.92078 0.00387558
196 1 20.4415 20.4415 4.71723 -8.90022 1.16378e-06
197 1 8.55724e-17 7.17689e-17 6.28967 -8.89861 5.09334e-07
198 1 1.57242 1.57242 7.8621 -8.90001 6.68858e-08
199 1 3.14484 7.47652e-17 6.28967 -8.89861 5.09334e-07
200 1 4.71726 1.57242 7.8621 -8.90001 6.68858e-08
201 1 6.28969 7.52459e-17 6.28967 -8.89861 5.09334e-07
202 1 7.86211 1.57242 7.8621 -8.90001 6.68858e-08
203 1 9.43453 7.92994e-17 6.28967 -8.89861 5.09334e-07
204 1 11.007 1.57242 7.8621 -8.90001 6.68858e-08
205 1 12.5794 7.50729e-17 6.28967 -8.89861 5.09334e-07
206 1 14.1518 1.57242 7.8621 -8.90001 6.68858e-08
207 1 15.7242 8.08504e-17 6.28967 -8.89861 5.09334e-07
208 1 17.2966 1.57242 7.8621 -8.90001 6.68858e-08
209 1 18.8691 6.87088e-17 6.28967 -8.89861 5.09334e-07
210 1 20.4415 1.57242 7.8621 -8.90001 6.68858e-08
211 1 1.17806e-16 3.14484 6.28967 -8.89861 5.09334e-07
212 1 1.57242 4.71726 7.8621 -8.90001 6.68858e-08
213 1 3.14484 3.14484 6.28967 -8.89861 5.09334e-07
214 1 4.71726 4.71726 7.8621 -8.90001 6.68858e-08
215 1 6.28969 3.14484 6.28967 -8.89861 5.09334e-07
216 1 7.86211 4.71726 7.8621 -8.90001 6.68858e-08
217 1 9.43453 3.14484 6.28967 -8.89861 5.09334e-07
218 1 11.007 4.71726 7.8621 -8.90001 6.68858e-08
219 1 12.5794 3.14484 6.28967 -8.89861 5.09334e-07
220 1 14.1518 4.71726 7.8621 -8.90001 6.68858e-08
221 1 15.7242 3.14484 6.28967 -8.89861 5.09334e-07
222 1 17.2966 4.71726 7.8621 -8.90001 6.68858e-08
223 1 18.8691 3.14484 6.28967 -8.89861 5.09334e-07
224 1 20.4415 4.71726 7.8621 -8.90001 6.68858e-08
225 1 2.07418e-16 6.28969 6.28967 -8.89861 5.09334e-07
226 1 1.57242 7.86211 7.8621 -8.90001 6.68858e-08
227 1 3.14484 6.28969 6.28967 -8.89861 5.09334e-07
228 1 4.71726 7.86211 7.8621 -8.90001 6.68858e-08
229 1 6.28969 6.28969 6.28967 -8.89861 5.09334e-07
230 1 7.86211 7.86211 7.8621 -8.90001 6.68858e-08
231 1 9.43453 6.28969 6.28967 -8.89861 5.09334e-07
232 1 11.007 7.86211 7.8621 -8.90001 6.68858e-08
233 1 12.5794 6.28969 6.28967 -8.89861 5.09334e-07
234 1 14.1518 7.86211 7.8621 -8.90001 6.68858e-08
235 1 15.7242 6.28969 6.28967 -8.89861 5.09334e-07
236 1 17.2966 7.86211 7.8621 -8.90001 6.68858e-08
237 1 18.8691 6.28969 6.28967 -8.89861 5.09334e-07
238 1 20.4415 7.86211 7.8621 -8.90001 6.68858e-08
239 1 2.93051e-16 9.43453 6.28967 -8.89861 5.09334e-07
240 1 1.57242 11.007 7.8621 -8.90001 6.68858e-08
241 1 3.14484 9.43453 6.28967 -8.89861 5.09334e-07
242 1 4.71726 11.007 7.8621 -8.90001 6.68858e-08
243 1 6.28969 9.43453 6.28967 -8.89861 5.09334e-07
244 1 7.86211 11.007 7.8621 -8.90001 6.68857e-08
245 1 9.43453 9.43453 6.28967 -8.89861 5.09334e-07
246 1 11.007 11.007 7.8621 -8.90001 6.68857e-08
247 1 12.5794 9.43453 6.28967 -8.89861 5.09334e-07
248 1 14.1518 11.007 7.8621 -8.90001 6.68858e-08
249 1 15.7242 9.43453 6.28967 -8.89861 5.09334e-07
250 1 17.2966 11.007 7.8621 -8.90001 6.68858e-08
251 1 18.8691 9.43453 6.28967 -8.89861 5.09334e-07
252 1 20.4415 11.007 7.8621 -8.90001 6.68858e-08
253 1 2.92398e-16 12.5794 6.28967 -8.89861 5.09334e-07
254 1 1.57242 14.1518 7.8621 -8.90001 6.68858e-08
255 1 3.14484 12.5794 6.28967 -8.89861 5.09334e-07
256 1 4.71726 14.1518 7.8621 -8.90001 6.68858e-08
257 1 6.28969 12.5794 6.28967 -8.89861 5.09334e-07
258 1 7.86211 14.1518 7.8621 -8.90001 6.68858e-08
259 1 9.43453 12.5794 6.28967 -8.89861 5.09334e-07
260 1 11.007 14.1518 7.8621 -8.90001 6.68858e-08
261 1 12.5794 12.5794 6.28967 -8.89861 5.09334e-07
262 1 14.1518 14.1518 7.8621 -8.90001 6.68858e-08
263 1 15.7242 12.5794 6.28967 -8.89861 5.09334e-07
264 1 17.2966 14.1518 7.8621 -8.90001 6.68858e-08
265 1 18.8691 12.5794 6.28967 -8.89861 5.09334e-07
266 1 20.4415 14.1518 7.8621 -8.90001 6.68858e-08
267 1 2.05046e-16 15.7242 6.28967 -8.89861 5.09334e-07
268 1 1.57242 17.2966 7.8621 -8.90001 6.68858e-08
269 1 3.14484 15.7242 6.28967 -8.89861 5.09334e-07
270 1 4.71726 17.2966 7.8621 -8.90001 6.68858e-08
271 1 6.28969 15.7242 6.28967 -8.89861 5.09334e-07
272 1 7.86211 17.2966 7.8621 -8.90001 6.68858e-08
273 1 9.43453 15.7242 6.28967 -8.89861 5.09334e-07
274 1 11.007 17.2966 7.8621 -8.90001 6.68858e-08
275 1 12.5794 15.7242 6.28967 -8.89861 5.09334e-07
276 1 14.1518 17.2966 7.8621 -8.90001 6.68858e-08
277 1 15.7242 15.7242 6.28967 -8.89861 5.09334e-07
278 1 17.2966 17.2966 7.8621 -8.90001 6.68858e-08
279 1 18.8691 15.7242 6.28967 -8.89861 5.09334e-07
280 1 20.4415 17.2966 7.8621 -8.90001 6.68858e-08
281 1 1.15239e-16 18.8691 6.28967 -8.89861 5.09334e-07
282 1 1.57242 20.4415 7.8621 -8.90001 6.68858e-08
283 1 3.14484 18.8691 6.28967 -8.89861 5.09334e-07
284 1 4.71726 20.4415 7.8621 -8.90001 6.68858e-08
285 1 6.28969 18.8691 6.28967 -8.89861 5.09334e-07
286 1 7.86211 20.4415 7.8621 -8.90001 6.68858e-08
287 1 9.43453 18.8691 6.28967 -8.89861 5.09334e-07
288 1 11.007 20.4415 7.8621 -8.90001 6.68858e-08
289 1 12.5794 18.8691 6.28967 -8.89861 5.09334e-07
290 1 14.1518 20.4415 7.8621 -8.90001 6.68858e-08
291 1 15.7242 18.8691 6.28967 -8.89861 5.09334e-07
292 1 17.2966 20.4415 7.8621 -8.90001 6.68858e-08
293 1 18.8691 18.8691 6.28967 -8.89861 5.09334e-07
294 1 20.4415 20.4415 7.8621 -8.90001 6.68858e-08
295 1 4.6631e-16 7.78338e-17 9.43453 -8.89966 1.05432e-10
296 1 1.57242 1.57242 11.007 -8.89966 5.80225e-23
297 1 3.14484 7.03769e-17 9.43453 -8.89966 1.05432e-10
298 1 4.71726 1.57242 11.007 -8.89966 1.77711e-21
299 1 6.28969 8.94159e-17 9.43453 -8.89966 1.05432e-10
300 1 7.86211 1.57242 11.007 -8.89966 7.66895e-21
301 1 9.43453 7.09553e-17 9.43453 -8.89966 1.05432e-10
302 1 11.007 1.57242 11.007 -8.89966 8.71737e-21
303 1 12.5794 7.23603e-17 9.43453 -8.89966 1.05432e-10
304 1 14.1518 1.57242 11.007 -8.89966 2.94122e-21
305 1 15.7242 8.19373e-17 9.43453 -8.89966 1.05432e-10
306 1 17.2966 1.57242 11.007 -8.89966 2.63719e-22
307 1 18.8691 7.33968e-17 9.43453 -8.89966 1.05432e-10
308 1 20.4415 1.57242 11.007 -8.89966 5.22793e-24
309 1 1.93158e-15 3.14484 9.43453 -8.89966 1.05432e-10
310 1 1.57242 4.71726 11.007 -8.89966 1.78075e-21
311 1 3.14484 3.14484 9.43453 -8.89966 1.05432e-10
312 1 4.71726 4.71726 11.007 -8.89966 1.05551e-19
313 1 6.28969 3.14484 9.43453 -8.89966 1.05431e-10
314 1 7.86211 4.71726 11.007 -8.89966 6.43225e-19
315 1 9.43453 3.14484 9.43453 -8.89966 1.05431e-10
316 1 11.007 4.71726 11.007 -8.89966 7.38971e-19
317 1 12.5794 3.14484 9.43453 -8.89966 1.05431e-10
318 1 14.1518 4.71726 11.007 -8.89966 1.97261e-19
319 1 15.7242 3.14484 9.43453 -8.89966 1.05431e-10
320 1 17.2966 4.71726 11.007 -8.89966 1.27609e-20
321 1 18.8691 3.14484 9.43453 -8.89966 1.05432e-10
322 1 20.4415 4.71726 11.007 -8.89966 1.67861e-22
323 1 6.34573e-15 6.28969 9.43453 -8.89966 1.05432e-10
324 1 1.57242 7.86211 11.007 -8.89966 9.54283e-21
325 1 3.14484 6.28969 9.43453 -8.89966 1.05431e-10
326 1 4.71726 7.86211 11.007 -8.89966 7.84778e-19
327 1 6.28969 6.28969 9.43453 -8.89966 1.05427e-10
328 1 7.86211 7.86211 11.007 -8.89966 1.3334e-17
329 1 9.43453 6.28969 9.43453 -8.89966 1.05425e-10
330 1 11.007 7.86211 11.007 -8.89966 1.6348e-17
331 1 12.5794 6.28969 9.43453 -8.89966 1.05427e-10
332 1 14.1518 7.86211 11.007 -8.89966 3.00428e-18
333 1 15.7242 6.28969 9.43453 -8.89966 1.0543e-10
334 1 17.2966 7.86211 11.007 -8.89966 9.00699e-20
335 1 18.8691 6.28969 9.43453 -8.89966 1.05432e-10
336 1 20.4415 7.86211 11.007 -8.89966 9.35625e-22
337 1 1.08117e-14 9.43453 9.43453 -8.89966 1.05432e-10
338 1 1.57242 11.007 11.007 -8.89966 1.60121e-20
339 1 3.14484 9.43453 9.43453 -8.89966 1.0543e-10
340 1 4.71726 11.007 11.007 -8.89966 1.4343e-18
341 1 6.28969 9.43453 9.43453 -8.89966 1.05423e-10
342 1 7.86211 11.007 11.007 -8.89966 2.85042e-17
343 1 9.43453 9.43453 9.43453 -8.89966 1.05418e-10
344 1 11.007 11.007 11.007 -8.89966 3.4456e-17
345 1 12.5794 9.43453 9.43453 -8.89966 1.05422e-10
346 1 14.1518 11.007 11.007 -8.89966 6.12864e-18
347 1 15.7242 9.43453 9.43453 -8.89966 1.05429e-10
348 1 17.2966 11.007 11.007 -8.89966 1.63359e-19
349 1 18.8691 9.43453 9.43453 -8.89966 1.05431e-10
350 1 20.4415 11.007 11.007 -8.89966 1.59137e-21
351 1 1.0804e-14 12.5794 9.43453 -8.89966 1.05432e-10
352 1 1.57242 14.1518 11.007 -8.89966 9.5428e-21
353 1 3.14484 12.5794 9.43453 -8.89966 1.0543e-10
354 1 4.71726 14.1518 11.007 -8.89966 7.84779e-19
355 1 6.28969 12.5794 9.43453 -8.89966 1.05423e-10
356 1 7.86211 14.1518 11.007 -8.89966 1.3334e-17
357 1 9.43453 12.5794 9.43453 -8.89966 1.05418e-10
358 1 11.007 14.1518 11.007 -8.89966 1.6348e-17
359 1 12.5794 12.5794 9.43453 -8.89966 1.05422e-10
360 1 14.1518 14.1518 11.007 -8.89966 3.00428e-18
361 1 15.7242 12.5794 9.43453 -8.89966 1.05429e-10
362 1 17.2966 14.1518 11.007 -8.89966 9.00705e-20
363 1 18.8691 12.5794 9.43453 -8.89966 1.05431e-10
364 1 20.4415 14.1518 11.007 -8.89966 9.35678e-22
365 1 6.35565e-15 15.7242 9.43453 -8.89966 1.05432e-10
366 1 1.57242 17.2966 11.007 -8.89966 1.78079e-21
367 1 3.14484 15.7242 9.43453 -8.89966 1.05431e-10
368 1 4.71726 17.2966 11.007 -8.89966 1.0555e-19
369 1 6.28969 15.7242 9.43453 -8.89966 1.05427e-10
370 1 7.86211 17.2966 11.007 -8.89966 6.43223e-19
371 1 9.43453 15.7242 9.43453 -8.89966 1.05425e-10
372 1 11.007 17.2966 11.007 -8.89966 7.38976e-19
373 1 12.5794 15.7242 9.43453 -8.89966 1.05427e-10
374 1 14.1518 17.2966 11.007 -8.89966 1.97262e-19
375 1 15.7242 15.7242 9.43453 -8.89966 1.0543e-10
376 1 17.2966 17.2966 11.007 -8.89966 1.27603e-20
377 1 18.8691 15.7242 9.43453 -8.89966 1.05432e-10
378 1 20.4415 17.2966 11.007 -8.89966 1.67807e-22
379 1 1.9334e-15 18.8691 9.43453 -8.89966 1.05432e-10
380 1 1.57242 20.4415 11.007 -8.89966 5.80788e-23
381 1 3.14484 18.8691 9.43453 -8.89966 1.05432e-10
382 1 4.71726 20.4415 11.007 -8.89966 1.77729e-21
383 1 6.28969 18.8691 9.43453 -8.89966 1.05431e-10
384 1 7.86211 20.4415 11.007 -8.89966 7.66942e-21
385 1 9.43453 18.8691 9.43453 -8.89966 1.05431e-10
386 1 11.007 20.4415 11.007 -8.89966 8.71728e-21
387 1 12.5794 18.8691 9.43453 -8.89966 1.05431e-10
388 1 14.1518 20.4415 11.007 -8.89966 2.9415e-21
389 1 15.7242 18.8691 9.43453 -8.89966 1.05431e-10
390 1 17.2966 20.4415 11.007 -8.89966 2.63796e-22
391 1 18.8691 18.8691 9.43453 -8.89966 1.05432e-10
392 1 20.4415 20.4415 11.007 -8.89966 5.23199e-24
393 1 2.2058e-14 9.22242e-17 12.5794 -8.89966 1.05432e-10
394 1 3.14484 7.18464e-17 12.5794 -8.89966 1.05432e-10
395 1 6.28969 8.85745e-17 12.5794 -8.89966 1.05434e-10
396 1 9.43453 5.7005e-17 12.5794 -8.89966 1.05435e-10
397 1 12.5794 7.07458e-17 12.5794 -8.89966 1.05434e-10
398 1 15.7242 7.16941e-17 12.5794 -8.89966 1.05433e-10
399 1 18.8691 6.00674e-17 12.5794 -8.89966 1.05432e-10
400 1 1.39064e-13 3.14484 12.5794 -8.89966 1.05432e-10
401 1 3.14484 3.14484 12.5794 -8.89966 1.05435e-10
402 1 6.28969 3.14484 12.5794 -8.89966 1.05451e-10
403 1 9.43453 3.14484 12.5794 -8.89966 1.05462e-10
404 1 12.5794 3.14484 12.5794 -8.89966 1.05454e-10
405 1 15.7242 3.14484 12.5794 -8.89966 1.05439e-10
406 1 18.8691 3.14484 12.5794 -8.89966 1.05433e-10
407 1 4.84991e-13 6.28969 12.5794 -8.89966 1.05433e-10
408 1 3.14484 6.28969 12.5794 -8.89966 1.05451e-10
409 1 6.28969 6.28969 12.5794 -8.89966 1.06095e-10
410 1 9.43453 6.28969 12.5794 -8.89966 1.06527e-10
411 1 12.5794 6.28969 12.5794 -8.89966 1.06227e-10
412 1 15.7242 6.28969 12.5794 -8.89966 1.05614e-10
413 1 18.8691 6.28969 12.5794 -8.89966 1.05438e-10
414 1 8.37621e-13 9.43453 12.5794 -8.89966 1.05434e-10
415 1 3.14484 9.43453 12.5794 -8.89966 1.05467e-10
416 1 6.28969 9.43453 12.5794 -8.89966 1.06813e-10
417 1 9.43453 9.43453 12.5794 -8.89966 1.07728e-10
418 1 12.5794 9.43453 12.5794 -8.89966 1.07084e-10
419 1 15.7242 9.43453 12.5794 -8.89966 1.0582e-10
420 1 18.8691 9.43453 12.5794 -8.89966 1.05443e-10
421 1 8.37624e-13 12.5794 12.5794 -8.89966 1.05434e-10
422 1 3.14484 12.5794 12.5794 -8.89966 1.05467e-10
423 1 6.28969 12.5794 12.5794 -8.89966 1.06813e-10
424 1 9.43453 12.5794 12.5794 -8.89966 1.07728e-10
425 1 12.5794 12.5794 12.5794 -8.89966 1.07084e-10
426 1 15.7242 12.5794 12.5794 -8.89966 1.0582e-10
427 1 18.8691 12.5794 12.5794 -8.89966 1.05443e-10
428 1 4.84996e-13 15.7242 12.5794 -8.89966 1.05433e-10
429 1 3.14484 15.7242 12.5794 -8.89966 1.05451e-10
430 1 6.28969 15.7242 12.5794 -8.89966 1.06095e-10
431 1 9.43453 15.7242 12.5794 -8.89966 1.06527e-10
432 1 12.5794 15.7242 12.5794 -8.89966 1.06227e-10
433 1 15.7242 15.7242 12.5794 -8.89966 1.05614e-10
434 1 18.8691 15.7242 12.5794 -8.89966 1.05438e-10
435 1 1.39064e-13 18.8691 12.5794 -8.89966 1.05432e-10
436 1 3.14484 18.8691 12.5794 -8.89966 1.05435e-10
437 1 6.28969 18.8691 12.5794 -8.89966 1.05451e-10
438 1 9.43453 18.8691 12.5794 -8.89966 1.05462e-10
439 1 12.5794 18.8691 12.5794 -8.89966 1.05454e-10
440 1 15.7242 18.8691 12.5794 -8.89966 1.05439e-10
441 1 18.8691 18.8691 12.5794 -8.89966 1.05433e-10
442 1 1.57242 1.57242 14.1518 -8.90001 6.68858e-08
443 1 4.71726 1.57242 14.1518 -8.90001 6.6886e-08
444 1 7.86211 1.57242 14.1518 -8.90001 6.68865e-08
445 1 11.007 1.57242 14.1518 -8.90001 6.68865e-08
446 1 14.1518 1.57242 14.1518 -8.90001 6.68861e-08
447 1 17.2966 1.57242 14.1518 -8.90001 6.68859e-08
448 1 20.4415 1.57242 14.1518 -8.90001 6.68858e-08
449 1 1.57242 4.71726 14.1518 -8.90001 6.6886e-08
450 1 4.71726 4.71726 14.1518 -8.90001 6.68994e-08
451 1 7.86211 4.71726 14.1518 -8.90001 6.69258e-08
452 1 11.007 4.71726 14.1518 -8.90001 6.69288e-08
453 1 14.1518 4.71726 14.1518 -8.90001 6.69055e-08
454 1 17.2966 4.71726 14.1518 -8.90001 6.68897e-08
455 1 20.4415 4.71726 14.1518 -8.90001 6.68859e-08
456 1 1.57242 7.86211 14.1518 -8.90001 6.68864e-08
457 1 4.71726 7.86211 14.1518 -8.90001 6.69282e-08
458 1 7.86211 7.86211 14.1518 -8.90001 6.71196e-08
459 1 11.007 7.86211 14.1518 -8.90001 6.71366e-08
460 1 14.1518 7.86211 14.1518 -8.90001 6.69726e-08
461 1 17.2966 7.86211 14.1518 -8.90001 6.68984e-08
462 1 20.4415 7.86211 14.1518 -8.90001 6.6886e-08
463 1 1.57242 11.007 14.1518 -8.90001 6.68867e-08
464 1 4.71726 11.007 14.1518 -8.90001 6.69448e-08
465 1 7.86211 11.007 14.1518 -8.90001 6.72358e-08
466 1 11.007 11.007 14.1518 -8.90001 6.72632e-08
467 1 14.1518 11.007 14.1518 -8.90001 6.70132e-08
468 1 17.2966 11.007 14.1518 -8.90001 6.69036e-08
469 1 20.4415 11.007 14.1518 -8.90001 6.68861e-08
470 1 1.57242 14.1518 14.1518 -8.90001 6.68864e-08
471 1 4.71726 14.1518 14.1518 -8.90001 6.69282e-08
472 1 7.86211 14.1518 14.1518 -8.90001 6.71196e-08
473 1 11.007 14.1518 14.1518 -8.90001 6.71366e-08
474 1 14.1518 14.1518 14.1518 -8.90001 6.69726e-08
475 1 17.2966 14.1518 14.1518 -8.90001 6.68984e-08
476 1 20.4415 14.1518 14.1518 -8.90001 6.6886e-08
477 1 1.57242 17.2966 14.1518 -8.90001 6.6886e-08
478 1 4.71726 17.2966 14.1518 -8.90001 6.68994e-08
479 1 7.86211 17.2966 14.1518 -8.90001 6.69258e-08
480 1 11.007 17.2966 14.1518 -8.90001 6.69288e-08
481 1 14.1518 17.2966 14.1518 -8.90001 6.69055e-08
482 1 17.2966 17.2966 14.1518 -8.90001 6.68897e-08
483 1 20.4415 17.2966 14.1518 -8.90001 6.68859e-08
484 1 1.57242 20.4415 14.1518 -8.90001 6.68858e-08
485 1 4.71726 20.4415 14.1518 -8.90001 6.6886e-08
486 1 7.86211 20.4415 14.1518 -8.90001 6.68865e-08
487 1 11.007 20.4415 14.1518 -8.90001 6.68865e-08
488 1 14.1518 20.4415 14.1518 -8.90001 6.68861e-08
489 1 17.2966 20.4415 14.1518 -8.90001 6.68859e-08
490 1 20.4415 20.4415 14.1518 -8.90001 6.68858e-08
491 1 2.46357e-13 9.09173e-17 15.7242 -8.89861 5.09334e-07
492 1 1.57242 1.57242 17.2967 -8.90022 1.16378e-06
493 1 3.14484 7.92743e-17 15.7242 -8.89861 5.09334e-07
494 1 4.71726 1.57242 17.2967 -8.90022 1.16381e-06
495 1 6.28969 7.69642e-17 15.7242 -8.89861 5.09336e-07
496 1 7.86211 1.57242 17.2967 -8.90022 1.16386e-06
497 1 9.43453 5.41686e-17 15.7242 -8.89861 5.09337e-07
498 1 11.007 1.57242 17.2967 -8.90022 1.16387e-06
499 1 12.5794 1.05965e-16 15.7242 -8.89861 5.09336e-07
500 1 14.1518 1.57242 17.2967 -8.90022 1.16382e-06
501 1 15.7242 6.67229e-17 15.7242 -8.89861 5.09335e-07
502 1 17.2966 1.57242 17.2967 -8.90022 1.16379e-06
503 1 18.8691 5.50323e-17 15.7242 -8.89861 5.09334e-07
504 1 20.4415 1.57242 17.2967 -8.90022 1.16378e-06
505 1 1.41238e-12 3.14484 15.7242 -8.89861 5.09334e-07
506 1 1.57242 4.71726 17.2967 -8.90022 1.1638e-06
507 1 3.14484 3.14484 15.7242 -8.89861 5.09344e-07
508 1 4.71726 4.71726 17.2967 -8.90022 1.16416e-06
509 1 6.28969 3.14484 15.7242 -8.89861 5.09402e-07
510 1 7.86211 4.71726 17.2967 -8.90022 1.16547e-06
511 1 9.43453 3.14484 15.7242 -8.89861 5.09447e-07
512 1 11.007 4.71726 17.2967 -8.90022 1.16547e-06
513 1 12.5794 3.14484 15.7242 -8.89861 5.09414e-07
514 1 14.1518 4.71726 17.2967 -8.90022 1.16446e-06
515 1 15.7242 3.14484 15.7242 -8.89861 5.09358e-07
516 1 17.2966 4.71726 17.2967 -8.90022 1.1639e-06
517 1 18.8691 3.14484 15.7242 -8.89861 5.09337e-07
518 1 20.4415 4.71726 17.2967 -8.90022 1.16379e-06
519 1 7.67615e-12 6.28969 15.7242 -8.89861 5.09335e-07
520 1 1.57242 7.86211 17.2967 -8.90022 1.16386e-06
521 1 3.14484 6.28969 15.7242 -8.89861 5.09397e-07
522 1 4.71726 7.86211 17.2967 -8.90022 1.16544e-06
523 1 6.28969 6.28969 15.7242 -8.89861 5.09949e-07
524 1 7.86211 7.86211 17.2967 -8.90031 1.30331e-06
525 1 9.43453 6.28969 15.7242 -8.89861 5.10502e-07
526 1 11.007 7.86211 17.2967 -8.90031 1.30466e-06
527 1 12.5794 6.28969 15.7242 -8.89861 5.10068e-07
528 1 14.1518 7.86211 17.2967 -8.90024 1.1995e-06
529 1 15.7242 6.28969 15.7242 -8.89861 5.09532e-07
530 1 17.2966 7.86211 17.2967 -8.90022 1.16431e-06
531 1 18.8691 6.28969 15.7242 -8.89861 5.09355e-07
532 1 20.4415 7.86211 17.2967 -8.90022 1.16381e-06
533 1 1.3578e-11 9.43453 15.7242 -8.89861 5.09336e-07
534 1 1.57242 11.007 17.2967 -8.90022 1.16388e-06
535 1 3.14484 9.43453 15.7242 -8.89861 5.09452e-07
536 1 4.71726 11.007 17.2967 -8.90022 1.16589e-06
537 1 6.28969 9.43453 15.7242 -8.89861 5.10661e-07
538 1 7.86211 11.007 17.2967 -8.90035 1.36198e-06
539 1 9.43453 9.43453 15.7242 -8.89861 5.14824e-07
540 1 11.0069 11.007 17.2967 -8.90034 1.35282e-06
541 1 12.5794 9.43453 15.7242 -8.89861 5.12047e-07
542 1 14.1518 11.007 17.2967 -8.90026 1.21682e-06
543 1 15.7242 9.43453 15.7242 -8.89861 5.09757e-07
544 1 17.2966 11.007 17.2967 -8.90022 1.1645e-06
545 1 18.8691 9.43453 15.7242 -8.89861 5.09377e-07
546 1 20.4415 11.007 17.2967 -8.90022 1.16382e-06
547 1 1.3578e-11 12.5794 15.7242 -8.89861 5.09336e-07
548 1 1.57242 14.1518 17.2967 -8.90022 1.16386e-06
549 1 3.14484 12.5794 15.7242 -8.89861 5.09452e-07
550 1 4.71726 14.1518 17.2967 -8.90022 1.16544e-06
551 1 6.28969 12.5794 15.7242 -8.89861 5.10661e-07
552 1 7.86211 14.1518 17.2967 -8.90031 1.30331e-06
553 1 9.43453 12.5794 15.7242 -8.89861 5.14824e-07
554 1 11.007 14.1518 17.2967 -8.90031 1.30466e-06
555 1 12.5794 12.5794 15.7242 -8.89861 5.12047e-07
556 1 14.1518 14.1518 17.2967 -8.90024 1.1995e-06
557 1 15.7242 12.5794 15.7242 -8.89861 5.09757e-07
558 1 17.2966 14.1518 17.2967 -8.90022 1.16431e-06
559 1 18.8691 12.5794 15.7242 -8.89861 5.09377e-07
560 1 20.4415 14.1518 17.2967 -8.90022 1.16381e-06
561 1 7.67614e-12 15.7242 15.7242 -8.89861 5.09335e-07
562 1 1.57242 17.2966 17.2967 -8.90022 1.1638e-06
563 1 3.14484 15.7242 15.7242 -8.89861 5.09397e-07
564 1 4.71726 17.2966 17.2967 -8.90022 1.16416e-06
565 1 6.28969 15.7242 15.7242 -8.89861 5.09949e-07
566 1 7.86211 17.2966 17.2967 -8.90022 1.16547e-06
567 1 9.43453 15.7242 15.7242 -8.89861 5.10502e-07
568 1 11.007 17.2966 17.2967 -8.90022 1.16547e-06
569 1 12.5794 15.7242 15.7242 -8.89861 5.10068e-07
570 1 14.1518 17.2966 17.2967 -8.90022 1.16446e-06
571 1 15.7242 15.7242 15.7242 -8.89861 5.09532e-07
572 1 17.2966 17.2966 17.2967 -8.90022 1.1639e-06
573 1 18.8691 15.7242 15.7242 -8.89861 5.09355e-07
574 1 20.4415 17.2966 17.2967 -8.90022 1.16379e-06
575 1 1.41239e-12 18.8691 15.7242 -8.89861 5.09334e-07
576 1 1.57242 20.4415 17.2967 -8.90022 1.16378e-06
577 1 3.14484 18.8691 15.7242 -8.89861 5.09344e-07
578 1 4.71726 20.4415 17.2967 -8.90022 1.16381e-06
579 1 6.28969 18.8691 15.7242 -8.89861 5.09402e-07
580 1 7.86211 20.4415 17.2967 -8.90022 1.16386e-06
581 1 9.43453 18.8691 15.7242 -8.89861 5.09447e-07
582 1 11.007 20.4415 17.2967 -8.90022 1.16387e-06
583 1 12.5794 18.8691 15.7242 -8.89861 5.09414e-07
584 1 14.1518 20.4415 17.2967 -8.90022 1.16382e-06