ITEM: TIMESTEP
322
ITEM: NUMBER OF ATOMS
736
ITEM: BOX BOUNDS pp pp pp
0.0000000000000000e+00 2.2013900999999997e+01
0.0000000000000000e+00 2.2013900999999997e+01
0.0000000000000000e+00 5.3462330999999999e+01
ITEM: ATOMS id type x y z c_pot c_ke
1 1 -0.000970376 -6.99674e-16 0.097635 -7.40188 2.67887e-09
2 1 1.57142 1.5724 1.62442 -8.68379 2.38921e-09
3 1 3.14382 -8.77365e-16 0.0976084 -7.40187 2.6841e-09
4 1 4.71623 1.57239 1.62435 -8.68379 2.39249e-09
5 1 6.28865 -5.93083e-16 0.097549 -7.40185 2.68955e-09
6 1 7.86109 1.57239 1.62427 -8.68378 2.39482e-09
7 1 9.43353 -1.27345e-15 0.0975016 -7.40183 2.69112e-09
8 1 11.006 1.57239 1.62423 -8.68378 2.39444e-09
9 1 12.5784 -1.4759e-15 0.0975016 -7.40183 2.68763e-09
10 1 14.1509 1.57239 1.62427 -8.68378 2.39166e-09
11 1 15.7233 -1.2988e-15 0.0975492 -7.40185 2.68172e-09
12 1 17.2957 1.57239 1.62435 -8.68379 2.38854e-09
13 1 18.8681 -1.26894e-15 0.0976085 -7.40187 2.67781e-09
14 1 20.4405 1.5724 1.62442 -8.68379 2.38744e-09
15 1 -0.000970372 3.14479 0.0976085 -7.40187 2.67888e-09
16 1 1.57142 4.71721 1.62435 -8.68379 2.38926e-09
17 1 3.14382 3.14479 0.0975792 -7.40186 2.68407e-09
18 1 4.71623 4.7172 1.62427 -8.68378 2.39247e-09
19 1 6.28865 3.14478 0.0975135 -7.40184 2.68945e-09
20 1 7.86108 4.71719 1.62417 -8.68377 2.3947e-09
21 1 9.43353 3.14477 0.0974609 -7.40182 2.69095e-09
22 1 11.006 4.71719 1.62412 -8.68377 2.39429e-09
23 1 12.5784 3.14477 0.0974609 -7.40182 2.68746e-09
24 1 14.1509 4.71719 1.62417 -8.68377 2.39155e-09
25 1 15.7233 3.14478 0.0975136 -7.40184 2.68161e-09
26 1 17.2957 4.7172 1.62427 -8.68378 2.38853e-09
27 1 18.8681 3.14479 0.0975793 -7.40186 2.67779e-09
28 1 20.4405 4.71721 1.62435 -8.68379 2.3875e-09
29 1 -0.000970361 6.28962 0.0975491 -7.40185 2.67889e-09
30 1 1.57141 7.86206 1.62427 -8.68378 2.38936e-09
31 1 3.14381 6.28962 0.0975135 -7.40184 2.68401e-09
32 1 4.71622 7.86206 1.62417 -8.68377 2.39247e-09
33 1 6.28864 6.28961 0.0974332 -7.40181 2.68921e-09
34 1 7.86108 7.86205 1.62404 -8.68377 2.39458e-09
35 1 9.43352 6.2896 0.0973686 -7.40178 2.69057e-09
36 1 11.006 7.86205 1.62398 -8.68376 2.39412e-09
37 1 12.5784 6.2896 0.0973686 -7.40178 2.68709e-09
38 1 14.1509 7.86205 1.62404 -8.68377 2.39145e-09
39 1 15.7233 6.28961 0.0974333 -7.40181 2.68139e-09
40 1 17.2957 7.86206 1.62417 -8.68377 2.38856e-09
41 1 18.8682 6.28962 0.0975136 -7.40184 2.67773e-09
42 1 20.4405 7.86206 1.62427 -8.68378 2.38761e-09
43 1 -0.000970352 9.4345 0.0975016 -7.40183 2.67891e-09
44 1 1.57141 11.007 1.62423 -8.68378 2.38941e-09
45 1 3.1438 9.4345 0.0974609 -7.40182 2.68398e-09
46 1 4.71622 11.007 1.62412 -8.68377 2.39249e-09
47 1 6.28863 9.43449 0.0973685 -7.40178 2.68904e-09
48 1 7.86107 11.007 1.62398 -8.68376 2.39454e-09
49 1 9.43352 9.43449 0.0972937 -7.40175 2.69027e-09
50 1 11.006 11.007 1.62392 -8.68376 2.39405e-09
51 1 12.5784 9.43449 0.0972937 -7.40175 2.6868e-09
52 1 14.1509 11.007 1.62398 -8.68376 2.39142e-09
53 1 15.7233 9.43449 0.0973686 -7.40178 2.68122e-09
54 1 17.2957 11.007 1.62412 -8.68377 2.38858e-09
55 1 18.8682 9.4345 0.0974609 -7.40182 2.6777e-09
56 1 20.4405 11.007 1.62423 -8.68378 2.38766e-09
57 1 -0.000970352 12.5794 0.0975016 -7.40183 2.67891e-09
58 1 1.57141 14.1518 1.62427 -8.68378 2.38936e-09
59 1 3.1438 12.5794 0.0974609 -7.40182 2.68398e-09
60 1 4.71622 14.1518 1.62417 -8.68377 2.39247e-09
61 1 6.28863 12.5794 0.0973685 -7.40178 2.68904e-09
62 1 7.86108 14.1519 1.62404 -8.68377 2.39458e-09
63 1 9.43352 12.5794 0.0972937 -7.40175 2.69027e-09
64 1 11.006 14.1519 1.62398 -8.68376 2.39412e-09
65 1 12.5784 12.5794 0.0972937 -7.40175 2.6868e-09
66 1 14.1509 14.1519 1.62404 -8.68377 2.39145e-09
67 1 15.7233 12.5794 0.0973686 -7.40178 2.68122e-09
68 1 17.2957 14.1518 1.62417 -8.68377 2.38856e-09
69 1 18.8682 12.5794 0.0974609 -7.40182 2.6777e-09
70 1 20.4405 14.1518 1.62427 -8.68378 2.38761e-09
71 1 -0.000970361 15.7243 0.0975491 -7.40185 2.67889e-09
72 1 1.57142 17.2967 1.62435 -8.68379 2.38926e-09
73 1 3.14381 15.7243 0.0975135 -7.40184 2.68401e-09
74 1 4.71623 17.2967 1.62427 -8.68378 2.39247e-09
75 1 6.28864 15.7243 0.0974332 -7.40181 2.68921e-09
76 1 7.86108 17.2967 1.62417 -8.68377 2.3947e-09
77 1 9.43352 15.7243 0.0973686 -7.40178 2.69057e-09
78 1 11.006 17.2967 1.62412 -8.68377 2.39429e-09
79 1 12.5784 15.7243 0.0973686 -7.40178 2.68709e-09
80 1 14.1509 17.2967 1.62417 -8.68377 2.39155e-09
81 1 15.7233 15.7243 0.0974333 -7.40181 2.68139e-09
82 1 17.2957 17.2967 1.62427 -8.68378 2.38853e-09
83 1 18.8682 15.7243 0.0975136 -7.40184 2.67773e-09
84 1 20.4405 17.2967 1.62435 -8.68379 2.3875e-09
85 1 -0.000970372 18.8691 0.0976085 -7.40187 2.67888e-09
86 1 1.57142 20.4415 1.62442 -8.68379 2.38921e-09
87 1 3.14382 18.8691 0.0975792 -7.40186 2.68407e-09
88 1 4.71623 20.4415 1.62435 -8.68379 2.39249e-09
89 1 6.28865 18.8691 0.0975135 -7.40184 2.68945e-09
90 1 7.86109 20.4415 1.62427 -8.68378 2.39482e-09
91 1 9.43353 18.8691 0.0974609 -7.40182 2.69095e-09
92 1 11.006 20.4415 1.62423 -8.68378 2.39444e-09
93 1 12.5784 18.8691 0.0974609 -7.40182 2.68746e-09
94 1 14.1509 20.4415 1.62427 -8.68378 2.39166e-09
95 1 15.7233 18.8691 0.0975136 -7.40184 2.68161e-09
96 1 17.2957 20.4415 1.62435 -8.68379 2.38854e-09
97 1 18.8681 18.8691 0.0975793 -7.40186 2.67779e-09
98 1 20.4405 20.4415 1.62442 -8.68379 2.38744e-09
99 1 -0.000983465 -9.52589e-16 3.15455 -8.93805 2.01231e-09
100 1 1.5714 1.5724 4.74383 -8.90301 1.50351e-09
101 1 3.14382 -6.27285e-16 3.15451 -8.93805 2.01355e-09
102 1 4.71622 1.57239 4.74374 -8.90301 1.50428e-09
103 1 6.28866 -7.79975e-16 3.15442 -8.93806 2.01519e-09
104 1 7.86107 1.57239 4.74364 -8.90301 1.50518e-09
105 1 9.43352 -1.62222e-15 3.15435 -8.93807 2.01599e-09
106 1 11.006 1.57238 4.74359 -8.90301 1.50554e-09
107 1 12.5784 -1.68191e-15 3.15435 -8.93807 2.01537e-09
108 1 14.1508 1.57239 4.74364 -8.90301 1.50508e-09
109 1 15.7233 -1.72374e-15 3.15442 -8.93806 2.01378e-09
110 1 17.2957 1.57239 4.74374 -8.90301 1.50415e-09
111 1 18.8681 -1.67255e-15 3.15451 -8.93805 2.01241e-09
112 1 20.4405 1.5724 4.74383 -8.90301 1.50344e-09
113 1 -0.000983459 3.14481 3.15451 -8.93805 2.01239e-09
114 1 1.5714 4.71721 4.74374 -8.90301 1.50372e-09
115 1 3.14382 3.1448 3.15446 -8.93806 2.01361e-09
116 1 4.7162 4.7172 4.74364 -8.90301 1.50446e-09
117 1 6.28865 3.14479 3.15436 -8.93807 2.01521e-09
118 1 7.86106 4.71718 4.7435 -8.90301 1.50531e-09
119 1 9.43352 3.14479 3.15428 -8.93808 2.01599e-09
120 1 11.006 4.71718 4.74344 -8.90301 1.50566e-09
121 1 12.5784 3.14479 3.15428 -8.93808 2.01538e-09
122 1 14.1509 4.71718 4.7435 -8.90301 1.50523e-09
123 1 15.7233 3.14479 3.15436 -8.93807 2.01381e-09
124 1 17.2957 4.7172 4.74364 -8.90301 1.50434e-09
125 1 18.8681 3.1448 3.15446 -8.93806 2.01247e-09
126 1 20.4405 4.71721 4.74374 -8.90301 1.50366e-09
127 1 -0.000983445 6.28964 3.15442 -8.93806 2.0126e-09
128 1 1.57139 7.86206 4.74364 -8.90301 1.50407e-09
129 1 3.14381 6.28963 3.15436 -8.93807 2.01379e-09
130 1 4.71619 7.86205 4.7435 -8.90301 1.50478e-09
131 1 6.28864 6.28962 3.15424 -8.93808 2.01533e-09
132 1 7.86105 7.86204 4.74333 -8.90301 1.50559e-09
133 1 9.43352 6.28962 3.15413 -8.9381 2.01605e-09
134 1 11.006 7.86203 4.74325 -8.90302 1.50591e-09
135 1 12.5784 6.28962 3.15413 -8.9381 2.01544e-09
136 1 14.1509 7.86204 4.74333 -8.90301 1.50553e-09
137 1 15.7233 6.28962 3.15424 -8.93808 2.01395e-09
138 1 17.2957 7.86205 4.7435 -8.90301 1.50468e-09
139 1 18.8681 6.28963 3.15436 -8.93807 2.01267e-09
140 1 20.4405 7.86206 4.74364 -8.90301 1.50402e-09
141 1 -0.000983432 9.43451 3.15435 -8.93807 2.01282e-09
142 1 1.57139 11.007 4.74359 -8.90301 1.50425e-09
143 1 3.1438 9.43451 3.15428 -8.93808 2.01399e-09
144 1 4.71618 11.007 4.74344 -8.90301 1.50496e-09
145 1 6.28863 9.4345 3.15413 -8.9381 2.01547e-09
146 1 7.86104 11.007 4.74325 -8.90302 1.50576e-09
147 1 9.43351 9.4345 3.15401 -8.93812 2.01614e-09
148 1 11.006 11.007 4.74316 -8.90302 1.50607e-09
149 1 12.5784 9.4345 3.15401 -8.93812 2.01554e-09
150 1 14.1509 11.007 4.74325 -8.90302 1.5057e-09
151 1 15.7233 9.4345 3.15413 -8.9381 2.01411e-09
152 1 17.2957 11.007 4.74344 -8.90301 1.50487e-09
153 1 18.8681 9.43451 3.15428 -8.93808 2.01288e-09
154 1 20.4405 11.007 4.74359 -8.90301 1.50421e-09
155 1 -0.000983432 12.5794 3.15435 -8.93807 2.01282e-09
156 1 1.57139 14.1518 4.74364 -8.90301 1.50407e-09
157 1 3.1438 12.5794 3.15428 -8.93808 2.01399e-09
158 1 4.71619 14.1518 4.7435 -8.90301 1.50478e-09
159 1 6.28863 12.5794 3.15413 -8.9381 2.01547e-09
160 1 7.86105 14.1519 4.74333 -8.90301 1.50559e-09
161 1 9.43351 12.5794 3.15401 -8.93812 2.01614e-09
162 1 11.006 14.1519 4.74325 -8.90302 1.50591e-09
163 1 12.5784 12.5794 3.15401 -8.93812 2.01554e-09
164 1 14.1509 14.1519 4.74333 -8.90301 1.50553e-09
165 1 15.7233 12.5794 3.15413 -8.9381 2.01411e-09
166 1 17.2957 14.1518 4.7435 -8.90301 1.50468e-09
167 1 18.8681 12.5794 3.15428 -8.93808 2.01288e-09
168 1 20.4405 14.1518 4.74364 -8.90301 1.50402e-09
169 1 -0.000983445 15.7243 3.15442 -8.93806 2.0126e-09
170 1 1.5714 17.2967 4.74374 -8.90301 1.50372e-09
171 1 3.14381 15.7243 3.15436 -8.93807 2.01379e-09
172 1 4.7162 17.2967 4.74364 -8.90301 1.50446e-09
173 1 6.28864 15.7243 3.15424 -8.93808 2.01533e-09
174 1 7.86106 17.2967 4.7435 -8.90301 1.50531e-09
175 1 9.43352 15.7243 3.15413 -8.9381 2.01605e-09
176 1 11.006 17.2967 4.74344 -8.90301 1.50566e-09
177 1 12.5784 15.7243 3.15413 -8.9381 2.01544e-09
178 1 14.1509 17.2967 4.7435 -8.90301 1.50523e-09
179 1 15.7233 15.7243 3.15424 -8.93808 2.01395e-09
180 1 17.2957 17.2967 4.74364 -8.90301 1.50434e-09
181 1 18.8681 15.7243 3.15436 -8.93807 2.01267e-09
182 1 20.4405 17.2967 4.74374 -8.90301 1.50366e-09
183 1 -0.000983459 18.8691 3.15451 -8.93805 2.01239e-09
184 1 1.5714 20.4415 4.74383 -8.90301 1.50351e-09
185 1 3.14382 18.8691 3.15446 -8.93806 2.01361e-09
186 1 4.71622 20.4415 4.74374 -8.90301 1.50428e-09
187 1 6.28865 18.8691 3.15436 -8.93807 2.01521e-09
188 1 7.86107 20.4415 4.74364 -8.90301 1.50518e-09
189 1 9.43352 18.8691 3.15428 -8.93808 2.01599e-09
190 1 11.006 20.4415 4.74359 -8.90301 1.50554e-09
191 1 12.5784 18.8691 3.15428 -8.93808 2.01538e-09
192 1 14.1508 20.4415 4.74364 -8.90301 1.50508e-09
193 1 15.7233 18.8691 3.15436 -8.93807 2.01381e-09
194 1 17.2957 20.4415 4.74374 -8.90301 1.50415e-09
195 1 18.8681 18.8691 3.15446 -8.93806 2.01247e-09
196 1 20.4405 20.4415 4.74383 -8.90301 1.50344e-09
197 1 -0.001011 -1.35598e-15 6.3056 -8.88811 9.18492e-10
198 1 1.57135 1.57238 7.87482 -8.90467 4.50166e-10
199 1 3.14378 -1.86729e-15 6.30555 -8.88811 9.18923e-10
200 1 4.71615 1.57237 7.8747 -8.90467 4.50733e-10
201 1 6.2886 -1.99675e-15 6.30544 -8.88812 9.19845e-10
202 1 7.86101 1.57235 7.87456 -8.90467 4.51484e-10
203 1 9.43349 -2.73476e-15 6.30534 -8.88812 9.20579e-10
204 1 11.0059 1.57235 7.87449 -8.90467 4.51847e-10
205 1 12.5784 -3.05156e-15 6.30534 -8.88812 9.20571e-10
206 1 14.1508 1.57235 7.87456 -8.90467 4.51521e-10
207 1 15.7233 -2.73125e-15 6.30544 -8.88812 9.19808e-10
208 1 17.2957 1.57237 7.8747 -8.90467 4.50758e-10
209 1 18.8681 -2.1037e-15 6.30555 -8.88811 9.18877e-10
210 1 20.4405 1.57238 7.87482 -8.90467 4.5017e-10
211 1 -0.00101099 3.14479 6.30555 -8.88811 9.18595e-10
212 1 1.57134 4.71717 7.8747 -8.90467 4.50281e-10
213 1 3.14377 3.14478 6.30549 -8.88811 9.19009e-10
214 1 4.71611 4.71714 7.87454 -8.90466 4.50828e-10
215 1 6.28859 3.14476 6.30535 -8.88812 9.19918e-10
216 1 7.86097 4.7171 7.87433 -8.90467 4.51598e-10
217 1 9.43348 3.14474 6.30524 -8.88812 9.20647e-10
218 1 11.0059 4.71708 7.87423 -8.90467 4.51975e-10
219 1 12.5784 3.14474 6.30524 -8.88812 9.20642e-10
220 1 14.1509 4.7171 7.87433 -8.90467 4.51647e-10
221 1 15.7233 3.14476 6.30535 -8.88812 9.1989e-10
222 1 17.2957 4.71714 7.87454 -8.90466 4.50868e-10
223 1 18.8681 3.14478 6.30549 -8.88811 9.1897e-10
224 1 20.4405 4.71717 7.8747 -8.90467 4.50291e-10
225 1 -0.00101097 6.28962 6.30544 -8.88812 9.18935e-10
226 1 1.57132 7.86203 7.87456 -8.90467 4.50596e-10
227 1 3.14375 6.2896 6.30535 -8.88812 9.19332e-10
228 1 4.71607 7.862 7.87433 -8.90467 4.51174e-10
229 1 6.28856 6.28957 6.30515 -8.88812 9.2022e-10
230 1 7.86093 7.86196 7.87401 -8.90469 4.51981e-10
231 1 9.43347 6.28955 6.30499 -8.88813 9.20931e-10
232 1 11.0059 7.86194 7.87386 -8.90471 4.52363e-10
233 1 12.5784 6.28955 6.30499 -8.88813 9.20934e-10
234 1 14.1509 7.86196 7.87401 -8.90469 4.52045e-10
235 1 15.7233 6.28957 6.30515 -8.88812 9.20212e-10
236 1 17.2958 7.862 7.87433 -8.90467 4.51235e-10
237 1 18.8681 6.2896 6.30535 -8.88812 9.1931e-10
238 1 20.4405 7.86203 7.87456 -8.90467 4.50616e-10
239 1 -0.00101095 9.4345 6.30534 -8.88812 9.19304e-10
240 1 1.57132 11.007 7.87449 -8.90467 4.50791e-10
241 1 3.14373 9.43449 6.30524 -8.88812 9.19706e-10
242 1 4.71605 11.007 7.87423 -8.90467 4.51405e-10
243 1 6.28854 9.43448 6.30499 -8.88813 9.2061e-10
244 1 7.86091 11.007 7.87386 -8.90471 4.52251e-10
245 1 9.43345 9.43447 6.30478 -8.88815 9.21308e-10
246 1 11.0059 11.007 7.87367 -8.90475 4.52636e-10
247 1 12.5784 9.43447 6.30478 -8.88815 9.21318e-10
248 1 14.1509 11.007 7.87386 -8.90471 4.52321e-10
249 1 15.7233 9.43448 6.30499 -8.88813 9.20618e-10
250 1 17.2958 11.007 7.87423 -8.90467 4.51475e-10
251 1 18.8681 9.43449 6.30524 -8.88812 9.19699e-10
252 1 20.4405 11.007 7.87449 -8.90467 4.50816e-10
253 1 -0.00101095 12.5794 6.30534 -8.88812 9.19304e-10
254 1 1.57132 14.1519 7.87456 -8.90467 4.50596e-10
255 1 3.14373 12.5794 6.30524 -8.88812 9.19706e-10
256 1 4.71607 14.1519 7.87433 -8.90467 4.51174e-10
257 1 6.28854 12.5794 6.30499 -8.88813 9.2061e-10
258 1 7.86093 14.1519 7.87401 -8.90469 4.51981e-10
259 1 9.43345 12.5794 6.30478 -8.88815 9.21308e-10
260 1 11.0059 14.152 7.87386 -8.90471 4.52363e-10
261 1 12.5784 12.5794 6.30478 -8.88815 9.21318e-10
262 1 14.1509 14.1519 7.87401 -8.90469 4.52045e-10
263 1 15.7233 12.5794 6.30499 -8.88813 9.20618e-10
264 1 17.2958 14.1519 7.87433 -8.90467 4.51235e-10
265 1 18.8681 12.5794 6.30524 -8.88812 9.19699e-10
266 1 20.4405 14.1519 7.87456 -8.90467 4.50616e-10
267 1 -0.00101097 15.7243 6.30544 -8.88812 9.18935e-10
268 1 1.57134 17.2967 7.8747 -8.90467 4.50281e-10
269 1 3.14375 15.7243 6.30535 -8.88812 9.19332e-10
270 1 4.71611 17.2968 7.87454 -8.90466 4.50828e-10
271 1 6.28856 15.7243 6.30515 -8.88812 9.2022e-10
272 1 7.86097 17.2968 7.87433 -8.90467 4.51598e-10
273 1 9.43347 15.7244 6.30499 -8.88813 9.20931e-10
274 1 11.0059 17.2968 7.87423 -8.90467 4.51975e-10
275 1 12.5784 15.7244 6.30499 -8.88813 9.20934e-10
276 1 14.1509 17.2968 7.87433 -8.90467 4.51647e-10
277 1 15.7233 15.7243 6.30515 -8.88812 9.20212e-10
278 1 17.2957 17.2968 7.87454 -8.90466 4.50868e-10
279 1 18.8681 15.7243 6.30535 -8.88812 9.1931e-10
280 1 20.4405 17.2967 7.8747 -8.90467 4.50291e-10
281 1 -0.00101099 18.8691 6.30555 -8.88811 9.18595e-10
282 1 1.57135 20.4415 7.87482 -8.90467 4.50166e-10
283 1 3.14377 18.8691 6.30549 -8.88811 9.19009e-10
284 1 4.71615 20.4415 7.8747 -8.90467 4.50733e-10
285 1 6.28859 18.8691 6.30535 -8.88812 9.19918e-10
286 1 7.86101 20.4415 7.87456 -8.90467 4.51484e-10
287 1 9.43348 18.8692 6.30524 -8.88812 9.20647e-10
288 1 11.0059 20.4416 7.87449 -8.90467 4.51847e-10
289 1 12.5784 18.8692 6.30524 -8.88812 9.20642e-10
290 1 14.1508 20.4415 7.87456 -8.90467 4.51521e-10
291 1 15.7233 18.8691 6.30535 -8.88812 9.1989e-10
292 1 17.2957 20.4415 7.8747 -8.90467 4.50758e-10
293 1 18.8681 18.8691 6.30549 -8.88811 9.1897e-10
294 1 20.4405 20.4415 7.87482 -8.90467 4.5017e-10
295 1 -0.00104776 -3.47876e-15 9.44319 -8.89866 1.17925e-10
296 1 1.57131 1.57237 11.0113 -8.9001 4.26929e-14
297 1 3.14372 -4.3868e-15 9.44312 -8.89865 1.18139e-10
298 1 4.71608 1.57234 11.0112 -8.90009 5.57642e-14
299 1 6.28853 -5.41389e-15 9.44296 -8.89865 1.186e-10
300 1 7.86094 1.57231 11.011 -8.90009 4.44928e-14
301 1 9.43343 -6.16755e-15 9.44283 -8.89865 1.18979e-10
302 1 11.0059 1.57229 11.0109 -8.90009 3.67563e-14
303 1 12.5784 -6.08523e-15 9.44283 -8.89865 1.18961e-10
304 1 14.1508 1.57231 11.011 -8.90009 3.60285e-14
305 1 15.7233 -5.32909e-15 9.44296 -8.89865 1.18545e-10
306 1 17.2957 1.57234 11.0112 -8.90009 2.41673e-14
307 1 18.8681 -4.71547e-15 9.44312 -8.89865 1.18077e-10
308 1 20.4405 1.57237 11.0113 -8.9001 2.13973e-14
309 1 -0.00104776 3.14476 9.44312 -8.89865 1.1789e-10
310 1 1.57128 4.71715 11.0112 -8.90009 3.04792e-14
311 1 3.14369 3.14474 9.44304 -8.89865 1.18093e-10
312 1 4.716 4.71707 11.0109 -8.90006 4.36012e-14
313 1 6.2885 3.14469 9.44283 -8.89864 1.18566e-10
314 1 7.86086 4.71696 11.0106 -8.90007 3.67398e-14
315 1 9.43342 3.14465 9.44265 -8.89865 1.18965e-10
316 1 11.0059 4.71692 11.0104 -8.90008 3.73489e-14
317 1 12.5784 3.14465 9.44265 -8.89865 1.18951e-10
318 1 14.1509 4.71696 11.0106 -8.90007 4.40178e-14
319 1 15.7233 3.14469 9.44283 -8.89864 1.18517e-10
320 1 17.2958 4.71707 11.0109 -8.90006 2.94484e-14
321 1 18.8681 3.14474 9.44304 -8.89865 1.18038e-10
322 1 20.4405 4.71715 11.0112 -8.90009 1.6324e-14
323 1 -0.00104774 6.28958 9.44296 -8.89865 1.17948e-10
324 1 1.57124 7.86201 11.011 -8.90009 2.16499e-14
325 1 3.14364 6.28955 9.44283 -8.89864 1.18148e-10
326 1 4.71589 7.86193 11.0106 -8.90007 3.21764e-14
327 1 6.28843 6.28947 9.44248 -8.89864 1.18636e-10
328 1 7.86074 7.8618 11.0099 -8.90011 3.48996e-14
329 1 9.43338 6.28941 9.44217 -8.89865 1.19084e-10
330 1 11.0059 7.86175 11.0096 -8.90015 4.9363e-14
331 1 12.5784 6.28941 9.44217 -8.89865 1.1908e-10
332 1 14.151 7.8618 11.0099 -8.90011 6.11775e-14
333 1 15.7234 6.28947 9.44248 -8.89864 1.18608e-10
334 1 17.2959 7.86193 11.0106 -8.90007 4.29628e-14
335 1 18.8682 6.28955 9.44283 -8.89864 1.18109e-10
336 1 20.4405 7.86201 11.011 -8.90009 1.82211e-14
337 1 -0.00104771 9.43448 9.44283 -8.89865 1.18105e-10
338 1 1.57122 11.007 11.0109 -8.90009 2.0306e-14
339 1 3.14361 9.43447 9.44265 -8.89865 1.1833e-10
340 1 4.71585 11.007 11.0104 -8.90008 2.98826e-14
341 1 6.28836 9.43443 9.44217 -8.89865 1.1889e-10
342 1 7.86068 11.007 11.0096 -8.90015 3.96363e-14
343 1 9.43334 9.43439 9.44171 -8.89872 1.1939e-10
344 1 11.0059 11.007 11.0091 -8.90037 6.05376e-14
345 1 12.5785 9.43439 9.44171 -8.89872 1.19391e-10
346 1 14.1511 11.007 11.0096 -8.90015 7.06362e-14
347 1 15.7234 9.43443 9.44217 -8.89865 1.18879e-10
348 1 17.2959 11.007 11.0104 -8.90008 5.05428e-14
349 1 18.8682 9.43447 9.44265 -8.89865 1.18306e-10
350 1 20.4405 11.007 11.0109 -8.90009 2.15714e-14
351 1 -0.00104771 12.5794 9.44283 -8.89865 1.18105e-10
352 1 1.57124 14.1519 11.011 -8.90009 2.16499e-14
353 1 3.14361 12.5794 9.44265 -8.89865 1.1833e-10
354 1 4.71589 14.152 11.0106 -8.90007 3.21764e-14
355 1 6.28836 12.5795 9.44217 -8.89865 1.1889e-10
356 1 7.86074 14.1521 11.0099 -8.90011 3.48996e-14
357 1 9.43334 12.5795 9.44171 -8.89872 1.1939e-10
358 1 11.0059 14.1522 11.0096 -8.90015 4.9363e-14
359 1 12.5785 12.5795 9.44171 -8.89872 1.19391e-10
360 1 14.151 14.1521 11.0099 -8.90011 6.11775e-14
361 1 15.7234 12.5795 9.44217 -8.89865 1.18879e-10
362 1 17.2959 14.152 11.0106 -8.90007 4.29629e-14
363 1 18.8682 12.5794 9.44265 -8.89865 1.18306e-10
364 1 20.4405 14.1519 11.011 -8.90009 1.82211e-14
365 1 -0.00104774 15.7243 9.44296 -8.89865 1.17948e-10
366 1 1.57128 17.2968 11.0112 -8.90009 3.04792e-14
367 1 3.14364 15.7243 9.44283 -8.89864 1.18148e-10
368 1 4.716 17.2968 11.0109 -8.90006 4.36012e-14
369 1 6.28843 15.7244 9.44248 -8.89864 1.18636e-10
370 1 7.86086 17.2969 11.0106 -8.90007 3.67398e-14
371 1 9.43338 15.7245 9.44217 -8.89865 1.19084e-10
372 1 11.0059 17.297 11.0104 -8.90008 3.73489e-14
373 1 12.5784 15.7245 9.44217 -8.89865 1.1908e-10
374 1 14.1509 17.2969 11.0106 -8.90007 4.40178e-14
375 1 15.7234 15.7244 9.44248 -8.89864 1.18608e-10
376 1 17.2958 17.2968 11.0109 -8.90006 2.94484e-14
377 1 18.8682 15.7243 9.44283 -8.89864 1.18109e-10
378 1 20.4405 17.2968 11.0112 -8.90009 1.6324e-14
379 1 -0.00104776 18.8691 9.44312 -8.89865 1.1789e-10
380 1 1.57131 20.4415 11.0113 -8.9001 4.26929e-14
381 1 3.14369 18.8692 9.44304 -8.89865 1.18093e-10
382 1 4.71608 20.4416 11.0112 -8.90009 5.57642e-14
383 1 6.2885 18.8692 9.44283 -8.89864 1.18566e-10
384 1 7.86094 20.4416 11.011 -8.90009 4.44928e-14
385 1 9.43342 18.8692 9.44265 -8.89865 1.18965e-10
386 1 11.0059 20.4416 11.0109 -8.90009 3.67563e-14
387 1 12.5784 18.8692 9.44265 -8.89865 1.18951e-10
388 1 14.1508 20.4416 11.011 -8.90009 3.60285e-14
389 1 15.7233 18.8692 9.44283 -8.89864 1.18517e-10
390 1 17.2957 20.4416 11.0112 -8.90009 2.41673e-14
391 1 18.8681 18.8692 9.44304 -8.89865 1.18038e-10
392 1 20.4405 20.4415 11.0113 -8.9001 2.13973e-14
393 1 -0.00108828 -5.56595e-15 12.5796 -8.89868 1.12206e-10
394 1 3.14369 -7.66714e-15 12.5795 -8.89867 1.12015e-10
395 1 6.2885 -8.68143e-15 12.5793 -8.89867 1.11463e-10
396 1 9.43339 -8.74821e-15 12.5791 -8.89868 1.10959e-10
397 1 12.5783 -8.29322e-15 12.5791 -8.89868 1.11031e-10
398 1 15.7232 -7.10209e-15 12.5793 -8.89867 1.11609e-10
399 1 18.868 -5.72978e-15 12.5795 -8.89867 1.12115e-10
400 1 22.0128 3.14478 12.5795 -8.89867 1.12457e-10
401 1 3.14365 3.14474 12.5794 -8.89866 1.12282e-10
402 1 6.28844 3.14464 12.5791 -8.89864 1.11722e-10
403 1 9.43336 3.14455 12.5788 -8.89865 1.11147e-10
404 1 12.5784 3.14455 12.5788 -8.89865 1.11227e-10
405 1 15.7233 3.14464 12.5791 -8.89864 1.11882e-10
406 1 18.8681 3.14474 12.5794 -8.89866 1.12392e-10
407 1 22.0128 6.28959 12.5793 -8.89867 1.12738e-10
408 1 3.14355 6.28952 12.5791 -8.89864 1.1258e-10
409 1 6.28824 6.28933 12.5785 -8.89854 1.12073e-10
410 1 9.43325 6.28917 12.5779 -8.8986 1.11286e-10
411 1 12.5785 6.28917 12.5779 -8.8986 1.11384e-10
412 1 15.7235 6.28933 12.5785 -8.89854 1.12272e-10
413 1 18.8682 6.28952 12.5791 -8.89864 1.12716e-10
414 1 22.0128 9.43448 12.5791 -8.89868 1.12715e-10
415 1 3.14347 9.43445 12.5788 -8.89865 1.12471e-10
416 1 6.28809 9.43434 12.5779 -8.8986 1.11747e-10
417 1 9.43312 9.43421 12.5768 -8.89878 1.10782e-10
418 1 12.5786 9.43421 12.5768 -8.89878 1.10881e-10
419 1 15.7236 9.43434 12.5779 -8.8986 1.11965e-10
420 1 18.8683 9.43445 12.5788 -8.89865 1.12624e-10
421 1 22.0128 12.5794 12.5791 -8.89868 1.12715e-10
422 1 3.14347 12.5795 12.5788 -8.89865 1.12471e-10
423 1 6.28809 12.5796 12.5779 -8.8986 1.11747e-10
424 1 9.43312 12.5797 12.5768 -8.89878 1.10782e-10
425 1 12.5786 12.5797 12.5768 -8.89878 1.10881e-10
426 1 15.7236 12.5796 12.5779 -8.8986 1.11965e-10
427 1 18.8683 12.5795 12.5788 -8.89865 1.12624e-10
428 1 22.0128 15.7243 12.5793 -8.89867 1.12738e-10
429 1 3.14355 15.7244 12.5791 -8.89864 1.1258e-10
430 1 6.28824 15.7246 12.5785 -8.89854 1.12073e-10
431 1 9.43325 15.7247 12.5779 -8.8986 1.11286e-10
432 1 12.5785 15.7247 12.5779 -8.8986 1.11384e-10
433 1 15.7235 15.7246 12.5785 -8.89854 1.12272e-10
434 1 18.8682 15.7244 12.5791 -8.89864 1.12716e-10
435 1 22.0128 18.8691 12.5795 -8.89867 1.12457e-10
436 1 3.14365 18.8692 12.5794 -8.89866 1.12282e-10
437 1 6.28844 18.8693 12.5791 -8.89864 1.11722e-10
438 1 9.43336 18.8693 12.5788 -8.89865 1.11147e-10
439 1 12.5784 18.8693 12.5788 -8.89865 1.11227e-10
440 1 15.7233 18.8693 12.5791 -8.89864 1.11882e-10
441 1 18.8681 18.8692 12.5794 -8.89866 1.12392e-10
442 1 1.57131 1.57241 14.1479 -8.9047 4.39268e-10
443 1 4.71611 1.57237 14.1478 -8.90468 4.38664e-10
444 1 7.86093 1.5723 14.1475 -8.9047 4.37415e-10
445 1 11.0058 1.57227 14.1474 -8.9047 4.36875e-10
446 1 14.1508 1.5723 14.1475 -8.9047 4.37752e-10
447 1 17.2956 1.57237 14.1478 -8.90468 4.39062e-10
448 1 20.4404 1.57241 14.1479 -8.9047 4.39435e-10
449 1 1.57126 4.71722 14.1478 -8.90468 4.40573e-10
450 1 4.71598 4.71708 14.1475 -8.90465 4.40327e-10
451 1 7.86077 4.71685 14.1469 -8.90465 4.38766e-10
452 1 11.0058 4.71676 14.1466 -8.90466 4.37921e-10
453 1 14.1509 4.71685 14.1469 -8.90465 4.39146e-10
454 1 17.2957 4.71708 14.1475 -8.90465 4.40772e-10
455 1 20.4404 4.71722 14.1478 -8.90468 4.40757e-10
456 1 1.5712 7.86204 14.1475 -8.9047 4.41303e-10
457 1 4.71574 7.86188 14.1469 -8.90465 4.40933e-10
458 1 7.86039 7.8615 14.1455 -8.9044 4.39506e-10
459 1 11.0058 7.86138 14.1447 -8.90466 4.37855e-10
460 1 14.1513 7.8615 14.1455 -8.9044 4.3994e-10
461 1 17.2959 7.86188 14.1469 -8.90465 4.41423e-10
462 1 20.4405 7.86204 14.1475 -8.9047 4.41504e-10
463 1 1.57116 11.007 14.1474 -8.9047 4.41296e-10
464 1 4.71565 11.007 14.1466 -8.90466 4.40553e-10
465 1 7.86027 11.007 14.1447 -8.90466 4.38443e-10
466 1 11.0058 11.007 14.1432 -8.90674 4.36431e-10
467 1 14.1514 11.007 14.1447 -8.90466 4.38878e-10
468 1 17.296 11.007 14.1466 -8.90466 4.41054e-10
469 1 20.4405 11.007 14.1474 -8.9047 4.41503e-10
470 1 1.5712 14.1519 14.1475 -8.9047 4.41303e-10
471 1 4.71574 14.152 14.1469 -8.90465 4.40933e-10
472 1 7.86039 14.1524 14.1455 -8.9044 4.39506e-10
473 1 11.0058 14.1525 14.1447 -8.90466 4.37855e-10
474 1 14.1513 14.1524 14.1455 -8.9044 4.3994e-10
475 1 17.2959 14.152 14.1469 -8.90465 4.41423e-10
476 1 20.4405 14.1519 14.1475 -8.9047 4.41504e-10
477 1 1.57126 17.2967 14.1478 -8.90468 4.40573e-10
478 1 4.71598 17.2968 14.1475 -8.90465 4.40327e-10
479 1 7.86077 17.297 14.1469 -8.90465 4.38766e-10
480 1 11.0058 17.2971 14.1466 -8.90466 4.37921e-10
481 1 14.1509 17.297 14.1469 -8.90465 4.39146e-10
482 1 17.2957 17.2968 14.1475 -8.90465 4.40772e-10
483 1 20.4404 17.2967 14.1478 -8.90468 4.40757e-10
484 1 1.57131 20.4415 14.1479 -8.9047 4.39268e-10
485 1 4.71611 20.4415 14.1478 -8.90468 4.38664e-10
486 1 7.86093 20.4416 14.1475 -8.9047 4.37415e-10
487 1 11.0058 20.4416 14.1474 -8.9047 4.36875e-10
488 1 14.1508 20.4416 14.1475 -8.9047 4.37752e-10
489 1 17.2956 20.4415 14.1478 -8.90468 4.39062e-10
490 1 20.4404 20.4415 14.1479 -8.9047 4.39435e-10
491 1 22.0128 -5.85059e-15 15.7172 -8.88818 9.04157e-10
492 1 1.57141 1.57255 17.279 -8.90297 1.48764e-09
493 1 3.1438 -7.27934e-15 15.7172 -8.88819 9.03543e-10
494 1 4.71641 1.5726 17.279 -8.90302 1.48653e-09
495 1 6.28861 -5.11203e-15 15.7171 -8.88817 9.02358e-10
496 1 7.86113 1.57254 17.2788 -8.9031 1.4848e-09
497 1 9.43342 -1.8877e-15 15.7169 -8.8882 9.00977e-10
498 1 11.0058 1.5725 17.2787 -8.90309 1.48364e-09
499 1 12.5782 -7.31091e-16 15.7169 -8.8882 9.01169e-10
500 1 14.1505 1.57254 17.2788 -8.9031 1.48508e-09
501 1 15.723 -2.27484e-15 15.7171 -8.88817 9.02768e-10
502 1 17.2952 1.5726 17.279 -8.90302 1.48684e-09
503 1 18.8679 -5.09131e-15 15.7172 -8.88819 9.03848e-10
504 1 20.4402 1.57255 17.279 -8.90297 1.48777e-09
505 1 22.0128 3.14492 15.7172 -8.88819 9.05309e-10
506 1 1.57146 4.71755 17.279 -8.90302 1.49095e-09
507 1 3.14378 3.14491 15.7171 -8.88818 9.04705e-10
508 1 4.7165 4.71764 17.2789 -8.90324 1.4902e-09
509 1 6.28855 3.14478 15.7169 -8.88809 9.03997e-10
510 1 7.86097 4.71722 17.2782 -8.90292 1.49077e-09
511 1 9.43337 3.14464 15.7165 -8.88817 9.02302e-10
512 1 11.0058 4.71706 17.2777 -8.90284 1.48834e-09
513 1 12.5783 3.14464 15.7165 -8.88817 9.02511e-10
514 1 14.1507 4.71722 17.2782 -8.90292 1.49114e-09
515 1 15.7231 3.14478 15.7169 -8.88809 9.04442e-10
516 1 17.2951 4.71764 17.2789 -8.90324 1.49057e-09
517 1 18.8679 3.14491 15.7171 -8.88818 9.05027e-10
518 1 20.4402 4.71755 17.279 -8.90302 1.49109e-09
519 1 22.0128 6.28974 15.7171 -8.88817 9.07818e-10
520 1 1.5714 7.86227 17.2788 -8.9031 1.49474e-09
521 1 3.14366 6.28967 15.7169 -8.88809 9.07831e-10
522 1 4.71608 7.86211 17.2782 -8.90292 1.49665e-09
523 1 6.28823 6.28936 15.7161 -8.8877 9.09059e-10
524 1 7.85991 7.86105 17.2759 -8.90267 1.50005e-09
525 1 9.43315 6.28897 15.7149 -8.88787 9.05466e-10
526 1 11.0058 7.86102 17.2737 -8.90497 1.49277e-09
527 1 12.5785 6.28897 15.7149 -8.88787 9.05728e-10
528 1 14.1517 7.86105 17.2759 -8.90267 1.50073e-09
529 1 15.7234 6.28936 15.7161 -8.8877 9.0964e-10
530 1 17.2955 7.86211 17.2782 -8.90292 1.49717e-09
531 1 18.868 6.28967 15.7169 -8.88809 9.08214e-10
532 1 20.4402 7.86227 17.2788 -8.9031 1.49493e-09
533 1 22.0128 9.43454 15.7169 -8.8882 9.08842e-10
534 1 1.57136 11.007 17.2787 -8.90309 1.49568e-09
535 1 3.14351 9.4345 15.7165 -8.88817 9.08707e-10
536 1 4.71592 11.007 17.2777 -8.90284 1.49707e-09
537 1 6.28784 9.43427 15.7149 -8.88787 9.08841e-10
538 1 7.85988 11.007 17.2737 -8.90497 1.49795e-09
539 1 9.43256 9.43369 15.7118 -8.88714 9.04041e-10
540 1 11.0058 11.007 17.2662 -8.91709 1.49661e-09
541 1 12.5791 9.43369 15.7118 -8.88714 9.04295e-10
542 1 14.1517 11.007 17.2737 -8.90497 1.49856e-09
543 1 15.7238 9.43427 15.7149 -8.88787 9.09455e-10
544 1 17.2957 11.007 17.2777 -8.90284 1.49763e-09
545 1 18.8681 9.4345 15.7165 -8.88817 9.09122e-10
546 1 20.4403 11.007 17.2787 -8.90309 1.49589e-09
547 1 22.0128 12.5794 15.7169 -8.8882 9.08842e-10
548 1 1.5714 14.1516 17.2788 -8.9031 1.49474e-09
549 1 3.14351 12.5794 15.7165 -8.88817 9.08707e-10
550 1 4.71608 14.1518 17.2782 -8.90292 1.49665e-09
551 1 6.28784 12.5796 15.7149 -8.88787 9.08841e-10
552 1 7.85991 14.1529 17.2759 -8.90267 1.50005e-09
553 1 9.43256 12.5802 15.7118 -8.88714 9.04041e-10
554 1 11.0058 14.1529 17.2737 -8.90497 1.49277e-09
555 1 12.5791 12.5802 15.7118 -8.88714 9.04295e-10
556 1 14.1517 14.1529 17.2759 -8.90267 1.50073e-09
557 1 15.7238 12.5796 15.7149 -8.88787 9.09455e-10
558 1 17.2955 14.1518 17.2782 -8.90292 1.49717e-09
559 1 18.8681 12.5794 15.7165 -8.88817 9.09122e-10
560 1 20.4402 14.1516 17.2788 -8.9031 1.49493e-09
561 1 22.0128 15.7242 15.7171 -8.88817 9.07818e-10
562 1 1.57146 17.2964 17.279 -8.90302 1.49095e-09
563 1 3.14366 15.7242 15.7169 -8.88809 9.07831e-10
564 1 4.7165 17.2963 17.2789 -8.90324 1.4902e-09
565 1 6.28823 15.7245 15.7161 -8.8877 9.09059e-10
566 1 7.86097 17.2967 17.2782 -8.90292 1.49077e-09
567 1 9.43315 15.7249 15.7149 -8.88787 9.05466e-10
568 1 11.0058 17.2968 17.2777 -8.90284 1.48834e-09
569 1 12.5785 15.7249 15.7149 -8.88787 9.05728e-10
570 1 14.1507 17.2967 17.2782 -8.90292 1.49114e-09
571 1 15.7234 15.7245 15.7161 -8.8877 9.0964e-10
572 1 17.2951 17.2963 17.2789 -8.90324 1.49057e-09
573 1 18.868 15.7242 15.7169 -8.88809 9.08214e-10
574 1 20.4402 17.2964 17.279 -8.90302 1.49109e-09
575 1 22.0128 18.869 15.7172 -8.88819 9.05309e-10
576 1 1.57141 20.4413 17.279 -8.90297 1.48764e-09
577 1 3.14378 18.869 15.7171 -8.88818 9.04705e-10
578 1 4.71641 20.4413 17.279 -8.90302 1.48653e-09
579 1 6.28855 18.8691 15.7169 -8.88809 9.03997e-10
580 1 7.86113 20.4414 17.2788 -8.9031 1.4848e-09
581 1 9.43337 18.8693 15.7165 -8.88817 9.02302e-10
582 1 11.0058 20.4414 17.2787 -8.90309 1.48364e-09