ITEM: TIMESTEP
77
ITEM: NUMBER OF ATOMS
736
ITEM: BOX BOUNDS pp pp pp
0.0000000000000000e+00 2.2013900999999997e+01
0.0000000000000000e+00 2.2013900999999997e+01
0.0000000000000000e+00 5.3462330999999999e+01
ITEM: ATOMS id type x y z c_pot c_ke
1 1 3.68585e-05 1.15983e-15 0.0938289 -7.40176 0.000221386
2 1 1.57247 1.57243 1.62068 -8.68384 0.000199294
3 1 3.1449 1.85786e-15 0.0938605 -7.40177 0.00022299
4 1 4.71732 1.57244 1.62074 -8.68385 0.000201156
5 1 6.28973 22.0139 0.0938981 -7.40179 0.00022364
6 1 7.86214 1.57244 1.62078 -8.68385 0.000201068
7 1 9.43454 22.0139 0.0939134 -7.4018 0.000222859
8 1 11.007 1.57244 1.62078 -8.68385 0.000199127
9 1 12.5794 22.0139 0.093895 -7.40179 0.000221248
10 1 14.1518 1.57243 1.62073 -8.68384 0.000196804
11 1 15.7242 1.3701e-15 0.0938566 -7.40177 0.000220006
12 1 17.2966 1.57243 1.62068 -8.68384 0.000195814
13 1 18.8691 22.0139 0.0938272 -7.40176 0.000220058
14 1 20.4415 1.57243 1.62066 -8.68384 0.000196905
15 1 3.79739e-05 3.14487 0.0938417 -7.40177 0.00022128
16 1 1.57247 4.71729 1.62072 -8.68384 0.000199261
17 1 3.1449 3.14487 0.0938753 -7.40178 0.000223048
18 1 4.71732 4.7173 1.62078 -8.68385 0.000201724
19 1 6.28974 3.14487 0.0939152 -7.4018 0.000223791
20 1 7.86214 4.7173 1.62083 -8.68385 0.000201884
21 1 9.43454 3.14487 0.0939313 -7.4018 0.000222951
22 1 11.007 4.7173 1.62082 -8.68385 0.00019958
23 1 12.5794 3.14487 0.0939116 -7.40179 0.000221172
24 1 14.1518 4.71729 1.62077 -8.68385 0.000196583
25 1 15.7242 3.14487 0.0938709 -7.40178 0.000219788
26 1 17.2966 4.71729 1.62071 -8.68384 0.000195178
27 1 18.8691 3.14487 0.0938397 -7.40177 0.000219832
28 1 20.4415 4.71729 1.62069 -8.68384 0.000196376
29 1 4.04719e-05 6.28972 0.0938705 -7.40178 0.000221039
30 1 1.57248 7.86213 1.62076 -8.68385 0.000199193
31 1 3.14491 6.28972 0.0939086 -7.40179 0.000223165
32 1 4.71733 7.86213 1.62083 -8.68385 0.000202412
33 1 6.28974 6.28972 0.0939536 -7.40181 0.000224129
34 1 7.86214 7.86213 1.62089 -8.68386 0.000202948
35 1 9.43454 6.28973 0.0939716 -7.40182 0.000223172
36 1 11.007 7.86213 1.62088 -8.68385 0.000200189
37 1 12.5794 6.28972 0.093949 -7.40181 0.000220999
38 1 14.1518 7.86213 1.62082 -8.68385 0.000196289
39 1 15.7242 6.28972 0.0939029 -7.40179 0.000219285
40 1 17.2966 7.86213 1.62075 -8.68385 0.000194358
41 1 18.8691 6.28972 0.093868 -7.40178 0.00021932
42 1 20.4415 7.86213 1.62073 -8.68384 0.000195707
43 1 4.24661e-05 9.43454 0.0938936 -7.40179 0.00022084
44 1 1.57248 11.007 1.62078 -8.68385 0.000199155
45 1 3.14491 9.43454 0.0939352 -7.4018 0.000223248
46 1 4.71733 11.007 1.62086 -8.68385 0.000202714
47 1 6.28974 9.43455 0.0939844 -7.40182 0.000224402
48 1 7.86215 11.007 1.62091 -8.68386 0.000203439
49 1 9.43454 9.43455 0.094004 -7.40183 0.000223364
50 1 11.007 11.007 1.62091 -8.68386 0.000200478
51 1 12.5793 9.43455 0.093979 -7.40182 0.000220862
52 1 14.1518 11.007 1.62084 -8.68385 0.000196152
53 1 15.7242 9.43454 0.0939286 -7.4018 0.00021887
54 1 17.2966 11.007 1.62077 -8.68385 0.000193985
55 1 18.8691 9.43454 0.0938907 -7.40179 0.000218905
56 1 20.4415 11.007 1.62074 -8.68385 0.000195405
57 1 4.24661e-05 12.5794 0.0938936 -7.40179 0.00022084
58 1 1.57248 14.1518 1.62076 -8.68385 0.000199193
59 1 3.14491 12.5794 0.0939352 -7.4018 0.000223248
60 1 4.71733 14.1518 1.62083 -8.68385 0.000202412
61 1 6.28974 12.5794 0.0939844 -7.40182 0.000224402
62 1 7.86214 14.1518 1.62089 -8.68386 0.000202948
63 1 9.43454 12.5794 0.094004 -7.40183 0.000223364
64 1 11.007 14.1518 1.62088 -8.68385 0.000200189
65 1 12.5793 12.5794 0.093979 -7.40182 0.000220862
66 1 14.1518 14.1518 1.62082 -8.68385 0.000196289
67 1 15.7242 12.5794 0.0939286 -7.4018 0.00021887
68 1 17.2966 14.1518 1.62075 -8.68385 0.000194358
69 1 18.8691 12.5794 0.0938907 -7.40179 0.000218905
70 1 20.4415 14.1518 1.62073 -8.68384 0.000195707
71 1 4.04719e-05 15.7242 0.0938705 -7.40178 0.000221039
72 1 1.57247 17.2966 1.62072 -8.68384 0.000199261
73 1 3.14491 15.7242 0.0939086 -7.40179 0.000223165
74 1 4.71732 17.2966 1.62078 -8.68385 0.000201724
75 1 6.28974 15.7242 0.0939536 -7.40181 0.000224129
76 1 7.86214 17.2966 1.62083 -8.68385 0.000201884
77 1 9.43454 15.7242 0.0939716 -7.40182 0.000223172
78 1 11.007 17.2966 1.62082 -8.68385 0.00019958
79 1 12.5794 15.7242 0.093949 -7.40181 0.000220999
80 1 14.1518 17.2966 1.62077 -8.68385 0.000196583
81 1 15.7242 15.7242 0.0939029 -7.40179 0.000219285
82 1 17.2966 17.2966 1.62071 -8.68384 0.000195178
83 1 18.8691 15.7242 0.093868 -7.40178 0.00021932
84 1 20.4415 17.2966 1.62069 -8.68384 0.000196376
85 1 3.79739e-05 18.869 0.0938417 -7.40177 0.00022128
86 1 1.57247 20.4415 1.62068 -8.68384 0.000199294
87 1 3.1449 18.869 0.0938753 -7.40178 0.000223048
88 1 4.71732 20.4415 1.62074 -8.68385 0.000201156
89 1 6.28974 18.869 0.0939152 -7.4018 0.000223791
90 1 7.86214 20.4415 1.62078 -8.68385 0.000201068
91 1 9.43454 18.869 0.0939313 -7.4018 0.000222951
92 1 11.007 20.4415 1.62078 -8.68385 0.000199127
93 1 12.5794 18.869 0.0939116 -7.40179 0.000221172
94 1 14.1518 20.4415 1.62073 -8.68384 0.000196804
95 1 15.7242 18.869 0.0938709 -7.40178 0.000219788
96 1 17.2966 20.4415 1.62068 -8.68384 0.000195814
97 1 18.8691 18.869 0.0938397 -7.40177 0.000219832
98 1 20.4415 20.4415 1.62066 -8.68384 0.000196905
99 1 4.23277e-05 1.03927e-15 3.15087 -8.93805 0.000175832
100 1 1.57249 1.57244 4.74033 -8.90304 0.000148913
101 1 3.1449 1.38138e-15 3.15092 -8.93804 0.000178713
102 1 4.71734 1.57244 4.7404 -8.90304 0.000152529
103 1 6.28973 22.0139 3.15098 -8.93804 0.000180119
104 1 7.86215 1.57244 4.74046 -8.90304 0.000153269
105 1 9.43455 22.0139 3.151 -8.93803 0.000179009
106 1 11.007 1.57244 4.74045 -8.90304 0.000150643
107 1 12.5794 22.0139 3.15097 -8.93804 0.000176268
108 1 14.1518 1.57244 4.74039 -8.90304 0.000146666
109 1 15.7242 1.64632e-15 3.15091 -8.93804 0.000173929
110 1 17.2966 1.57243 4.74032 -8.90304 0.000144255
111 1 18.8691 22.0139 3.15086 -8.93805 0.00017371
112 1 20.4415 1.57243 4.74029 -8.90304 0.000145209
113 1 4.39066e-05 3.14486 3.15089 -8.93805 0.000175747
114 1 1.5725 4.7173 4.74037 -8.90304 0.000149702
115 1 3.1449 3.14487 3.15094 -8.93804 0.000179175
116 1 4.71734 4.7173 4.74046 -8.90304 0.000155293
117 1 6.28974 3.14487 3.15101 -8.93803 0.000181102
118 1 7.86216 4.71731 4.74052 -8.90304 0.00015734
119 1 9.43455 3.14487 3.15103 -8.93803 0.000180042
120 1 11.007 4.71731 4.74051 -8.90304 0.000154082
121 1 12.5794 3.14487 3.151 -8.93803 0.00017682
122 1 14.1518 4.7173 4.74044 -8.90304 0.000148119
123 1 15.7242 3.14486 3.15093 -8.93804 0.000173886
124 1 17.2966 4.71729 4.74036 -8.90304 0.000144113
125 1 18.8691 3.14486 3.15088 -8.93805 0.000173414
126 1 20.4415 4.71729 4.74033 -8.90304 0.000144883
127 1 4.7422e-05 6.28971 3.15093 -8.93804 0.000175534
128 1 1.5725 7.86213 4.74043 -8.90304 0.000150606
129 1 3.14491 6.28971 3.15099 -8.93803 0.000180161
130 1 4.71735 7.86214 4.74053 -8.90304 0.000158713
131 1 6.28974 6.28972 3.15107 -8.93802 0.000183356
132 1 7.86216 7.86214 4.74061 -8.90304 0.000162735
133 1 9.43455 6.28972 3.1511 -8.93802 0.000182487
134 1 11.007 7.86214 4.7406 -8.90304 0.00015866
135 1 12.5794 6.28972 3.15106 -8.93802 0.000178095
136 1 14.1518 7.86214 4.74051 -8.90304 0.000149889
137 1 15.7242 6.28971 3.15098 -8.93804 0.000173741
138 1 17.2966 7.86213 4.74041 -8.90304 0.000143848
139 1 18.8691 6.28971 3.15093 -8.93804 0.000172727
140 1 20.4415 7.86213 4.74038 -8.90304 0.000144438
141 1 5.02124e-05 9.43454 3.15097 -8.93804 0.000175341
142 1 1.57251 11.007 4.74045 -8.90304 0.000150986
143 1 3.14491 9.43454 3.15104 -8.93803 0.00018092
144 1 4.71736 11.007 4.74056 -8.90304 0.000160239
145 1 6.28974 9.43454 3.15112 -8.93801 0.000185208
146 1 7.86216 11.007 4.74064 -8.90303 0.000165242
147 1 9.43455 9.43454 3.15115 -8.93801 0.000184567
148 1 11.007 11.007 4.74063 -8.90303 0.000160809
149 1 12.5794 9.43454 3.15111 -8.93802 0.000179158
150 1 14.1518 11.007 4.74054 -8.90304 0.000150669
151 1 15.7242 9.43454 3.15102 -8.93803 0.000173588
152 1 17.2966 11.007 4.74043 -8.90304 0.000143703
153 1 18.8691 9.43454 3.15096 -8.93804 0.000172153
154 1 20.4415 11.007 4.7404 -8.90304 0.000144228
155 1 5.02124e-05 12.5794 3.15097 -8.93804 0.000175341
156 1 1.5725 14.1518 4.74043 -8.90304 0.000150606
157 1 3.14491 12.5794 3.15104 -8.93803 0.00018092
158 1 4.71735 14.1518 4.74053 -8.90304 0.000158713
159 1 6.28974 12.5794 3.15112 -8.93801 0.000185208
160 1 7.86216 14.1518 4.74061 -8.90304 0.000162735
161 1 9.43455 12.5794 3.15115 -8.93801 0.000184567
162 1 11.007 14.1518 4.7406 -8.90304 0.00015866
163 1 12.5794 12.5794 3.15111 -8.93802 0.000179158
164 1 14.1518 14.1518 4.74051 -8.90304 0.000149889
165 1 15.7242 12.5794 3.15102 -8.93803 0.000173588
166 1 17.2966 14.1518 4.74041 -8.90304 0.000143848
167 1 18.8691 12.5794 3.15096 -8.93804 0.000172153
168 1 20.4415 14.1518 4.74038 -8.90304 0.000144438
169 1 4.7422e-05 15.7242 3.15093 -8.93804 0.000175534
170 1 1.5725 17.2966 4.74037 -8.90304 0.000149702
171 1 3.14491 15.7242 3.15099 -8.93803 0.000180161
172 1 4.71734 17.2966 4.74046 -8.90304 0.000155293
173 1 6.28974 15.7242 3.15107 -8.93802 0.000183356
174 1 7.86216 17.2966 4.74052 -8.90304 0.00015734
175 1 9.43455 15.7242 3.1511 -8.93802 0.000182487
176 1 11.007 17.2966 4.74051 -8.90304 0.000154082
177 1 12.5794 15.7242 3.15106 -8.93802 0.000178095
178 1 14.1518 17.2966 4.74044 -8.90304 0.000148119
179 1 15.7242 15.7242 3.15098 -8.93804 0.000173741
180 1 17.2966 17.2966 4.74036 -8.90304 0.000144113
181 1 18.8691 15.7242 3.15093 -8.93804 0.000172727
182 1 20.4415 17.2966 4.74033 -8.90304 0.000144883
183 1 4.39066e-05 18.869 3.15089 -8.93805 0.000175747
184 1 1.57249 20.4415 4.74033 -8.90304 0.000148913
185 1 3.1449 18.869 3.15094 -8.93804 0.000179175
186 1 4.71734 20.4415 4.7404 -8.90304 0.000152529
187 1 6.28974 18.869 3.15101 -8.93803 0.000181102
188 1 7.86215 20.4415 4.74046 -8.90304 0.000153269
189 1 9.43455 18.869 3.15103 -8.93803 0.000180042
190 1 11.007 20.4415 4.74045 -8.90304 0.000150643
191 1 12.5794 18.869 3.151 -8.93803 0.00017682
192 1 14.1518 20.4415 4.74039 -8.90304 0.000146666
193 1 15.7242 18.869 3.15093 -8.93804 0.000173886
194 1 17.2966 20.4415 4.74032 -8.90304 0.000144255
195 1 18.8691 18.869 3.15088 -8.93805 0.000173414
196 1 20.4415 20.4415 4.74029 -8.90304 0.000145209
197 1 7.96356e-05 1.26858e-15 6.30221 -8.88812 0.000110988
198 1 1.57256 1.57245 7.87165 -8.90468 8.53912e-05
199 1 3.14495 22.0139 6.30229 -8.88812 0.000116319
200 1 4.71741 1.57246 7.87177 -8.90467 9.30896e-05
201 1 6.28977 22.0139 6.30238 -8.88812 0.000119739
202 1 7.8622 1.57247 7.87186 -8.90467 9.59016e-05
203 1 9.43456 1.46541e-15 6.30241 -8.88812 0.00011871
204 1 11.007 1.57246 7.87184 -8.90467 9.18547e-05
205 1 12.5794 22.0139 6.30236 -8.88812 0.000114159
206 1 14.1518 1.57246 7.87174 -8.90467 8.41648e-05
207 1 15.7242 1.59806e-15 6.30227 -8.88812 0.000109433
208 1 17.2966 1.57245 7.87163 -8.90468 7.84562e-05
209 1 18.8691 22.0139 6.3022 -8.88812 0.000107959
210 1 20.4416 1.57244 7.87158 -8.90468 7.89151e-05
211 1 8.4157e-05 3.14488 6.30224 -8.88812 0.00011132
212 1 1.57258 4.71733 7.87172 -8.90467 8.85822e-05
213 1 3.14496 3.14489 6.30233 -8.88812 0.000118289
214 1 4.71743 4.71735 7.87188 -8.90466 0.000102855
215 1 6.28978 3.1449 6.30243 -8.88811 0.000123593
216 1 7.86221 4.71737 7.87199 -8.90466 0.000110709
217 1 9.43457 3.1449 6.30246 -8.88811 0.000123008
218 1 11.007 4.71736 7.87197 -8.90466 0.00010482
219 1 12.5794 3.14489 6.30241 -8.88811 0.000117052
220 1 14.1518 4.71734 7.87184 -8.90467 9.04547e-05
221 1 15.7242 3.14488 6.3023 -8.88812 0.000110366
222 1 17.2966 4.71732 7.87169 -8.90467 7.95707e-05
223 1 18.8691 3.14487 6.30223 -8.88812 0.000107895
224 1 20.4416 4.71731 7.87164 -8.90468 7.92148e-05
225 1 9.41334e-05 6.28973 6.3023 -8.88812 0.000111972
226 1 1.5726 7.86216 7.87182 -8.90467 9.23094e-05
227 1 3.14497 6.28974 6.30241 -8.88811 0.000122522
228 1 4.71746 7.86218 7.87201 -8.90466 0.000115252
229 1 6.28979 6.28975 6.30254 -8.88811 0.000132829
230 1 7.86223 7.86219 7.87216 -8.90463 0.000132073
231 1 9.43457 6.28976 6.30258 -8.8881 0.000133735
232 1 11.007 7.86219 7.87213 -8.90464 0.000123485
233 1 12.5794 6.28975 6.30251 -8.88811 0.000123947
234 1 14.1517 7.86217 7.87195 -8.90466 9.82632e-05
235 1 15.7242 6.28973 6.30238 -8.88812 0.000112239
236 1 17.2966 7.86215 7.87177 -8.90467 8.06098e-05
237 1 18.8691 6.28972 6.30229 -8.88812 0.000107647
238 1 20.4416 7.86215 7.87171 -8.90467 7.94369e-05
239 1 0.000101996 9.43455 6.30235 -8.88812 0.000112425
240 1 1.57261 11.007 7.87186 -8.90467 9.39131e-05
241 1 3.14499 9.43455 6.30248 -8.88811 0.000125833
242 1 4.71747 11.007 7.87207 -8.90465 0.000120931
243 1 6.28981 9.43456 6.30262 -8.8881 0.000140602
244 1 7.86223 11.007 7.87224 -8.90462 0.000142471
245 1 9.43457 9.43456 6.30268 -8.88809 0.000143203
246 1 11.007 11.007 7.87221 -8.90463 0.00013271
247 1 12.5793 9.43456 6.30259 -8.8881 0.000129793
248 1 14.1517 11.007 7.872 -8.90466 0.000101756
249 1 15.7242 9.43455 6.30244 -8.88812 0.000113595
250 1 17.2966 11.007 7.8718 -8.90467 8.09733e-05
251 1 18.8691 9.43455 6.30234 -8.88812 0.000107367
252 1 20.4416 11.007 7.87174 -8.90467 7.94943e-05
253 1 0.000101996 12.5794 6.30235 -8.88812 0.000112425
254 1 1.5726 14.1517 7.87182 -8.90467 9.23094e-05
255 1 3.14499 12.5793 6.30248 -8.88811 0.000125833
256 1 4.71746 14.1517 7.87201 -8.90466 0.000115252
257 1 6.28981 12.5793 6.30262 -8.8881 0.000140602
258 1 7.86223 14.1517 7.87216 -8.90463 0.000132073
259 1 9.43457 12.5793 6.30268 -8.88809 0.000143203
260 1 11.007 14.1517 7.87213 -8.90464 0.000123485
261 1 12.5793 12.5793 6.30259 -8.8881 0.000129793
262 1 14.1517 14.1517 7.87195 -8.90466 9.82632e-05
263 1 15.7242 12.5794 6.30244 -8.88812 0.000113595
264 1 17.2966 14.1517 7.87177 -8.90467 8.06098e-05
265 1 18.8691 12.5794 6.30234 -8.88812 0.000107367
266 1 20.4416 14.1518 7.87171 -8.90467 7.94369e-05
267 1 9.41334e-05 15.7242 6.3023 -8.88812 0.000111972
268 1 1.57258 17.2966 7.87172 -8.90467 8.85822e-05
269 1 3.14497 15.7242 6.30241 -8.88811 0.000122522
270 1 4.71743 17.2965 7.87188 -8.90466 0.000102855
271 1 6.28979 15.7241 6.30254 -8.88811 0.000132829
272 1 7.86221 17.2965 7.87199 -8.90466 0.000110709
273 1 9.43457 15.7241 6.30258 -8.8881 0.000133735
274 1 11.007 17.2965 7.87197 -8.90466 0.00010482
275 1 12.5794 15.7242 6.30251 -8.88811 0.000123947
276 1 14.1518 17.2966 7.87184 -8.90467 9.04547e-05
277 1 15.7242 15.7242 6.30238 -8.88812 0.000112239
278 1 17.2966 17.2966 7.87169 -8.90467 7.95707e-05
279 1 18.8691 15.7242 6.30229 -8.88812 0.000107647
280 1 20.4416 17.2966 7.87164 -8.90468 7.92148e-05
281 1 8.4157e-05 18.869 6.30224 -8.88812 0.00011132
282 1 1.57256 20.4415 7.87165 -8.90468 8.53912e-05
283 1 3.14496 18.869 6.30233 -8.88812 0.000118289
284 1 4.71741 20.4414 7.87177 -8.90467 9.30896e-05
285 1 6.28978 18.869 6.30243 -8.88811 0.000123593
286 1 7.8622 20.4414 7.87186 -8.90467 9.59016e-05
287 1 9.43457 18.869 6.30246 -8.88811 0.000123008
288 1 11.007 20.4414 7.87184 -8.90467 9.18547e-05
289 1 12.5794 18.869 6.30241 -8.88811 0.000117052
290 1 14.1518 20.4414 7.87174 -8.90467 8.41648e-05
291 1 15.7242 18.869 6.3023 -8.88812 0.000110366
292 1 17.2966 20.4415 7.87163 -8.90468 7.84562e-05
293 1 18.8691 18.869 6.30223 -8.88812 0.000107895
294 1 20.4416 20.4415 7.87158 -8.90468 7.89151e-05
295 1 0.000152762 1.04827e-15 9.44009 -8.89868 5.19373e-05
296 1 1.57269 1.57248 11.0085 -8.9001 3.69735e-05
297 1 3.14505 22.0139 9.44022 -8.89868 6.14351e-05
298 1 4.71755 1.57251 11.0087 -8.90009 5.13892e-05
299 1 6.28985 9.74792e-16 9.44037 -8.89867 6.83533e-05
300 1 7.86227 1.57253 11.0089 -8.90009 5.72391e-05
301 1 9.43459 1.18071e-15 9.44042 -8.89867 6.74363e-05
302 1 11.007 1.57252 11.0088 -8.90009 5.04055e-05
303 1 12.5793 4.00891e-16 9.44033 -8.89867 5.98841e-05
304 1 14.1517 1.5725 11.0086 -8.9001 3.68069e-05
305 1 15.7242 7.06611e-16 9.44018 -8.89868 5.11925e-05
306 1 17.2966 1.57247 11.0084 -8.9001 2.64557e-05
307 1 18.8691 22.0139 9.44007 -8.89868 4.75637e-05
308 1 20.4416 1.57246 11.0084 -8.9001 2.65357e-05
309 1 0.000165366 3.14491 9.44013 -8.89867 5.32981e-05
310 1 1.57274 4.7174 11.0086 -8.9001 4.58622e-05
311 1 3.14507 3.14494 9.44029 -8.89868 6.72876e-05
312 1 4.71762 4.71748 11.0089 -8.90008 8.25825e-05
313 1 6.28987 3.14497 9.44047 -8.89867 8.02928e-05
314 1 7.86232 4.71753 11.0092 -8.90006 0.000108608
315 1 9.4346 3.14497 9.44053 -8.89867 8.08862e-05
316 1 11.0069 4.71751 11.0091 -8.90007 9.39318e-05
317 1 12.5793 3.14495 9.44042 -8.89867 6.88697e-05
318 1 14.1517 4.71744 11.0088 -8.90009 5.52485e-05
319 1 15.7242 3.14492 9.44024 -8.89868 5.43124e-05
320 1 17.2966 4.71737 11.0085 -8.9001 2.95696e-05
321 1 18.8691 3.1449 9.44011 -8.89867 4.80268e-05
322 1 20.4416 4.71735 11.0084 -8.9001 2.79542e-05
323 1 0.000192653 6.28976 9.44023 -8.89867 5.60042e-05
324 1 1.5728 7.86221 11.0088 -8.90009 5.64312e-05
325 1 3.14512 6.2898 9.44045 -8.89867 8.0286e-05
326 1 4.71771 7.86228 11.0092 -8.90007 0.000126089
327 1 6.28992 6.28985 9.44071 -8.89865 0.000113028
328 1 7.86238 7.86233 11.0096 -8.89994 0.000205637
329 1 9.43461 6.28986 9.44079 -8.89865 0.00012026
330 1 11.0069 7.86232 11.0095 -8.89997 0.000174646
331 1 12.5793 6.28983 9.44063 -8.89866 9.28484e-05
332 1 14.1517 7.86225 11.0091 -8.90008 7.95386e-05
333 1 15.7242 6.28978 9.44037 -8.89868 6.06548e-05
334 1 17.2966 7.86219 11.0087 -8.9001 3.22512e-05
335 1 18.8691 6.28975 9.4402 -8.89867 4.86501e-05
336 1 20.4417 7.86218 11.0086 -8.90009 2.92625e-05
337 1 0.000213909 9.43456 9.44031 -8.89867 5.7993e-05
338 1 1.57283 11.007 11.0088 -8.90009 6.11349e-05
339 1 3.14516 9.43458 9.44057 -8.89867 9.07165e-05
340 1 4.71775 11.007 11.0093 -8.90006 0.000147486
341 1 6.28996 9.4346 9.4409 -8.89865 0.000142404
342 1 7.86241 11.007 11.0098 -8.8999 0.000257166
343 1 9.43462 9.43461 9.44102 -8.89863 0.000159093
344 1 11.0069 11.007 11.0097 -8.89993 0.000219625
345 1 12.5793 9.43459 9.4408 -8.89866 0.000114556
346 1 14.1517 11.007 11.0092 -8.90008 9.07541e-05
347 1 15.7241 9.43457 9.44047 -8.89868 6.52272e-05
348 1 17.2966 11.007 11.0087 -8.90009 3.31303e-05
349 1 18.8691 9.43456 9.44027 -8.89867 4.8891e-05
350 1 20.4417 11.007 11.0086 -8.90009 2.97515e-05
351 1 0.000213909 12.5793 9.44031 -8.89867 5.7993e-05
352 1 1.5728 14.1517 11.0088 -8.90009 5.64312e-05
353 1 3.14516 12.5793 9.44057 -8.89867 9.07165e-05
354 1 4.71771 14.1516 11.0092 -8.90007 0.000126089
355 1 6.28996 12.5793 9.4409 -8.89865 0.000142404
356 1 7.86238 14.1516 11.0096 -8.89994 0.000205637
357 1 9.43462 12.5793 9.44102 -8.89863 0.000159093
358 1 11.0069 14.1516 11.0095 -8.89997 0.000174646
359 1 12.5793 12.5793 9.4408 -8.89866 0.000114556
360 1 14.1517 14.1517 11.0091 -8.90008 7.95386e-05
361 1 15.7241 12.5793 9.44047 -8.89868 6.52272e-05
362 1 17.2966 14.1517 11.0087 -8.9001 3.22512e-05
363 1 18.8691 12.5793 9.44027 -8.89867 4.8891e-05
364 1 20.4417 14.1517 11.0086 -8.90009 2.92625e-05
365 1 0.000192653 15.7241 9.44023 -8.89867 5.60042e-05
366 1 1.57274 17.2965 11.0086 -8.9001 4.58622e-05
367 1 3.14512 15.7241 9.44045 -8.89867 8.0286e-05
368 1 4.71762 17.2964 11.0089 -8.90008 8.25825e-05
369 1 6.28992 15.7241 9.44071 -8.89865 0.000113028
370 1 7.86232 17.2964 11.0092 -8.90006 0.000108608
371 1 9.43461 15.724 9.44079 -8.89865 0.00012026
372 1 11.0069 17.2964 11.0091 -8.90007 9.39318e-05
373 1 12.5793 15.7241 9.44063 -8.89866 9.28484e-05
374 1 14.1517 17.2965 11.0088 -8.90009 5.52485e-05
375 1 15.7242 15.7241 9.44037 -8.89868 6.06548e-05
376 1 17.2966 17.2965 11.0085 -8.9001 2.95696e-05
377 1 18.8691 15.7241 9.4402 -8.89867 4.86501e-05
378 1 20.4416 17.2965 11.0084 -8.9001 2.79542e-05
379 1 0.000165366 18.869 9.44013 -8.89867 5.32981e-05
380 1 1.57269 20.4414 11.0085 -8.9001 3.69735e-05
381 1 3.14507 18.869 9.44029 -8.89868 6.72876e-05
382 1 4.71755 20.4414 11.0087 -8.90009 5.13892e-05
383 1 6.28987 18.8689 9.44047 -8.89867 8.02928e-05
384 1 7.86227 20.4414 11.0089 -8.90009 5.72391e-05
385 1 9.4346 18.8689 9.44053 -8.89867 8.08862e-05
386 1 11.007 20.4414 11.0088 -8.90009 5.04055e-05
387 1 12.5793 18.8689 9.44042 -8.89867 6.88697e-05
388 1 14.1517 20.4414 11.0086 -8.9001 3.68069e-05
389 1 15.7242 18.869 9.44024 -8.89868 5.43124e-05
390 1 17.2966 20.4414 11.0084 -8.9001 2.64557e-05
391 1 18.8691 18.869 9.44011 -8.89867 4.80268e-05
392 1 20.4416 20.4414 11.0084 -8.9001 2.65357e-05
393 1 0.000271347 1.55505e-15 12.5766 -8.89869 1.54503e-05
394 1 3.14522 22.0139 12.5769 -8.8987 2.98238e-05
395 1 6.28999 22.0139 12.5771 -8.89869 3.97673e-05
396 1 9.43464 22.0139 12.5772 -8.89869 3.69512e-05
397 1 12.5793 1.97351e-15 12.5771 -8.89869 2.58818e-05
398 1 15.7242 22.0139 12.5768 -8.89869 1.38507e-05
399 1 18.8691 22.0139 12.5766 -8.89868 9.16547e-06
400 1 0.000304873 3.14495 12.5767 -8.89869 1.88752e-05
401 1 3.14528 3.14504 12.577 -8.89871 4.59417e-05
402 1 6.29005 3.14514 12.5774 -8.89869 7.87609e-05
403 1 9.43465 3.14516 12.5775 -8.89869 8.07882e-05
404 1 12.5793 3.14509 12.5773 -8.8987 5.2187e-05
405 1 15.7241 3.14499 12.5769 -8.8987 2.08364e-05
406 1 18.8691 3.14493 12.5767 -8.89868 1.01442e-05
407 1 0.00037547 6.28982 12.5769 -8.89868 2.58326e-05
408 1 3.14542 6.28993 12.5773 -8.89871 8.65765e-05
409 1 6.29022 6.2901 12.5779 -8.89869 0.000222443
410 1 9.43469 6.29014 12.5782 -8.89868 0.000261602
411 1 12.5792 6.29003 12.5778 -8.8987 0.000144695
412 1 15.7241 6.28986 12.5771 -8.8987 3.58887e-05
413 1 18.8692 6.28979 12.5768 -8.89868 1.12186e-05
414 1 0.000429295 9.43459 12.577 -8.89868 3.11279e-05
415 1 3.14552 9.43464 12.5776 -8.89871 0.000120334
416 1 6.29035 9.43471 12.5784 -8.8987 0.000362998
417 1 9.43473 9.43474 12.5788 -8.89842 0.000484409
418 1 12.5792 9.43469 12.5781 -8.89871 0.000238302
419 1 15.7241 9.43461 12.5773 -8.89871 4.56154e-05
420 1 18.8692 9.43457 12.5769 -8.89868 1.14291e-05
421 1 0.000429295 12.5793 12.577 -8.89868 3.11279e-05
422 1 3.14552 12.5793 12.5776 -8.89871 0.000120334
423 1 6.29035 12.5792 12.5784 -8.8987 0.000362998
424 1 9.43473 12.5792 12.5788 -8.89842 0.000484409
425 1 12.5792 12.5792 12.5781 -8.89871 0.000238302
426 1 15.7241 12.5793 12.5773 -8.89871 4.56154e-05
427 1 18.8692 12.5793 12.5769 -8.89868 1.14291e-05
428 1 0.00037547 15.7241 12.5769 -8.89868 2.58326e-05
429 1 3.14542 15.724 12.5773 -8.89871 8.65765e-05
430 1 6.29022 15.7238 12.5779 -8.89869 0.000222443
431 1 9.43469 15.7238 12.5782 -8.89868 0.000261602
432 1 12.5792 15.7239 12.5778 -8.8987 0.000144695
433 1 15.7241 15.724 12.5771 -8.8987 3.58887e-05
434 1 18.8692 15.7241 12.5768 -8.89868 1.12186e-05
435 1 0.000304873 18.8689 12.5767 -8.89869 1.88752e-05
436 1 3.14528 18.8689 12.577 -8.89871 4.59417e-05
437 1 6.29005 18.8688 12.5774 -8.89869 7.87609e-05
438 1 9.43465 18.8687 12.5775 -8.89869 8.07882e-05
439 1 12.5793 18.8688 12.5773 -8.8987 5.2187e-05
440 1 15.7241 18.8689 12.5769 -8.8987 2.08364e-05
441 1 18.8691 18.869 12.5767 -8.89868 1.01442e-05
442 1 1.57288 1.57253 14.1452 -8.90469 1.9705e-05
443 1 4.71777 1.57263 14.1456 -8.90469 4.60631e-05
444 1 7.86241 1.57268 14.1459 -8.90467 5.36784e-05
445 1 11.007 1.57266 14.1458 -8.90467 3.88444e-05
446 1 14.1517 1.57258 14.1455 -8.90469 1.64927e-05
447 1 17.2966 1.5725 14.1452 -8.90468 2.23424e-06
448 1 20.4417 1.57248 14.145 -8.90467 4.15964e-06
449 1 1.57302 4.71751 14.1455 -8.90469 4.50319e-05
450 1 4.71801 4.71777 14.1462 -8.90474 0.000163409
451 1 7.86256 4.71795 14.1467 -8.90467 0.000286808
452 1 11.0069 4.71788 14.1466 -8.90469 0.000225533
453 1 14.1516 4.71764 14.1459 -8.90474 7.50899e-05
454 1 17.2966 4.71743 14.1453 -8.90468 7.35431e-06
455 1 20.4418 4.7174 14.1452 -8.90467 6.95748e-06
456 1 1.57317 7.8623 14.1458 -8.90468 7.60074e-05
457 1 4.71828 7.86252 14.1468 -8.90472 0.000358706
458 1 7.86283 7.86277 14.148 -8.90428 0.00100738
459 1 11.0068 7.8627 14.1477 -8.90445 0.00077413
460 1 14.1515 7.8624 14.1464 -8.90472 0.000159839
461 1 17.2966 7.86223 14.1455 -8.90468 9.66526e-06
462 1 20.4418 7.86221 14.1454 -8.90466 9.76063e-06
463 1 1.57323 11.007 14.1459 -8.90468 9.0363e-05
464 1 4.7184 11.007 14.1471 -8.90474 0.000456996
465 1 7.86298 11.007 14.1486 -8.90456 0.0013535
466 1 11.0068 11.007 14.1483 -8.90464 0.00109491
467 1 14.1515 11.007 14.1466 -8.90474 0.000195781
468 1 17.2966 11.007 14.1456 -8.90468 9.66815e-06
469 1 20.4419 11.007 14.1454 -8.90466 1.10709e-05
470 1 1.57317 14.1516 14.1458 -8.90468 7.60074e-05
471 1 4.71828 14.1514 14.1468 -8.90472 0.000358706
472 1 7.86283 14.1511 14.148 -8.90428 0.00100738
473 1 11.0068 14.1512 14.1477 -8.90445 0.00077413
474 1 14.1515 14.1515 14.1464 -8.90472 0.000159839
475 1 17.2966 14.1517 14.1455 -8.90468 9.66526e-06
476 1 20.4418 14.1517 14.1454 -8.90466 9.76063e-06
477 1 1.57302 17.2964 14.1455 -8.90469 4.50319e-05
478 1 4.71801 17.2961 14.1462 -8.90474 0.000163409
479 1 7.86256 17.296 14.1467 -8.90467 0.000286808
480 1 11.0069 17.296 14.1466 -8.90469 0.000225533
481 1 14.1516 17.2963 14.1459 -8.90474 7.50899e-05
482 1 17.2966 17.2965 14.1453 -8.90468 7.35431e-06
483 1 20.4418 17.2965 14.1452 -8.90467 6.95748e-06
484 1 1.57288 20.4414 14.1452 -8.90469 1.9705e-05
485 1 4.71777 20.4413 14.1456 -8.90469 4.60631e-05
486 1 7.86241 20.4412 14.1459 -8.90467 5.36784e-05
487 1 11.007 20.4412 14.1458 -8.90467 3.88444e-05
488 1 14.1517 20.4413 14.1455 -8.90469 1.64927e-05
489 1 17.2966 20.4414 14.1452 -8.90468 2.23424e-06
490 1 20.4417 20.4414 14.145 -8.90467 4.15964e-06
491 1 0.000407463 9.32745e-16 15.7144 -8.88815 1.08252e-05
492 1 1.57306 1.57258 17.2764 -8.90301 4.03686e-05
493 1 3.14543 1.0006e-15 15.7147 -8.8882 2.84175e-05
494 1 4.71808 1.57283 17.277 -8.90305 9.96158e-05
495 1 6.29018 1.2811e-15 15.7151 -8.88815 3.55886e-05
496 1 7.8626 1.57299 17.2774 -8.90293 0.000111114
497 1 9.43471 22.0139 15.7153 -8.88815 2.1028e-05
498 1 11.007 1.57293 17.2773 -8.90297 7.06122e-05
499 1 12.5793 22.0139 15.715 -8.88815 9.79429e-06
500 1 14.1516 1.57271 17.2768 -8.90306 2.92409e-05
501 1 15.7241 22.0139 15.7146 -8.88818 2.31169e-06
502 1 17.2967 1.57251 17.2763 -8.90301 1.10034e-05
503 1 18.8692 22.0139 15.7143 -8.88814 1.96771e-06
504 1 20.4418 1.57248 17.2761 -8.903 1.7296e-05
505 1 0.000484297 3.145 15.7145 -8.88816 1.81021e-05
506 1 1.57339 4.71766 17.2768 -8.90305 0.000112098
507 1 3.14558 3.14521 15.715 -8.88822 7.2012e-05
508 1 4.71874 4.71839 17.2779 -8.90333 0.000490617
509 1 6.29036 3.14551 15.7156 -8.88817 0.000186444
510 1 7.86311 4.71902 17.2791 -8.90292 0.00126666
511 1 9.43475 3.14557 15.7158 -8.88818 0.000197101
512 1 11.0068 4.71879 17.2788 -8.90306 0.000915151
513 1 12.5792 3.14538 15.7154 -8.88817 9.94877e-05
514 1 14.1513 4.71803 17.2775 -8.9033 0.000203008
515 1 15.7241 3.14509 15.7148 -8.88819 1.59567e-05
516 1 17.2966 4.71747 17.2765 -8.90304 1.75976e-05
517 1 18.8692 3.14495 15.7144 -8.88815 2.5002e-06
518 1 20.4419 4.7174 17.2763 -8.90297 2.26311e-05
519 1 0.000645857 6.28987 15.7147 -8.88814 3.59478e-05
520 1 1.57371 7.86241 17.2772 -8.903 0.00020232
521 1 3.14594 6.29016 15.7156 -8.8882 0.000215086
522 1 4.71949 7.86308 17.2792 -8.90315 0.00137034
523 1 6.29093 6.29075 15.717 -8.88828 0.000930692
524 1 7.86452 7.86451 17.2833 -8.9049 0.00682548
525 1 9.43489 6.29091 15.7176 -8.88791 0.00126061
526 1 11.0064 7.86419 17.2824 -8.90547 0.00472357
527 1 12.579 6.29051 15.7166 -8.88812 0.000522498
528 1 14.1513 7.86269 17.2784 -8.90336 0.000477806
529 1 15.724 6.28997 15.7152 -8.88813 5.10852e-05
530 1 17.2967 7.86221 17.2768 -8.903 9.14814e-06
531 1 18.8693 6.28981 15.7146 -8.88812 2.16372e-06
532 1 20.4421 7.8622 17.2765 -8.90296 3.19503e-05
533 1 0.000762133 9.43461 15.7149 -8.88813 5.02153e-05
534 1 1.57383 11.007 17.2774 -8.90302 0.000239436
535 1 3.14617 9.43474 15.716 -8.88819 0.000328911
536 1 4.71973 11.007 17.2797 -8.90339 0.00164178
537 1 6.29134 9.435 15.7181 -8.88797 0.00170186
538 1 7.8651 11.007 17.2845 -8.90745 0.00795888
539 1 9.4351 9.43513 15.7197 -8.88485 0.00318266
540 1 11.0064 11.007 17.2837 -8.90638 0.00695356
541 1 12.5789 9.4349 15.7175 -8.88806 0.00101181
542 1 14.1514 11.007 17.2787 -8.9037 0.000506515
543 1 15.724 9.43464 15.7155 -8.88813 5.83748e-05
544 1 17.2968 11.007 17.2769 -8.90302 3.36941e-06
545 1 18.8693 9.43458 15.7148 -8.88812 1.77792e-06
546 1 20.4422 11.007 17.2766 -8.90297 3.81106e-05
547 1 0.000762133 12.5793 15.7149 -8.88813 5.02153e-05
548 1 1.57371 14.1515 17.2772 -8.903 0.00020232
549 1 3.14617 12.5792 15.716 -8.88819 0.000328911
550 1 4.71949 14.1508 17.2792 -8.90315 0.00137034
551 1 6.29134 12.5789 15.7181 -8.88797 0.00170186
552 1 7.86452 14.1494 17.2833 -8.9049 0.00682548
553 1 9.4351 12.5788 15.7197 -8.88485 0.00318266
554 1 11.0064 14.1497 17.2824 -8.90547 0.00472357
555 1 12.5789 12.579 15.7175 -8.88806 0.00101181
556 1 14.1513 14.1512 17.2784 -8.90336 0.000477806
557 1 15.724 12.5793 15.7155 -8.88813 5.83748e-05
558 1 17.2967 14.1517 17.2768 -8.903 9.14814e-06
559 1 18.8693 12.5793 15.7148 -8.88812 1.77792e-06
560 1 20.4421 14.1517 17.2765 -8.90296 3.19503e-05
561 1 0.000645857 15.724 15.7147 -8.88814 3.59478e-05
562 1 1.57339 17.2962 17.2768 -8.90305 0.000112098
563 1 3.14594 15.7237 15.7156 -8.8882 0.000215086
564 1 4.71874 17.2955 17.2779 -8.90333 0.000490617
565 1 6.29093 15.7231 15.717 -8.88828 0.000930692
566 1 7.86311 17.2949 17.2791 -8.90292 0.00126666
567 1 9.43489 15.723 15.7176 -8.88791 0.00126061
568 1 11.0068 17.2951 17.2788 -8.90306 0.000915151
569 1 12.579 15.7234 15.7166 -8.88812 0.000522498
570 1 14.1513 17.2959 17.2775 -8.9033 0.000203008
571 1 15.724 15.7239 15.7152 -8.88813 5.10852e-05
572 1 17.2966 17.2964 17.2765 -8.90304 1.75976e-05
573 1 18.8693 15.7241 15.7146 -8.88812 2.16372e-06
574 1 20.4419 17.2965 17.2763 -8.90297 2.26311e-05
575 1 0.000484297 18.8689 15.7145 -8.88816 1.81021e-05
576 1 1.57306 20.4413 17.2764 -8.90301 4.03686e-05
577 1 3.14558 18.8687 15.715 -8.88822 7.2012e-05
578 1 4.71808 20.4411 17.277 -8.90305 9.96158e-05
579 1 6.29036 18.8684 15.7156 -8.88817 0.000186444
580 1 7.8626 20.4409 17.2774 -8.90293 0.000111114
581 1 9.43475 18.8683 15.7158 -8.88818 0.000197101
582 1 11.007 20.441 17.2773 -8.90297 7.06122e-05
583 1 12.5792 18.8685 15.7154 -8.88817 9.94877e-05
584 1 14.1516 20.4412 17.2768 -8.90306 2.92409e-05
585 1 15.7241 18.8688 15.7148 -8.88819 1.59567e-05