ITEM: TIMESTEP
287
ITEM: NUMBER OF ATOMS
736
ITEM: BOX BOUNDS pp pp pp
0.0000000000000000e+00 2.2013900999999997e+01
0.0000000000000000e+00 2.2013900999999997e+01
0.0000000000000000e+00 5.3462330999999999e+01
ITEM: ATOMS id type x y z c_pot c_ke
1 1 -0.000953443 -1.81412e-16 0.0976349 -7.40188 1.80346e-09
2 1 1.57144 1.5724 1.62442 -8.68379 1.60933e-09
3 1 3.14384 2.04948e-16 0.0976084 -7.40187 1.80832e-09
4 1 4.71625 1.57239 1.62435 -8.68379 1.61225e-09
5 1 6.28867 5.83571e-16 0.097549 -7.40185 1.81313e-09
6 1 7.8611 1.57239 1.62427 -8.68378 1.61416e-09
7 1 9.43355 1.00434e-16 0.0975015 -7.40183 1.81426e-09
8 1 11.006 1.57239 1.62423 -8.68378 1.61364e-09
9 1 12.5784 -2.3788e-16 0.0975016 -7.40183 1.81088e-09
10 1 14.1509 1.57239 1.62427 -8.68378 1.61108e-09
11 1 15.7233 6.10612e-16 0.0975492 -7.40185 1.80552e-09
12 1 17.2957 1.57239 1.62435 -8.68379 1.60839e-09
13 1 18.8682 -2.13345e-16 0.0976085 -7.40187 1.80221e-09
14 1 20.4405 1.5724 1.62442 -8.68379 1.6076e-09
15 1 -0.000953438 3.14479 0.0976084 -7.40187 1.80333e-09
16 1 1.57143 4.71721 1.62435 -8.68379 1.60914e-09
17 1 3.14383 3.14479 0.0975791 -7.40186 1.80816e-09
18 1 4.71624 4.7172 1.62427 -8.68378 1.61201e-09
19 1 6.28866 3.14478 0.0975134 -7.40184 1.81292e-09
20 1 7.8611 4.71719 1.62417 -8.68377 1.61386e-09
21 1 9.43354 3.14477 0.0974608 -7.40182 1.81401e-09
22 1 11.006 4.71719 1.62412 -8.68377 1.61332e-09
23 1 12.5785 3.14477 0.0974609 -7.40182 1.81064e-09
24 1 14.1509 4.71719 1.62417 -8.68377 1.6108e-09
25 1 15.7233 3.14478 0.0975136 -7.40184 1.80532e-09
26 1 17.2957 4.7172 1.62427 -8.68378 1.60817e-09
27 1 18.8682 3.14479 0.0975793 -7.40186 1.80206e-09
28 1 20.4405 4.71721 1.62435 -8.68379 1.60743e-09
29 1 -0.000953428 6.28962 0.0975491 -7.40185 1.80304e-09
30 1 1.57143 7.86206 1.62427 -8.68378 1.60894e-09
31 1 3.14383 6.28962 0.0975135 -7.40184 1.80783e-09
32 1 4.71623 7.86206 1.62417 -8.68377 1.61174e-09
33 1 6.28865 6.28961 0.0974332 -7.40181 1.81247e-09
34 1 7.86109 7.86205 1.62404 -8.68377 1.61352e-09
35 1 9.43354 6.2896 0.0973686 -7.40178 1.81347e-09
36 1 11.006 7.86205 1.62398 -8.68376 1.61295e-09
37 1 12.5785 6.2896 0.0973686 -7.40178 1.8101e-09
38 1 14.1509 7.86205 1.62404 -8.68377 1.61048e-09
39 1 15.7233 6.28961 0.0974334 -7.40181 1.80488e-09
40 1 17.2957 7.86206 1.62417 -8.68377 1.60793e-09
41 1 18.8682 6.28962 0.0975136 -7.40184 1.80174e-09
42 1 20.4406 7.86206 1.62427 -8.68378 1.60723e-09
43 1 -0.000953419 9.4345 0.0975016 -7.40183 1.80282e-09
44 1 1.57143 11.007 1.62423 -8.68378 1.60885e-09
45 1 3.14382 9.4345 0.0974608 -7.40182 1.80757e-09
46 1 4.71623 11.007 1.62412 -8.68377 1.61163e-09
47 1 6.28864 9.43449 0.0973685 -7.40178 1.81212e-09
48 1 7.86109 11.007 1.62398 -8.68376 1.61337e-09
49 1 9.43354 9.43449 0.0972937 -7.40175 1.81305e-09
50 1 11.006 11.007 1.62392 -8.68376 1.61279e-09
51 1 12.5785 9.43449 0.0972937 -7.40175 1.80968e-09
52 1 14.1509 11.007 1.62398 -8.68376 1.61034e-09
53 1 15.7233 9.43449 0.0973687 -7.40178 1.80454e-09
54 1 17.2958 11.007 1.62412 -8.68377 1.60783e-09
55 1 18.8682 9.4345 0.0974609 -7.40182 1.80149e-09
56 1 20.4406 11.007 1.62423 -8.68378 1.60715e-09
57 1 -0.000953419 12.5794 0.0975016 -7.40183 1.80282e-09
58 1 1.57143 14.1518 1.62427 -8.68378 1.60894e-09
59 1 3.14382 12.5794 0.0974608 -7.40182 1.80757e-09
60 1 4.71623 14.1518 1.62417 -8.68377 1.61174e-09
61 1 6.28864 12.5794 0.0973685 -7.40178 1.81212e-09
62 1 7.86109 14.1519 1.62404 -8.68377 1.61352e-09
63 1 9.43354 12.5794 0.0972937 -7.40175 1.81305e-09
64 1 11.006 14.1519 1.62398 -8.68376 1.61295e-09
65 1 12.5785 12.5794 0.0972937 -7.40175 1.80968e-09
66 1 14.1509 14.1519 1.62404 -8.68377 1.61048e-09
67 1 15.7233 12.5794 0.0973687 -7.40178 1.80454e-09
68 1 17.2957 14.1518 1.62417 -8.68377 1.60793e-09
69 1 18.8682 12.5794 0.0974609 -7.40182 1.80149e-09
70 1 20.4406 14.1518 1.62427 -8.68378 1.60723e-09
71 1 -0.000953428 15.7243 0.0975491 -7.40185 1.80304e-09
72 1 1.57143 17.2967 1.62435 -8.68379 1.60914e-09
73 1 3.14383 15.7243 0.0975135 -7.40184 1.80783e-09
74 1 4.71624 17.2967 1.62427 -8.68378 1.61201e-09
75 1 6.28865 15.7243 0.0974332 -7.40181 1.81247e-09
76 1 7.8611 17.2967 1.62417 -8.68377 1.61386e-09
77 1 9.43354 15.7243 0.0973686 -7.40178 1.81347e-09
78 1 11.006 17.2967 1.62412 -8.68377 1.61332e-09
79 1 12.5785 15.7243 0.0973686 -7.40178 1.8101e-09
80 1 14.1509 17.2967 1.62417 -8.68377 1.6108e-09
81 1 15.7233 15.7243 0.0974334 -7.40181 1.80488e-09
82 1 17.2957 17.2967 1.62427 -8.68378 1.60817e-09
83 1 18.8682 15.7243 0.0975136 -7.40184 1.80174e-09
84 1 20.4405 17.2967 1.62435 -8.68379 1.60743e-09
85 1 -0.000953438 18.8691 0.0976084 -7.40187 1.80333e-09
86 1 1.57144 20.4415 1.62442 -8.68379 1.60933e-09
87 1 3.14383 18.8691 0.0975791 -7.40186 1.80816e-09
88 1 4.71625 20.4415 1.62435 -8.68379 1.61225e-09
89 1 6.28866 18.8691 0.0975134 -7.40184 1.81292e-09
90 1 7.8611 20.4415 1.62427 -8.68378 1.61416e-09
91 1 9.43354 18.8691 0.0974608 -7.40182 1.81401e-09
92 1 11.006 20.4415 1.62423 -8.68378 1.61364e-09
93 1 12.5785 18.8691 0.0974609 -7.40182 1.81064e-09
94 1 14.1509 20.4415 1.62427 -8.68378 1.61108e-09
95 1 15.7233 18.8691 0.0975136 -7.40184 1.80532e-09
96 1 17.2957 20.4415 1.62435 -8.68379 1.60839e-09
97 1 18.8682 18.8691 0.0975793 -7.40186 1.80206e-09
98 1 20.4405 20.4415 1.62442 -8.68379 1.6076e-09
99 1 -0.000968787 -1.88225e-16 3.15455 -8.93805 1.35567e-09
100 1 1.57142 1.5724 4.74383 -8.90301 1.0133e-09
101 1 3.14384 3.68834e-16 3.15451 -8.93805 1.35678e-09
102 1 4.71623 1.57239 4.74374 -8.90301 1.01388e-09
103 1 6.28867 2.13704e-16 3.15442 -8.93806 1.3581e-09
104 1 7.86108 1.57239 4.74364 -8.90301 1.01451e-09
105 1 9.43354 3.58504e-16 3.15435 -8.93807 1.35866e-09
106 1 11.006 1.57238 4.74359 -8.90301 1.01475e-09
107 1 12.5784 -5.61757e-16 3.15435 -8.93807 1.35805e-09
108 1 14.1509 1.57239 4.74364 -8.90301 1.0144e-09
109 1 15.7233 -2.67216e-16 3.15442 -8.93806 1.35671e-09
110 1 17.2957 1.57239 4.74374 -8.90301 1.01372e-09
111 1 18.8681 -5.29436e-16 3.15451 -8.93805 1.35564e-09
112 1 20.4405 1.5724 4.74383 -8.90301 1.01322e-09
113 1 -0.00096878 3.14481 3.15451 -8.93805 1.35562e-09
114 1 1.57141 4.71721 4.74374 -8.90301 1.01327e-09
115 1 3.14383 3.1448 3.15446 -8.93806 1.35671e-09
116 1 4.71622 4.7172 4.74364 -8.90301 1.01382e-09
117 1 6.28867 3.14479 3.15436 -8.93807 1.35801e-09
118 1 7.86107 4.71718 4.7435 -8.90301 1.01443e-09
119 1 9.43354 3.14479 3.15428 -8.93808 1.35856e-09
120 1 11.006 4.71718 4.74344 -8.90301 1.01467e-09
121 1 12.5784 3.14479 3.15428 -8.93808 1.35796e-09
122 1 14.1509 4.71718 4.7435 -8.90301 1.01434e-09
123 1 15.7233 3.14479 3.15436 -8.93807 1.35663e-09
124 1 17.2957 4.7172 4.74364 -8.90301 1.01368e-09
125 1 18.8681 3.1448 3.15446 -8.93806 1.35558e-09
126 1 20.4405 4.71721 4.74374 -8.90301 1.0132e-09
127 1 -0.000968766 6.28964 3.15442 -8.93806 1.35552e-09
128 1 1.5714 7.86206 4.74364 -8.90301 1.01329e-09
129 1 3.14383 6.28963 3.15436 -8.93807 1.35659e-09
130 1 4.7162 7.86205 4.7435 -8.90301 1.01382e-09
131 1 6.28866 6.28962 3.15424 -8.93808 1.35785e-09
132 1 7.86106 7.86204 4.74333 -8.90301 1.01441e-09
133 1 9.43353 6.28962 3.15413 -8.9381 1.35836e-09
134 1 11.006 7.86203 4.74325 -8.90302 1.01463e-09
135 1 12.5784 6.28962 3.15413 -8.9381 1.35777e-09
136 1 14.1509 7.86204 4.74333 -8.90301 1.01434e-09
137 1 15.7233 6.28962 3.15424 -8.93808 1.35649e-09
138 1 17.2957 7.86205 4.7435 -8.90301 1.01371e-09
139 1 18.8681 6.28963 3.15436 -8.93807 1.35548e-09
140 1 20.4405 7.86206 4.74364 -8.90301 1.01323e-09
141 1 -0.000968753 9.43451 3.15435 -8.93807 1.35548e-09
142 1 1.5714 11.007 4.74359 -8.90301 1.01332e-09
143 1 3.14382 9.43451 3.15428 -8.93808 1.35652e-09
144 1 4.71619 11.007 4.74344 -8.90301 1.01385e-09
145 1 6.28865 9.4345 3.15413 -8.9381 1.35775e-09
146 1 7.86105 11.007 4.74325 -8.90302 1.01443e-09
147 1 9.43353 9.4345 3.15401 -8.93812 1.35824e-09
148 1 11.006 11.007 4.74316 -8.90302 1.01465e-09
149 1 12.5784 9.4345 3.15401 -8.93812 1.35766e-09
150 1 14.1509 11.007 4.74325 -8.90302 1.01436e-09
151 1 15.7233 9.4345 3.15413 -8.9381 1.35642e-09
152 1 17.2957 11.007 4.74344 -8.90301 1.01374e-09
153 1 18.8681 9.43451 3.15428 -8.93808 1.35543e-09
154 1 20.4405 11.007 4.74359 -8.90301 1.01327e-09
155 1 -0.000968753 12.5794 3.15435 -8.93807 1.35548e-09
156 1 1.5714 14.1518 4.74364 -8.90301 1.01329e-09
157 1 3.14382 12.5794 3.15428 -8.93808 1.35652e-09
158 1 4.7162 14.1518 4.7435 -8.90301 1.01382e-09
159 1 6.28865 12.5794 3.15413 -8.9381 1.35775e-09
160 1 7.86106 14.1519 4.74333 -8.90301 1.01441e-09
161 1 9.43353 12.5794 3.15401 -8.93812 1.35824e-09
162 1 11.006 14.1519 4.74325 -8.90302 1.01463e-09
163 1 12.5784 12.5794 3.15401 -8.93812 1.35766e-09
164 1 14.1509 14.1519 4.74333 -8.90301 1.01434e-09
165 1 15.7233 12.5794 3.15413 -8.9381 1.35642e-09
166 1 17.2957 14.1518 4.7435 -8.90301 1.01371e-09
167 1 18.8681 12.5794 3.15428 -8.93808 1.35543e-09
168 1 20.4405 14.1518 4.74364 -8.90301 1.01323e-09
169 1 -0.000968766 15.7243 3.15442 -8.93806 1.35552e-09
170 1 1.57141 17.2967 4.74374 -8.90301 1.01327e-09
171 1 3.14383 15.7243 3.15436 -8.93807 1.35659e-09
172 1 4.71622 17.2967 4.74364 -8.90301 1.01382e-09
173 1 6.28866 15.7243 3.15424 -8.93808 1.35785e-09
174 1 7.86107 17.2967 4.7435 -8.90301 1.01443e-09
175 1 9.43353 15.7243 3.15413 -8.9381 1.35836e-09
176 1 11.006 17.2967 4.74344 -8.90301 1.01467e-09
177 1 12.5784 15.7243 3.15413 -8.9381 1.35777e-09
178 1 14.1509 17.2967 4.7435 -8.90301 1.01434e-09
179 1 15.7233 15.7243 3.15424 -8.93808 1.35649e-09
180 1 17.2957 17.2967 4.74364 -8.90301 1.01368e-09
181 1 18.8681 15.7243 3.15436 -8.93807 1.35548e-09
182 1 20.4405 17.2967 4.74374 -8.90301 1.0132e-09
183 1 -0.00096878 18.8691 3.15451 -8.93805 1.35562e-09
184 1 1.57142 20.4415 4.74383 -8.90301 1.0133e-09
185 1 3.14383 18.8691 3.15446 -8.93806 1.35671e-09
186 1 4.71623 20.4415 4.74374 -8.90301 1.01388e-09
187 1 6.28867 18.8691 3.15436 -8.93807 1.35801e-09
188 1 7.86108 20.4415 4.74364 -8.90301 1.01451e-09
189 1 9.43354 18.8691 3.15428 -8.93808 1.35856e-09
190 1 11.006 20.4415 4.74359 -8.90301 1.01475e-09
191 1 12.5784 18.8691 3.15428 -8.93808 1.35796e-09
192 1 14.1509 20.4415 4.74364 -8.90301 1.0144e-09
193 1 15.7233 18.8691 3.15436 -8.93807 1.35663e-09
194 1 17.2957 20.4415 4.74374 -8.90301 1.01372e-09
195 1 18.8681 18.8691 3.15446 -8.93806 1.35558e-09
196 1 20.4405 20.4415 4.74383 -8.90301 1.01322e-09
197 1 -0.00100108 -7.71121e-16 6.3056 -8.88811 6.19346e-10
198 1 1.57136 1.57238 7.87482 -8.90467 3.03801e-10
199 1 3.14379 -2.39131e-16 6.30555 -8.88811 6.19673e-10
200 1 4.71615 1.57237 7.8747 -8.90467 3.04206e-10
201 1 6.28861 -5.3199e-16 6.30544 -8.88812 6.20331e-10
202 1 7.86101 1.57235 7.87456 -8.90467 3.04728e-10
203 1 9.4335 -1.39018e-16 6.30534 -8.88812 6.20841e-10
204 1 11.0059 1.57235 7.87449 -8.90467 3.04978e-10
205 1 12.5784 2.85796e-17 6.30534 -8.88812 6.20821e-10
206 1 14.1508 1.57235 7.87456 -8.90467 3.04745e-10
207 1 15.7233 -9.03762e-16 6.30544 -8.88812 6.20266e-10
208 1 17.2957 1.57237 7.8747 -8.90467 3.04203e-10
209 1 18.8681 -7.52938e-16 6.30555 -8.88811 6.19602e-10
210 1 20.4405 1.57238 7.87482 -8.90467 3.0379e-10
211 1 -0.00100107 3.14479 6.30555 -8.88811 6.19332e-10
212 1 1.57135 4.71717 7.8747 -8.90467 3.03763e-10
213 1 3.14378 3.14478 6.30549 -8.88811 6.19647e-10
214 1 4.71612 4.71714 7.87454 -8.90466 3.04153e-10
215 1 6.2886 3.14476 6.30535 -8.88812 6.20297e-10
216 1 7.86098 4.7171 7.87433 -8.90467 3.04692e-10
217 1 9.43349 3.14474 6.30524 -8.88812 6.20806e-10
218 1 11.0059 4.71708 7.87423 -8.90467 3.04957e-10
219 1 12.5784 3.14474 6.30524 -8.88812 6.2079e-10
220 1 14.1509 4.7171 7.87433 -8.90467 3.04725e-10
221 1 15.7233 3.14476 6.30535 -8.88812 6.20242e-10
222 1 17.2957 4.71714 7.87454 -8.90466 3.04169e-10
223 1 18.8681 3.14478 6.30549 -8.88811 6.19583e-10
224 1 20.4405 4.71717 7.8747 -8.90467 3.0376e-10
225 1 -0.00100105 6.28962 6.30544 -8.88812 6.19378e-10
226 1 1.57133 7.86203 7.87456 -8.90467 3.03834e-10
227 1 3.14376 6.2896 6.30535 -8.88812 6.1968e-10
228 1 4.71608 7.862 7.87433 -8.90467 3.04243e-10
229 1 6.28857 6.28957 6.30515 -8.88812 6.20318e-10
230 1 7.86094 7.86196 7.87401 -8.90469 3.0481e-10
231 1 9.43348 6.28955 6.30499 -8.88813 6.2082e-10
232 1 11.0059 7.86194 7.87386 -8.90471 3.05087e-10
233 1 12.5784 6.28955 6.30499 -8.88813 6.20814e-10
234 1 14.1509 7.86196 7.87401 -8.90469 3.04868e-10
235 1 15.7233 6.28957 6.30515 -8.88812 6.20287e-10
236 1 17.2958 7.862 7.87433 -8.90467 3.04288e-10
237 1 18.8681 6.2896 6.30535 -8.88812 6.19635e-10
238 1 20.4405 7.86203 7.87456 -8.90467 3.03843e-10
239 1 -0.00100102 9.4345 6.30534 -8.88812 6.19483e-10
240 1 1.57132 11.007 7.87449 -8.90467 3.03904e-10
241 1 3.14374 9.43449 6.30524 -8.88812 6.19786e-10
242 1 4.71606 11.007 7.87423 -8.90467 3.04336e-10
243 1 6.28855 9.43448 6.30499 -8.88813 6.20436e-10
244 1 7.86092 11.007 7.87386 -8.90471 3.04931e-10
245 1 9.43346 9.43447 6.30478 -8.88815 6.20934e-10
246 1 11.0059 11.007 7.87367 -8.90475 3.05214e-10
247 1 12.5784 9.43447 6.30478 -8.88815 6.20938e-10
248 1 14.1509 11.007 7.87386 -8.90471 3.04999e-10
249 1 15.7233 9.43448 6.30499 -8.88813 6.20425e-10
250 1 17.2958 11.007 7.87423 -8.90467 3.04394e-10
251 1 18.8682 9.43449 6.30524 -8.88812 6.19758e-10
252 1 20.4405 11.007 7.87449 -8.90467 3.03918e-10
253 1 -0.00100102 12.5794 6.30534 -8.88812 6.19483e-10
254 1 1.57133 14.1519 7.87456 -8.90467 3.03834e-10
255 1 3.14374 12.5794 6.30524 -8.88812 6.19786e-10
256 1 4.71608 14.1519 7.87433 -8.90467 3.04243e-10
257 1 6.28855 12.5794 6.30499 -8.88813 6.20436e-10
258 1 7.86094 14.1519 7.87401 -8.90469 3.0481e-10
259 1 9.43346 12.5794 6.30478 -8.88815 6.20934e-10
260 1 11.0059 14.152 7.87386 -8.90471 3.05087e-10
261 1 12.5784 12.5794 6.30478 -8.88815 6.20938e-10
262 1 14.1509 14.1519 7.87401 -8.90469 3.04867e-10
263 1 15.7233 12.5794 6.30499 -8.88813 6.20425e-10
264 1 17.2958 14.1519 7.87433 -8.90467 3.04288e-10
265 1 18.8682 12.5794 6.30524 -8.88812 6.19758e-10
266 1 20.4405 14.1519 7.87456 -8.90467 3.03843e-10
267 1 -0.00100105 15.7243 6.30544 -8.88812 6.19378e-10
268 1 1.57135 17.2967 7.8747 -8.90467 3.03763e-10
269 1 3.14376 15.7243 6.30535 -8.88812 6.1968e-10
270 1 4.71612 17.2968 7.87454 -8.90466 3.04153e-10
271 1 6.28857 15.7243 6.30515 -8.88812 6.20318e-10
272 1 7.86098 17.2968 7.87433 -8.90467 3.04692e-10
273 1 9.43348 15.7244 6.30499 -8.88813 6.2082e-10
274 1 11.0059 17.2968 7.87423 -8.90467 3.04957e-10
275 1 12.5784 15.7244 6.30499 -8.88813 6.20814e-10
276 1 14.1509 17.2968 7.87433 -8.90467 3.04725e-10
277 1 15.7233 15.7243 6.30515 -8.88812 6.20287e-10
278 1 17.2957 17.2968 7.87454 -8.90466 3.04169e-10
279 1 18.8681 15.7243 6.30535 -8.88812 6.19635e-10
280 1 20.4405 17.2967 7.8747 -8.90467 3.0376e-10
281 1 -0.00100107 18.8691 6.30555 -8.88811 6.19332e-10
282 1 1.57136 20.4415 7.87482 -8.90467 3.03801e-10
283 1 3.14378 18.8691 6.30549 -8.88811 6.19647e-10
284 1 4.71615 20.4415 7.8747 -8.90467 3.04206e-10
285 1 6.2886 18.8691 6.30535 -8.88812 6.20297e-10
286 1 7.86101 20.4415 7.87456 -8.90467 3.04728e-10
287 1 9.43349 18.8692 6.30524 -8.88812 6.20806e-10
288 1 11.0059 20.4416 7.87449 -8.90467 3.04978e-10
289 1 12.5784 18.8692 6.30524 -8.88812 6.2079e-10
290 1 14.1508 20.4415 7.87456 -8.90467 3.04745e-10
291 1 15.7233 18.8691 6.30535 -8.88812 6.20242e-10
292 1 17.2957 20.4415 7.8747 -8.90467 3.04203e-10
293 1 18.8681 18.8691 6.30549 -8.88811 6.19583e-10
294 1 20.4405 20.4415 7.87482 -8.90467 3.0379e-10
295 1 -0.0010442 9.23486e-16 9.44319 -8.89866 7.97604e-11
296 1 1.57131 1.57237 11.0113 -8.9001 4.78132e-14
297 1 3.14372 3.25504e-15 9.44312 -8.89865 7.99323e-11
298 1 4.71608 1.57234 11.0112 -8.90009 5.8526e-14
299 1 6.28854 5.18901e-15 9.44296 -8.89865 8.02627e-11
300 1 7.86094 1.57231 11.011 -8.90009 4.1611e-14
301 1 9.43344 6.59574e-15 9.44283 -8.89865 8.05213e-11
302 1 11.0059 1.57229 11.0109 -8.90009 3.18594e-14
303 1 12.5784 7.39486e-15 9.44283 -8.89865 8.04984e-11
304 1 14.1508 1.57231 11.011 -8.90009 3.13629e-14
305 1 15.7233 5.53374e-15 9.44296 -8.89865 8.01916e-11
306 1 17.2957 1.57234 11.0112 -8.90009 2.04931e-14
307 1 18.8681 3.02657e-15 9.44312 -8.89865 7.98551e-11
308 1 20.4405 1.57237 11.0113 -8.9001 2.21308e-14
309 1 -0.0010442 3.14476 9.44312 -8.89865 7.96988e-11
310 1 1.57128 4.71715 11.0112 -8.90009 3.11449e-14
311 1 3.1437 3.14474 9.44304 -8.89865 7.98619e-11
312 1 4.716 4.71707 11.0109 -8.90006 4.17665e-14
313 1 6.28851 3.14469 9.44283 -8.89864 8.01999e-11
314 1 7.86086 4.71696 11.0106 -8.90007 3.11278e-14
315 1 9.43342 3.14465 9.44265 -8.89865 8.04757e-11
316 1 11.0059 4.71692 11.0104 -8.90008 3.21823e-14
317 1 12.5784 3.14465 9.44265 -8.89865 8.04583e-11
318 1 14.1509 4.71696 11.0106 -8.90007 3.972e-14
319 1 15.7233 3.14469 9.44283 -8.89864 8.01405e-11
320 1 17.2958 4.71707 11.0109 -8.90006 2.49319e-14
321 1 18.8681 3.14474 9.44304 -8.89865 7.97928e-11
322 1 20.4405 4.71715 11.0112 -8.90009 1.43111e-14
323 1 -0.00104418 6.28958 9.44296 -8.89865 7.96546e-11
324 1 1.57124 7.86201 11.011 -8.90009 1.82321e-14
325 1 3.14365 6.28955 9.44283 -8.89864 7.98108e-11
326 1 4.71589 7.86193 11.0106 -8.90007 2.63982e-14
327 1 6.28843 6.28947 9.44248 -8.89864 8.01619e-11
328 1 7.86074 7.8618 11.0099 -8.90011 2.7342e-14
329 1 9.43338 6.28941 9.44217 -8.89865 8.04774e-11
330 1 11.0059 7.86175 11.0096 -8.90015 4.51397e-14
331 1 12.5784 6.28941 9.44217 -8.89865 8.04726e-11
332 1 14.151 7.8618 11.0099 -8.90011 5.93803e-14
333 1 15.7234 6.28947 9.44248 -8.89864 8.01302e-11
334 1 17.2959 7.86193 11.0106 -8.90007 3.92358e-14
335 1 18.8682 6.28955 9.44283 -8.89864 7.97652e-11
336 1 20.4405 7.86201 11.011 -8.90009 1.4231e-14
337 1 -0.00104416 9.43448 9.44283 -8.89865 7.9697e-11
338 1 1.57122 11.007 11.0109 -8.90009 1.55235e-14
339 1 3.14361 9.43447 9.44265 -8.89865 7.98659e-11
340 1 4.71585 11.007 11.0104 -8.90008 2.27951e-14
341 1 6.28837 9.43443 9.44217 -8.89865 8.0268e-11
342 1 7.86068 11.007 11.0096 -8.90015 3.14907e-14
343 1 9.43335 9.43439 9.44171 -8.89872 8.0625e-11
344 1 11.0059 11.007 11.0091 -8.90037 5.70363e-14
345 1 12.5785 9.43439 9.44171 -8.89872 8.06255e-11
346 1 14.1511 11.007 11.0096 -8.90015 6.99882e-14
347 1 15.7234 9.43443 9.44217 -8.89865 8.02572e-11
348 1 17.2959 11.007 11.0104 -8.90008 4.76696e-14
349 1 18.8682 9.43447 9.44265 -8.89865 7.98406e-11
350 1 20.4405 11.007 11.0109 -8.90009 1.71674e-14
351 1 -0.00104416 12.5794 9.44283 -8.89865 7.9697e-11
352 1 1.57124 14.1519 11.011 -8.90009 1.82323e-14
353 1 3.14361 12.5794 9.44265 -8.89865 7.98659e-11
354 1 4.71589 14.152 11.0106 -8.90007 2.63985e-14
355 1 6.28837 12.5795 9.44217 -8.89865 8.02681e-11
356 1 7.86074 14.1521 11.0099 -8.90011 2.73414e-14
357 1 9.43335 12.5795 9.44171 -8.89872 8.0625e-11
358 1 11.0059 14.1522 11.0096 -8.90015 4.51278e-14
359 1 12.5785 12.5795 9.44171 -8.89872 8.06255e-11
360 1 14.151 14.1521 11.0099 -8.90011 5.93688e-14
361 1 15.7234 12.5795 9.44217 -8.89865 8.02572e-11
362 1 17.2959 14.152 11.0106 -8.90007 3.92353e-14
363 1 18.8682 12.5794 9.44265 -8.89865 7.98406e-11
364 1 20.4405 14.1519 11.011 -8.90009 1.42307e-14
365 1 -0.00104418 15.7243 9.44296 -8.89865 7.96546e-11
366 1 1.57128 17.2968 11.0112 -8.90009 3.1145e-14
367 1 3.14365 15.7243 9.44283 -8.89864 7.98108e-11
368 1 4.716 17.2968 11.0109 -8.90006 4.17657e-14
369 1 6.28843 15.7244 9.44248 -8.89864 8.01619e-11
370 1 7.86086 17.2969 11.0106 -8.90007 3.11278e-14
371 1 9.43338 15.7245 9.44217 -8.89865 8.04774e-11
372 1 11.0059 17.297 11.0104 -8.90008 3.21824e-14
373 1 12.5784 15.7245 9.44217 -8.89865 8.04726e-11
374 1 14.1509 17.2969 11.0106 -8.90007 3.97202e-14
375 1 15.7234 15.7244 9.44248 -8.89864 8.01302e-11
376 1 17.2958 17.2968 11.0109 -8.90006 2.49321e-14
377 1 18.8682 15.7243 9.44283 -8.89864 7.97651e-11
378 1 20.4405 17.2968 11.0112 -8.90009 1.43107e-14
379 1 -0.0010442 18.8691 9.44312 -8.89865 7.96988e-11
380 1 1.57131 20.4415 11.0113 -8.9001 4.78133e-14
381 1 3.1437 18.8692 9.44304 -8.89865 7.98619e-11
382 1 4.71608 20.4416 11.0112 -8.90009 5.85257e-14
383 1 6.28851 18.8692 9.44283 -8.89864 8.01999e-11
384 1 7.86094 20.4416 11.011 -8.90009 4.16104e-14
385 1 9.43342 18.8692 9.44265 -8.89865 8.04757e-11
386 1 11.0059 20.4416 11.0109 -8.90009 3.18594e-14
387 1 12.5784 18.8692 9.44265 -8.89865 8.04583e-11
388 1 14.1508 20.4416 11.011 -8.90009 3.13632e-14
389 1 15.7233 18.8692 9.44283 -8.89864 8.01405e-11
390 1 17.2957 20.4416 11.0112 -8.90009 2.0493e-14
391 1 18.8681 18.8692 9.44304 -8.89865 7.97928e-11
392 1 20.4405 20.4415 11.0113 -8.9001 2.21308e-14
393 1 -0.00109174 6.7589e-15 12.5796 -8.89868 7.5337e-11
394 1 3.14369 -5.49366e-15 12.5795 -8.89867 7.51738e-11
395 1 6.2885 -3.11995e-14 12.5793 -8.89867 7.47492e-11
396 1 9.43339 -4.86031e-14 12.5791 -8.89868 7.43822e-11
397 1 12.5783 -4.81234e-14 12.5791 -8.89868 7.44559e-11
398 1 15.7232 -3.09207e-14 12.5793 -8.89867 7.48942e-11
399 1 18.868 -5.39677e-15 12.5795 -8.89867 7.52717e-11
400 1 22.0128 3.14478 12.5795 -8.89867 7.5546e-11
401 1 3.14365 3.14474 12.5794 -8.89866 7.53953e-11
402 1 6.28843 3.14464 12.5791 -8.89864 7.49614e-11
403 1 9.43336 3.14455 12.5788 -8.89865 7.45499e-11
404 1 12.5784 3.14455 12.5788 -8.89865 7.46344e-11
405 1 15.7233 3.14464 12.5791 -8.89864 7.51257e-11
406 1 18.8681 3.14474 12.5794 -8.89866 7.5499e-11
407 1 22.0128 6.28959 12.5793 -8.89867 7.5828e-11
408 1 3.14354 6.28952 12.5791 -8.89864 7.56832e-11
409 1 6.28824 6.28933 12.5785 -8.89854 7.52539e-11
410 1 9.43325 6.28917 12.5779 -8.8986 7.47382e-11
411 1 12.5785 6.28917 12.5779 -8.8986 7.4856e-11
412 1 15.7235 6.28933 12.5785 -8.89854 7.55289e-11
413 1 18.8682 6.28952 12.5791 -8.89864 7.582e-11
414 1 22.0128 9.43448 12.5791 -8.89868 7.58898e-11
415 1 3.14346 9.43445 12.5788 -8.89865 7.568e-11
416 1 6.28808 9.43434 12.5779 -8.8986 7.50902e-11
417 1 9.43312 9.43421 12.5768 -8.89878 7.45006e-11
418 1 12.5786 9.43421 12.5768 -8.89878 7.45881e-11
419 1 15.7236 9.43434 12.5779 -8.8986 7.54306e-11
420 1 18.8683 9.43445 12.5788 -8.89865 7.58456e-11
421 1 22.0128 12.5794 12.5791 -8.89868 7.58898e-11
422 1 3.14346 12.5795 12.5788 -8.89865 7.56801e-11
423 1 6.28808 12.5796 12.5779 -8.8986 7.50904e-11
424 1 9.43312 12.5797 12.5768 -8.89878 7.45008e-11
425 1 12.5786 12.5797 12.5768 -8.89878 7.45878e-11
426 1 15.7236 12.5796 12.5779 -8.8986 7.54303e-11
427 1 18.8683 12.5795 12.5788 -8.89865 7.58456e-11
428 1 22.0128 15.7243 12.5793 -8.89867 7.5828e-11
429 1 3.14354 15.7244 12.5791 -8.89864 7.56831e-11
430 1 6.28824 15.7246 12.5785 -8.89854 7.52543e-11
431 1 9.43325 15.7247 12.5779 -8.8986 7.47383e-11
432 1 12.5785 15.7247 12.5779 -8.8986 7.4856e-11
433 1 15.7235 15.7246 12.5785 -8.89854 7.55285e-11
434 1 18.8682 15.7244 12.5791 -8.89864 7.58201e-11
435 1 22.0128 18.8691 12.5795 -8.89867 7.5546e-11
436 1 3.14365 18.8692 12.5794 -8.89866 7.53952e-11
437 1 6.28843 18.8693 12.5791 -8.89864 7.49613e-11
438 1 9.43336 18.8693 12.5788 -8.89865 7.45499e-11
439 1 12.5784 18.8693 12.5788 -8.89865 7.46344e-11
440 1 15.7233 18.8693 12.5791 -8.89864 7.51257e-11
441 1 18.8681 18.8692 12.5794 -8.89866 7.54991e-11
442 1 1.5713 1.57241 14.1479 -8.9047 2.95528e-10
443 1 4.7161 1.57237 14.1478 -8.90468 2.9501e-10
444 1 7.86093 1.5723 14.1475 -8.9047 2.94072e-10
445 1 11.0058 1.57227 14.1474 -8.9047 2.93721e-10
446 1 14.1507 1.5723 14.1475 -8.9047 2.94415e-10
447 1 17.2956 1.57237 14.1478 -8.90468 2.95401e-10
448 1 20.4404 1.57241 14.1479 -8.9047 2.9569e-10
449 1 1.57126 4.71722 14.1478 -8.90468 2.96582e-10
450 1 4.71597 4.71708 14.1475 -8.90465 2.9623e-10
451 1 7.86076 4.71685 14.1469 -8.90465 2.9511e-10
452 1 11.0058 4.71676 14.1466 -8.90466 2.94619e-10
453 1 14.1509 4.71685 14.1469 -8.90465 2.95593e-10
454 1 17.2957 4.71708 14.1475 -8.90465 2.96802e-10
455 1 20.4404 4.71722 14.1478 -8.90468 2.96754e-10
456 1 1.57119 7.86204 14.1475 -8.9047 2.97277e-10
457 1 4.71574 7.86188 14.1469 -8.90465 2.96783e-10
458 1 7.86039 7.8615 14.1455 -8.9044 2.96097e-10
459 1 11.0058 7.86138 14.1447 -8.90466 2.94785e-10
460 1 14.1513 7.8615 14.1455 -8.9044 2.96123e-10
461 1 17.2959 7.86188 14.1469 -8.90465 2.97542e-10
462 1 20.4405 7.86204 14.1475 -8.9047 2.97495e-10
463 1 1.57116 11.007 14.1474 -8.9047 2.97363e-10
464 1 4.71565 11.007 14.1466 -8.90466 2.96622e-10
465 1 7.86026 11.007 14.1447 -8.90466 2.95572e-10
466 1 11.0058 11.007 14.1432 -8.90674 2.93931e-10
467 1 14.1514 11.007 14.1447 -8.90466 2.95407e-10
468 1 17.296 11.007 14.1466 -8.90466 2.97403e-10
469 1 20.4405 11.007 14.1474 -8.9047 2.97601e-10
470 1 1.57119 14.1519 14.1475 -8.9047 2.97277e-10
471 1 4.71574 14.152 14.1469 -8.90465 2.96785e-10
472 1 7.86039 14.1524 14.1455 -8.9044 2.96096e-10
473 1 11.0058 14.1525 14.1447 -8.90466 2.94785e-10
474 1 14.1513 14.1524 14.1455 -8.9044 2.96123e-10
475 1 17.2959 14.152 14.1469 -8.90465 2.97541e-10
476 1 20.4405 14.1519 14.1475 -8.9047 2.97495e-10
477 1 1.57126 17.2967 14.1478 -8.90468 2.96582e-10
478 1 4.71597 17.2968 14.1475 -8.90465 2.96231e-10
479 1 7.86076 17.297 14.1469 -8.90465 2.9511e-10
480 1 11.0058 17.2971 14.1466 -8.90466 2.94619e-10
481 1 14.1509 17.297 14.1469 -8.90465 2.95592e-10
482 1 17.2957 17.2968 14.1475 -8.90465 2.96801e-10
483 1 20.4404 17.2967 14.1478 -8.90468 2.96754e-10
484 1 1.5713 20.4415 14.1479 -8.9047 2.95528e-10
485 1 4.7161 20.4415 14.1478 -8.90468 2.9501e-10
486 1 7.86093 20.4416 14.1475 -8.9047 2.94072e-10
487 1 11.0058 20.4416 14.1474 -8.9047 2.93721e-10
488 1 14.1507 20.4416 14.1475 -8.9047 2.94415e-10
489 1 17.2956 20.4415 14.1478 -8.90468 2.95401e-10
490 1 20.4404 20.4415 14.1479 -8.9047 2.9569e-10
491 1 22.0128 8.38701e-15 15.7172 -8.88818 6.08732e-10
492 1 1.5714 1.57255 17.279 -8.90297 1.00205e-09
493 1 3.14379 -3.01608e-14 15.7172 -8.88819 6.08229e-10
494 1 4.71639 1.5726 17.279 -8.90302 1.00119e-09
495 1 6.2886 -6.94185e-14 15.7171 -8.88817 6.07305e-10
496 1 7.86111 1.57254 17.2788 -8.9031 9.99903e-10
497 1 9.43341 -6.06167e-14 15.7169 -8.8882 6.06316e-10
498 1 11.0058 1.5725 17.2787 -8.90309 9.99141e-10
499 1 12.5782 -5.94214e-14 15.7169 -8.8882 6.06499e-10
500 1 14.1505 1.57254 17.2788 -8.9031 1.00022e-09
501 1 15.723 -6.77125e-14 15.7171 -8.88817 6.07705e-10
502 1 17.2952 1.5726 17.279 -8.90302 1.0015e-09
503 1 18.8678 -2.97745e-14 15.7172 -8.88819 6.08523e-10
504 1 20.4402 1.57255 17.279 -8.90297 1.00216e-09
505 1 22.0128 3.14492 15.7172 -8.88819 6.09667e-10
506 1 1.57145 4.71755 17.279 -8.90302 1.00467e-09
507 1 3.14377 3.14491 15.7171 -8.88818 6.09167e-10
508 1 4.71649 4.71764 17.2789 -8.90324 1.00387e-09
509 1 6.28854 3.14478 15.7169 -8.88809 6.08473e-10
510 1 7.86096 4.71722 17.2782 -8.90292 1.00456e-09
511 1 9.43336 3.14464 15.7165 -8.88817 6.07365e-10
512 1 11.0058 4.71706 17.2777 -8.90284 1.00275e-09
513 1 12.5783 3.14464 15.7165 -8.88817 6.07597e-10
514 1 14.1506 4.71722 17.2782 -8.90292 1.00463e-09
515 1 15.7231 3.14478 15.7169 -8.88809 6.09091e-10
516 1 17.2951 4.71764 17.2789 -8.90324 1.00466e-09
517 1 18.8679 3.14491 15.7171 -8.88818 6.09482e-10
518 1 20.4401 4.71755 17.279 -8.90302 1.00484e-09
519 1 22.0128 6.28974 15.7171 -8.88817 6.11719e-10
520 1 1.57139 7.86227 17.2788 -8.9031 1.00755e-09
521 1 3.14365 6.28967 15.7169 -8.88809 6.11475e-10
522 1 4.71607 7.86211 17.2782 -8.90292 1.01009e-09
523 1 6.28822 6.28936 15.7161 -8.8877 6.12669e-10
524 1 7.85989 7.86105 17.2759 -8.90267 1.01569e-09
525 1 9.43314 6.28897 15.7149 -8.88787 6.10132e-10
526 1 11.0058 7.86102 17.2737 -8.90497 1.00582e-09
527 1 12.5785 6.28897 15.7149 -8.88787 6.09883e-10
528 1 14.1517 7.86105 17.2759 -8.90267 1.00807e-09
529 1 15.7234 6.28936 15.7161 -8.8877 6.12634e-10
530 1 17.2955 7.86211 17.2782 -8.90292 1.00853e-09
531 1 18.868 6.28967 15.7169 -8.88809 6.12143e-10
532 1 20.4402 7.86227 17.2788 -8.9031 1.00816e-09
533 1 22.0128 9.43454 15.7169 -8.8882 6.12701e-10
534 1 1.57135 11.007 17.2787 -8.90309 1.00832e-09
535 1 3.1435 9.4345 15.7165 -8.88817 6.12284e-10
536 1 4.71591 11.007 17.2777 -8.90284 1.01113e-09
537 1 6.28783 9.43427 15.7149 -8.88787 6.13681e-10
538 1 7.85987 11.007 17.2737 -8.90497 1.00828e-09
539 1 9.43255 9.43369 15.7118 -8.88714 6.09867e-10
540 1 11.0058 11.007 17.2662 -8.91709 1.01068e-09
541 1 12.5791 9.43369 15.7118 -8.88714 6.08863e-10
542 1 14.1517 11.007 17.2737 -8.90497 1.01263e-09
543 1 15.7238 9.43427 15.7149 -8.88787 6.12038e-10
544 1 17.2957 11.007 17.2777 -8.90284 1.00862e-09
545 1 18.8681 9.4345 15.7165 -8.88817 6.13129e-10
546 1 20.4402 11.007 17.2787 -8.90309 1.00915e-09
547 1 22.0128 12.5794 15.7169 -8.8882 6.12701e-10
548 1 1.57139 14.1516 17.2788 -8.9031 1.00756e-09
549 1 3.1435 12.5794 15.7165 -8.88817 6.12285e-10
550 1 4.71607 14.1518 17.2782 -8.90292 1.01008e-09
551 1 6.28783 12.5796 15.7149 -8.88787 6.13668e-10
552 1 7.85989 14.1529 17.2759 -8.90267 1.01563e-09
553 1 9.43255 12.5802 15.7118 -8.88714 6.09868e-10
554 1 11.0058 14.1529 17.2737 -8.90497 1.00582e-09
555 1 12.5791 12.5802 15.7118 -8.88714 6.08862e-10
556 1 14.1517 14.1529 17.2759 -8.90267 1.00813e-09
557 1 15.7238 12.5796 15.7149 -8.88787 6.12051e-10
558 1 17.2955 14.1518 17.2782 -8.90292 1.00854e-09
559 1 18.8681 12.5794 15.7165 -8.88817 6.13127e-10
560 1 20.4402 14.1516 17.2788 -8.9031 1.00815e-09
561 1 22.0128 15.7242 15.7171 -8.88817 6.11719e-10
562 1 1.57145 17.2964 17.279 -8.90302 1.00467e-09
563 1 3.14365 15.7242 15.7169 -8.88809 6.11477e-10
564 1 4.71649 17.2963 17.2789 -8.90324 1.00387e-09
565 1 6.28822 15.7245 15.7161 -8.8877 6.12665e-10
566 1 7.86096 17.2967 17.2782 -8.90292 1.00456e-09
567 1 9.43314 15.7249 15.7149 -8.88787 6.1013e-10
568 1 11.0058 17.2968 17.2777 -8.90284 1.00275e-09
569 1 12.5785 15.7249 15.7149 -8.88787 6.09885e-10
570 1 14.1506 17.2967 17.2782 -8.90292 1.00463e-09
571 1 15.7234 15.7245 15.7161 -8.8877 6.12638e-10
572 1 17.2951 17.2963 17.2789 -8.90324 1.00465e-09
573 1 18.868 15.7242 15.7169 -8.88809 6.12141e-10
574 1 20.4401 17.2964 17.279 -8.90302 1.00484e-09
575 1 22.0128 18.869 15.7172 -8.88819 6.09667e-10
576 1 1.5714 20.4413 17.279 -8.90297 1.00205e-09
577 1 3.14377 18.869 15.7171 -8.88818 6.09167e-10
578 1 4.71639 20.4413 17.279 -8.90302 1.00119e-09
579 1 6.28854 18.8691 15.7169 -8.88809 6.08474e-10
580 1 7.86111 20.4414 17.2788 -8.9031 9.99904e-10
581 1 9.43336 18.8693 15.7165 -8.88817 6.07365e-10
582 1 11.0058 20.4414 17.2787 -8.90309 9.99141e-10
583 1 12.5783 18.8693 15.7165 -8.88817 6.07597e-10