ITEM: TIMESTEP
291
ITEM: NUMBER OF ATOMS
736
ITEM: BOX BOUNDS pp pp pp
0.0000000000000000e+00 2.2013900999999997e+01
0.0000000000000000e+00 2.2013900999999997e+01
0.0000000000000000e+00 5.3462330999999999e+01
ITEM: ATOMS id type x y z c_pot c_ke
1 1 -0.000955206 -2.51169e-16 0.0976349 -7.40188 1.90125e-09
2 1 1.57144 1.5724 1.62442 -8.68379 1.69649e-09
3 1 3.14383 2.91134e-16 0.0976084 -7.40187 1.90622e-09
4 1 4.71625 1.57239 1.62435 -8.68379 1.69948e-09
5 1 6.28866 6.31309e-16 0.097549 -7.40185 1.91115e-09
6 1 7.8611 1.57239 1.62427 -8.68378 1.70145e-09
7 1 9.43354 2.98384e-16 0.0975015 -7.40183 1.91233e-09
8 1 11.006 1.57239 1.62423 -8.68378 1.70094e-09
9 1 12.5784 -3.40754e-16 0.0975016 -7.40183 1.90889e-09
10 1 14.1509 1.57239 1.62427 -8.68378 1.69833e-09
11 1 15.7233 4.23143e-16 0.0975492 -7.40185 1.90341e-09
12 1 17.2957 1.57239 1.62435 -8.68379 1.69556e-09
13 1 18.8682 -3.69796e-16 0.0976085 -7.40187 1.9e-09
14 1 20.4405 1.5724 1.62442 -8.68379 1.69474e-09
15 1 -0.000955201 3.14479 0.0976084 -7.40187 1.90113e-09
16 1 1.57143 4.71721 1.62435 -8.68379 1.69632e-09
17 1 3.14383 3.14479 0.0975791 -7.40186 1.90607e-09
18 1 4.71624 4.7172 1.62427 -8.68378 1.69926e-09
19 1 6.28866 3.14478 0.0975134 -7.40184 1.91095e-09
20 1 7.8611 4.71719 1.62417 -8.68377 1.70117e-09
21 1 9.43354 3.14477 0.0974608 -7.40182 1.91209e-09
22 1 11.006 4.71719 1.62412 -8.68377 1.70063e-09
23 1 12.5784 3.14477 0.0974609 -7.40182 1.90865e-09
24 1 14.1509 4.71719 1.62417 -8.68377 1.69806e-09
25 1 15.7233 3.14478 0.0975136 -7.40184 1.90322e-09
26 1 17.2957 4.7172 1.62427 -8.68378 1.69536e-09
27 1 18.8682 3.14479 0.0975793 -7.40186 1.89986e-09
28 1 20.4405 4.71721 1.62435 -8.68379 1.69458e-09
29 1 -0.000955191 6.28962 0.0975491 -7.40185 1.90087e-09
30 1 1.57143 7.86206 1.62427 -8.68378 1.69614e-09
31 1 3.14382 6.28962 0.0975135 -7.40184 1.90575e-09
32 1 4.71623 7.86206 1.62417 -8.68377 1.69901e-09
33 1 6.28865 6.28961 0.0974332 -7.40181 1.91051e-09
34 1 7.86109 7.86205 1.62404 -8.68377 1.70084e-09
35 1 9.43354 6.2896 0.0973686 -7.40178 1.91156e-09
36 1 11.006 7.86205 1.62398 -8.68376 1.70027e-09
37 1 12.5785 6.2896 0.0973686 -7.40178 1.90812e-09
38 1 14.1509 7.86205 1.62404 -8.68377 1.69775e-09
39 1 15.7233 6.28961 0.0974334 -7.40181 1.90279e-09
40 1 17.2957 7.86206 1.62417 -8.68377 1.69513e-09
41 1 18.8682 6.28962 0.0975136 -7.40184 1.89955e-09
42 1 20.4405 7.86206 1.62427 -8.68378 1.6944e-09
43 1 -0.000955182 9.4345 0.0975016 -7.40183 1.90066e-09
44 1 1.57143 11.007 1.62423 -8.68378 1.69606e-09
45 1 3.14382 9.4345 0.0974608 -7.40182 1.9055e-09
46 1 4.71623 11.007 1.62412 -8.68377 1.69891e-09
47 1 6.28864 9.43449 0.0973685 -7.40178 1.91017e-09
48 1 7.86109 11.007 1.62398 -8.68376 1.7007e-09
49 1 9.43353 9.43449 0.0972937 -7.40175 1.91113e-09
50 1 11.006 11.007 1.62392 -8.68376 1.70012e-09
51 1 12.5785 9.43449 0.0972937 -7.40175 1.9077e-09
52 1 14.1509 11.007 1.62398 -8.68376 1.69762e-09
53 1 15.7233 9.43449 0.0973687 -7.40178 1.90246e-09
54 1 17.2957 11.007 1.62412 -8.68377 1.69504e-09
55 1 18.8682 9.4345 0.0974609 -7.40182 1.89932e-09
56 1 20.4406 11.007 1.62423 -8.68378 1.69434e-09
57 1 -0.000955182 12.5794 0.0975016 -7.40183 1.90066e-09
58 1 1.57143 14.1518 1.62427 -8.68378 1.69614e-09
59 1 3.14382 12.5794 0.0974608 -7.40182 1.9055e-09
60 1 4.71623 14.1518 1.62417 -8.68377 1.69901e-09
61 1 6.28864 12.5794 0.0973685 -7.40178 1.91017e-09
62 1 7.86109 14.1519 1.62404 -8.68377 1.70084e-09
63 1 9.43353 12.5794 0.0972937 -7.40175 1.91113e-09
64 1 11.006 14.1519 1.62398 -8.68376 1.70027e-09
65 1 12.5785 12.5794 0.0972937 -7.40175 1.9077e-09
66 1 14.1509 14.1519 1.62404 -8.68377 1.69775e-09
67 1 15.7233 12.5794 0.0973687 -7.40178 1.90246e-09
68 1 17.2957 14.1518 1.62417 -8.68377 1.69513e-09
69 1 18.8682 12.5794 0.0974609 -7.40182 1.89932e-09
70 1 20.4405 14.1518 1.62427 -8.68378 1.6944e-09
71 1 -0.000955191 15.7243 0.0975491 -7.40185 1.90087e-09
72 1 1.57143 17.2967 1.62435 -8.68379 1.69632e-09
73 1 3.14382 15.7243 0.0975135 -7.40184 1.90575e-09
74 1 4.71624 17.2967 1.62427 -8.68378 1.69926e-09
75 1 6.28865 15.7243 0.0974332 -7.40181 1.91051e-09
76 1 7.8611 17.2967 1.62417 -8.68377 1.70117e-09
77 1 9.43354 15.7243 0.0973686 -7.40178 1.91156e-09
78 1 11.006 17.2967 1.62412 -8.68377 1.70063e-09
79 1 12.5785 15.7243 0.0973686 -7.40178 1.90812e-09
80 1 14.1509 17.2967 1.62417 -8.68377 1.69806e-09
81 1 15.7233 15.7243 0.0974334 -7.40181 1.90279e-09
82 1 17.2957 17.2967 1.62427 -8.68378 1.69536e-09
83 1 18.8682 15.7243 0.0975136 -7.40184 1.89955e-09
84 1 20.4405 17.2967 1.62435 -8.68379 1.69458e-09
85 1 -0.000955201 18.8691 0.0976084 -7.40187 1.90113e-09
86 1 1.57144 20.4415 1.62442 -8.68379 1.69649e-09
87 1 3.14383 18.8691 0.0975791 -7.40186 1.90607e-09
88 1 4.71625 20.4415 1.62435 -8.68379 1.69948e-09
89 1 6.28866 18.8691 0.0975134 -7.40184 1.91095e-09
90 1 7.8611 20.4415 1.62427 -8.68378 1.70145e-09
91 1 9.43354 18.8691 0.0974608 -7.40182 1.91209e-09
92 1 11.006 20.4415 1.62423 -8.68378 1.70094e-09
93 1 12.5784 18.8691 0.0974609 -7.40182 1.90865e-09
94 1 14.1509 20.4415 1.62427 -8.68378 1.69833e-09
95 1 15.7233 18.8691 0.0975136 -7.40184 1.90322e-09
96 1 17.2957 20.4415 1.62435 -8.68379 1.69556e-09
97 1 18.8682 18.8691 0.0975793 -7.40186 1.89986e-09
98 1 20.4405 20.4415 1.62442 -8.68379 1.69474e-09
99 1 -0.000970315 -2.87119e-16 3.15455 -8.93805 1.42907e-09
100 1 1.57141 1.5724 4.74383 -8.90301 1.06811e-09
101 1 3.14383 6.36106e-16 3.15451 -8.93805 1.4302e-09
102 1 4.71623 1.57239 4.74374 -8.90301 1.06871e-09
103 1 6.28867 8.1859e-16 3.15442 -8.93806 1.43157e-09
104 1 7.86108 1.57239 4.74364 -8.90301 1.06938e-09
105 1 9.43354 6.65962e-16 3.15435 -8.93807 1.43216e-09
106 1 11.006 1.57238 4.74359 -8.90301 1.06963e-09
107 1 12.5784 8.79701e-17 3.15435 -8.93807 1.43154e-09
108 1 14.1509 1.57239 4.74364 -8.90301 1.06927e-09
109 1 15.7233 3.20576e-17 3.15442 -8.93806 1.43016e-09
110 1 17.2957 1.57239 4.74374 -8.90301 1.06855e-09
111 1 18.8681 -6.59252e-16 3.15451 -8.93805 1.42905e-09
112 1 20.4405 1.5724 4.74383 -8.90301 1.06803e-09
113 1 -0.000970309 3.14481 3.15451 -8.93805 1.42903e-09
114 1 1.57141 4.71721 4.74374 -8.90301 1.0681e-09
115 1 3.14383 3.1448 3.15446 -8.93806 1.43014e-09
116 1 4.71621 4.7172 4.74364 -8.90301 1.06867e-09
117 1 6.28866 3.14479 3.15436 -8.93807 1.43149e-09
118 1 7.86107 4.71718 4.7435 -8.90301 1.06932e-09
119 1 9.43354 3.14479 3.15428 -8.93808 1.43207e-09
120 1 11.006 4.71718 4.74344 -8.90301 1.06956e-09
121 1 12.5784 3.14479 3.15428 -8.93808 1.43145e-09
122 1 14.1509 4.71718 4.7435 -8.90301 1.06922e-09
123 1 15.7233 3.14479 3.15436 -8.93807 1.43009e-09
124 1 17.2957 4.7172 4.74364 -8.90301 1.06853e-09
125 1 18.8681 3.1448 3.15446 -8.93806 1.429e-09
126 1 20.4405 4.71721 4.74374 -8.90301 1.06803e-09
127 1 -0.000970294 6.28964 3.15442 -8.93806 1.42896e-09
128 1 1.5714 7.86206 4.74364 -8.90301 1.06815e-09
129 1 3.14382 6.28963 3.15436 -8.93807 1.43004e-09
130 1 4.7162 7.86205 4.7435 -8.90301 1.0687e-09
131 1 6.28865 6.28962 3.15424 -8.93808 1.43135e-09
132 1 7.86106 7.86204 4.74333 -8.90301 1.06932e-09
133 1 9.43353 6.28962 3.15413 -8.9381 1.43189e-09
134 1 11.006 7.86203 4.74325 -8.90302 1.06955e-09
135 1 12.5784 6.28962 3.15413 -8.9381 1.43128e-09
136 1 14.1509 7.86204 4.74333 -8.90301 1.06924e-09
137 1 15.7233 6.28962 3.15424 -8.93808 1.42997e-09
138 1 17.2957 7.86205 4.7435 -8.90301 1.06859e-09
139 1 18.8681 6.28963 3.15436 -8.93807 1.42892e-09
140 1 20.4405 7.86206 4.74364 -8.90301 1.06809e-09
141 1 -0.000970281 9.43451 3.15435 -8.93807 1.42893e-09
142 1 1.5714 11.007 4.74359 -8.90301 1.06819e-09
143 1 3.14382 9.43451 3.15428 -8.93808 1.43e-09
144 1 4.71619 11.007 4.74344 -8.90301 1.06874e-09
145 1 6.28865 9.4345 3.15413 -8.9381 1.43127e-09
146 1 7.86105 11.007 4.74325 -8.90302 1.06935e-09
147 1 9.43353 9.4345 3.15401 -8.93812 1.43178e-09
148 1 11.006 11.007 4.74316 -8.90302 1.06958e-09
149 1 12.5784 9.4345 3.15401 -8.93812 1.43118e-09
150 1 14.1509 11.007 4.74325 -8.90302 1.06929e-09
151 1 15.7233 9.4345 3.15413 -8.9381 1.42991e-09
152 1 17.2957 11.007 4.74344 -8.90301 1.06864e-09
153 1 18.8681 9.43451 3.15428 -8.93808 1.42889e-09
154 1 20.4405 11.007 4.74359 -8.90301 1.06814e-09
155 1 -0.000970281 12.5794 3.15435 -8.93807 1.42893e-09
156 1 1.5714 14.1518 4.74364 -8.90301 1.06815e-09
157 1 3.14382 12.5794 3.15428 -8.93808 1.43e-09
158 1 4.7162 14.1518 4.7435 -8.90301 1.0687e-09
159 1 6.28865 12.5794 3.15413 -8.9381 1.43127e-09
160 1 7.86106 14.1519 4.74333 -8.90301 1.06932e-09
161 1 9.43353 12.5794 3.15401 -8.93812 1.43178e-09
162 1 11.006 14.1519 4.74325 -8.90302 1.06955e-09
163 1 12.5784 12.5794 3.15401 -8.93812 1.43118e-09
164 1 14.1509 14.1519 4.74333 -8.90301 1.06924e-09
165 1 15.7233 12.5794 3.15413 -8.9381 1.42991e-09
166 1 17.2957 14.1518 4.7435 -8.90301 1.06859e-09
167 1 18.8681 12.5794 3.15428 -8.93808 1.42889e-09
168 1 20.4405 14.1518 4.74364 -8.90301 1.06809e-09
169 1 -0.000970294 15.7243 3.15442 -8.93806 1.42896e-09
170 1 1.57141 17.2967 4.74374 -8.90301 1.0681e-09
171 1 3.14382 15.7243 3.15436 -8.93807 1.43004e-09
172 1 4.71621 17.2967 4.74364 -8.90301 1.06867e-09
173 1 6.28865 15.7243 3.15424 -8.93808 1.43135e-09
174 1 7.86107 17.2967 4.7435 -8.90301 1.06932e-09
175 1 9.43353 15.7243 3.15413 -8.9381 1.43189e-09
176 1 11.006 17.2967 4.74344 -8.90301 1.06956e-09
177 1 12.5784 15.7243 3.15413 -8.9381 1.43128e-09
178 1 14.1509 17.2967 4.7435 -8.90301 1.06922e-09
179 1 15.7233 15.7243 3.15424 -8.93808 1.42997e-09
180 1 17.2957 17.2967 4.74364 -8.90301 1.06853e-09
181 1 18.8681 15.7243 3.15436 -8.93807 1.42892e-09
182 1 20.4405 17.2967 4.74374 -8.90301 1.06803e-09
183 1 -0.000970309 18.8691 3.15451 -8.93805 1.42903e-09
184 1 1.57141 20.4415 4.74383 -8.90301 1.06811e-09
185 1 3.14383 18.8691 3.15446 -8.93806 1.43014e-09
186 1 4.71623 20.4415 4.74374 -8.90301 1.06871e-09
187 1 6.28866 18.8691 3.15436 -8.93807 1.43149e-09
188 1 7.86108 20.4415 4.74364 -8.90301 1.06938e-09
189 1 9.43354 18.8691 3.15428 -8.93808 1.43207e-09
190 1 11.006 20.4415 4.74359 -8.90301 1.06963e-09
191 1 12.5784 18.8691 3.15428 -8.93808 1.43145e-09
192 1 14.1509 20.4415 4.74364 -8.90301 1.06927e-09
193 1 15.7233 18.8691 3.15436 -8.93807 1.43009e-09
194 1 17.2957 20.4415 4.74374 -8.90301 1.06855e-09
195 1 18.8681 18.8691 3.15446 -8.93806 1.429e-09
196 1 20.4405 20.4415 4.74383 -8.90301 1.06803e-09
197 1 -0.00100211 -1.6782e-16 6.3056 -8.88811 6.52808e-10
198 1 1.57136 1.57238 7.87482 -8.90467 3.20184e-10
199 1 3.14378 -6.12946e-18 6.30555 -8.88811 6.53149e-10
200 1 4.71615 1.57237 7.8747 -8.90467 3.20607e-10
201 1 6.28861 -6.872e-16 6.30544 -8.88812 6.53837e-10
202 1 7.86101 1.57235 7.87456 -8.90467 3.21156e-10
203 1 9.4335 -8.6941e-16 6.30534 -8.88812 6.54373e-10
204 1 11.0059 1.57235 7.87449 -8.90467 3.21419e-10
205 1 12.5784 -8.18171e-16 6.30534 -8.88812 6.54354e-10
206 1 14.1508 1.57235 7.87456 -8.90467 3.21176e-10
207 1 15.7233 -1.06535e-15 6.30544 -8.88812 6.53774e-10
208 1 17.2957 1.57237 7.8747 -8.90467 3.20608e-10
209 1 18.8681 -5.63137e-16 6.30555 -8.88811 6.53078e-10
210 1 20.4405 1.57238 7.87482 -8.90467 3.20175e-10
211 1 -0.0010021 3.14479 6.30555 -8.88811 6.52804e-10
212 1 1.57135 4.71717 7.8747 -8.90467 3.20158e-10
213 1 3.14378 3.14478 6.30549 -8.88811 6.53131e-10
214 1 4.71612 4.71714 7.87454 -8.90466 3.20567e-10
215 1 6.2886 3.14476 6.30535 -8.88812 6.53812e-10
216 1 7.86098 4.7171 7.87433 -8.90467 3.21132e-10
217 1 9.43349 3.14474 6.30524 -8.88812 6.54346e-10
218 1 11.0059 4.71708 7.87423 -8.90467 3.2141e-10
219 1 12.5784 3.14474 6.30524 -8.88812 6.54332e-10
220 1 14.1509 4.7171 7.87433 -8.90467 3.21167e-10
221 1 15.7233 3.14476 6.30535 -8.88812 6.53759e-10
222 1 17.2957 4.71714 7.87454 -8.90466 3.20585e-10
223 1 18.8681 3.14478 6.30549 -8.88811 6.53069e-10
224 1 20.4405 4.71717 7.8747 -8.90467 3.20157e-10
225 1 -0.00100208 6.28962 6.30544 -8.88812 6.52876e-10
226 1 1.57133 7.86203 7.87456 -8.90467 3.2025e-10
227 1 3.14376 6.2896 6.30535 -8.88812 6.53188e-10
228 1 4.71608 7.862 7.87433 -8.90467 3.20681e-10
229 1 6.28857 6.28957 6.30515 -8.88812 6.53856e-10
230 1 7.86094 7.86196 7.87401 -8.90469 3.21277e-10
231 1 9.43348 6.28955 6.30499 -8.88813 6.54383e-10
232 1 11.0059 7.86194 7.87386 -8.90471 3.21564e-10
233 1 12.5784 6.28955 6.30499 -8.88813 6.54378e-10
234 1 14.1509 7.86196 7.87401 -8.90469 3.21331e-10
235 1 15.7233 6.28957 6.30515 -8.88812 6.53828e-10
236 1 17.2958 7.862 7.87433 -8.90467 3.20725e-10
237 1 18.8681 6.2896 6.30535 -8.88812 6.53146e-10
238 1 20.4405 7.86203 7.87456 -8.90467 3.20261e-10
239 1 -0.00100206 9.4345 6.30534 -8.88812 6.53004e-10
240 1 1.57132 11.007 7.87449 -8.90467 3.20332e-10
241 1 3.14374 9.43449 6.30524 -8.88812 6.53318e-10
242 1 4.71606 11.007 7.87423 -8.90467 3.20787e-10
243 1 6.28855 9.43448 6.30499 -8.88813 6.53998e-10
244 1 7.86092 11.007 7.87386 -8.90471 3.21413e-10
245 1 9.43346 9.43447 6.30478 -8.88815 6.54521e-10
246 1 11.0059 11.007 7.87367 -8.90475 3.21704e-10
247 1 12.5784 9.43447 6.30478 -8.88815 6.54524e-10
248 1 14.1509 11.007 7.87386 -8.90471 3.21474e-10
249 1 15.7233 9.43448 6.30499 -8.88813 6.5399e-10
250 1 17.2958 11.007 7.87423 -8.90467 3.20843e-10
251 1 18.8682 9.43449 6.30524 -8.88812 6.53293e-10
252 1 20.4405 11.007 7.87449 -8.90467 3.20348e-10
253 1 -0.00100206 12.5794 6.30534 -8.88812 6.53004e-10
254 1 1.57133 14.1519 7.87456 -8.90467 3.2025e-10
255 1 3.14374 12.5794 6.30524 -8.88812 6.53318e-10
256 1 4.71608 14.1519 7.87433 -8.90467 3.20681e-10
257 1 6.28855 12.5794 6.30499 -8.88813 6.53998e-10
258 1 7.86094 14.1519 7.87401 -8.90469 3.21277e-10
259 1 9.43346 12.5794 6.30478 -8.88815 6.54521e-10
260 1 11.0059 14.152 7.87386 -8.90471 3.21564e-10
261 1 12.5784 12.5794 6.30478 -8.88815 6.54524e-10
262 1 14.1509 14.1519 7.87401 -8.90469 3.21331e-10
263 1 15.7233 12.5794 6.30499 -8.88813 6.5399e-10
264 1 17.2958 14.1519 7.87433 -8.90467 3.20725e-10
265 1 18.8682 12.5794 6.30524 -8.88812 6.53293e-10
266 1 20.4405 14.1519 7.87456 -8.90467 3.20261e-10
267 1 -0.00100208 15.7243 6.30544 -8.88812 6.52876e-10
268 1 1.57135 17.2967 7.8747 -8.90467 3.20158e-10
269 1 3.14376 15.7243 6.30535 -8.88812 6.53188e-10
270 1 4.71612 17.2968 7.87454 -8.90466 3.20567e-10
271 1 6.28857 15.7243 6.30515 -8.88812 6.53856e-10
272 1 7.86098 17.2968 7.87433 -8.90467 3.21132e-10
273 1 9.43348 15.7244 6.30499 -8.88813 6.54383e-10
274 1 11.0059 17.2968 7.87423 -8.90467 3.2141e-10
275 1 12.5784 15.7244 6.30499 -8.88813 6.54378e-10
276 1 14.1509 17.2968 7.87433 -8.90467 3.21167e-10
277 1 15.7233 15.7243 6.30515 -8.88812 6.53828e-10
278 1 17.2957 17.2968 7.87454 -8.90466 3.20585e-10
279 1 18.8681 15.7243 6.30535 -8.88812 6.53146e-10
280 1 20.4405 17.2967 7.8747 -8.90467 3.20157e-10
281 1 -0.0010021 18.8691 6.30555 -8.88811 6.52804e-10
282 1 1.57136 20.4415 7.87482 -8.90467 3.20184e-10
283 1 3.14378 18.8691 6.30549 -8.88811 6.53131e-10
284 1 4.71615 20.4415 7.8747 -8.90467 3.20607e-10
285 1 6.2886 18.8691 6.30535 -8.88812 6.53812e-10
286 1 7.86101 20.4415 7.87456 -8.90467 3.21156e-10
287 1 9.43349 18.8692 6.30524 -8.88812 6.54346e-10
288 1 11.0059 20.4416 7.87449 -8.90467 3.21419e-10
289 1 12.5784 18.8692 6.30524 -8.88812 6.54332e-10
290 1 14.1508 20.4415 7.87456 -8.90467 3.21176e-10
291 1 15.7233 18.8691 6.30535 -8.88812 6.53759e-10
292 1 17.2957 20.4415 7.8747 -8.90467 3.20608e-10
293 1 18.8681 18.8691 6.30549 -8.88811 6.53069e-10
294 1 20.4405 20.4415 7.87482 -8.90467 3.20175e-10
295 1 -0.00104457 -2.0899e-16 9.44319 -8.89866 8.40397e-11
296 1 1.57131 1.57237 11.0113 -8.9001 4.78174e-14
297 1 3.14372 -6.48738e-16 9.44312 -8.89865 8.42169e-11
298 1 4.71608 1.57234 11.0112 -8.90009 5.88805e-14
299 1 6.28854 -2.12186e-15 9.44296 -8.89865 8.45629e-11
300 1 7.86094 1.57231 11.011 -8.90009 4.2307e-14
301 1 9.43344 -3.06541e-15 9.44283 -8.89865 8.48353e-11
302 1 11.0059 1.57229 11.0109 -8.90009 3.2658e-14
303 1 12.5784 -2.61589e-15 9.44283 -8.89865 8.48129e-11
304 1 14.1508 1.57231 11.011 -8.90009 3.21522e-14
305 1 15.7233 -1.93701e-15 9.44296 -8.89865 8.4493e-11
306 1 17.2957 1.57234 11.0112 -8.90009 2.10462e-14
307 1 18.8681 -6.08471e-16 9.44312 -8.89865 8.41409e-11
308 1 20.4405 1.57237 11.0113 -8.9001 2.22656e-14
309 1 -0.00104457 3.14476 9.44312 -8.89865 8.39795e-11
310 1 1.57128 4.71715 11.0112 -8.90009 3.14143e-14
311 1 3.1437 3.14474 9.44304 -8.89865 8.41482e-11
312 1 4.716 4.71707 11.0109 -8.90006 4.23707e-14
313 1 6.28851 3.14469 9.44283 -8.89864 8.45026e-11
314 1 7.86086 4.71696 11.0106 -8.90007 3.19954e-14
315 1 9.43342 3.14465 9.44265 -8.89865 8.47921e-11
316 1 11.0059 4.71692 11.0104 -8.90008 3.29828e-14
317 1 12.5784 3.14465 9.44265 -8.89865 8.47744e-11
318 1 14.1509 4.71696 11.0106 -8.90007 4.05441e-14
319 1 15.7233 3.14469 9.44283 -8.89864 8.44423e-11
320 1 17.2958 4.71707 11.0109 -8.90006 2.56356e-14
321 1 18.8681 3.14474 9.44304 -8.89865 8.40793e-11
322 1 20.4405 4.71715 11.0112 -8.90009 1.46181e-14
323 1 -0.00104455 6.28958 9.44296 -8.89865 8.39433e-11
324 1 1.57124 7.86201 11.011 -8.90009 1.8772e-14
325 1 3.14365 6.28955 9.44283 -8.89864 8.41068e-11
326 1 4.71589 7.86193 11.0106 -8.90007 2.72268e-14
327 1 6.28843 6.28947 9.44248 -8.89864 8.44745e-11
328 1 7.86074 7.8618 11.0099 -8.90011 2.81609e-14
329 1 9.43338 6.28941 9.44217 -8.89865 8.48043e-11
330 1 11.0059 7.86175 11.0096 -8.90015 4.51773e-14
331 1 12.5784 6.28941 9.44217 -8.89865 8.47976e-11
332 1 14.151 7.8618 11.0099 -8.90011 5.94767e-14
333 1 15.7234 6.28947 9.44248 -8.89864 8.44393e-11
334 1 17.2959 7.86193 11.0106 -8.90007 4.00086e-14
335 1 18.8682 6.28955 9.44283 -8.89864 8.40583e-11
336 1 20.4405 7.86201 11.011 -8.90009 1.47248e-14
337 1 -0.00104453 9.43448 9.44283 -8.89865 8.39959e-11
338 1 1.57122 11.007 11.0109 -8.90009 1.61744e-14
339 1 3.14361 9.43447 9.44265 -8.89865 8.41745e-11
340 1 4.71585 11.007 11.0104 -8.90008 2.36965e-14
341 1 6.28837 9.43443 9.44217 -8.89865 8.45948e-11
342 1 7.86068 11.007 11.0096 -8.90015 3.20077e-14
343 1 9.43335 9.43439 9.44171 -8.89872 8.4966e-11
344 1 11.0059 11.007 11.0091 -8.90037 5.60864e-14
345 1 12.5785 9.43439 9.44171 -8.89872 8.49662e-11
346 1 14.1511 11.007 11.0096 -8.90015 6.97276e-14
347 1 15.7234 9.43443 9.44217 -8.89865 8.45798e-11
348 1 17.2959 11.007 11.0104 -8.90008 4.84096e-14
349 1 18.8682 9.43447 9.44265 -8.89865 8.4144e-11
350 1 20.4405 11.007 11.0109 -8.90009 1.77291e-14
351 1 -0.00104453 12.5794 9.44283 -8.89865 8.39959e-11
352 1 1.57124 14.1519 11.011 -8.90009 1.8772e-14
353 1 3.14361 12.5794 9.44265 -8.89865 8.41745e-11
354 1 4.71589 14.152 11.0106 -8.90007 2.72268e-14
355 1 6.28837 12.5795 9.44217 -8.89865 8.45948e-11
356 1 7.86074 14.1521 11.0099 -8.90011 2.81608e-14
357 1 9.43335 12.5795 9.44171 -8.89872 8.4966e-11
358 1 11.0059 14.1522 11.0096 -8.90015 4.51762e-14
359 1 12.5785 12.5795 9.44171 -8.89872 8.49662e-11
360 1 14.151 14.1521 11.0099 -8.90011 5.94756e-14
361 1 15.7234 12.5795 9.44217 -8.89865 8.45798e-11
362 1 17.2959 14.152 11.0106 -8.90007 4.00086e-14
363 1 18.8682 12.5794 9.44265 -8.89865 8.4144e-11
364 1 20.4405 14.1519 11.011 -8.90009 1.47248e-14
365 1 -0.00104455 15.7243 9.44296 -8.89865 8.39433e-11
366 1 1.57128 17.2968 11.0112 -8.90009 3.14144e-14
367 1 3.14365 15.7243 9.44283 -8.89864 8.41068e-11
368 1 4.716 17.2968 11.0109 -8.90006 4.23706e-14
369 1 6.28843 15.7244 9.44248 -8.89864 8.44745e-11
370 1 7.86086 17.2969 11.0106 -8.90007 3.19954e-14
371 1 9.43338 15.7245 9.44217 -8.89865 8.48043e-11
372 1 11.0059 17.297 11.0104 -8.90008 3.29828e-14
373 1 12.5784 15.7245 9.44217 -8.89865 8.47976e-11
374 1 14.1509 17.2969 11.0106 -8.90007 4.05442e-14
375 1 15.7234 15.7244 9.44248 -8.89864 8.44393e-11
376 1 17.2958 17.2968 11.0109 -8.90006 2.56356e-14
377 1 18.8682 15.7243 9.44283 -8.89864 8.40583e-11
378 1 20.4405 17.2968 11.0112 -8.90009 1.46181e-14
379 1 -0.00104457 18.8691 9.44312 -8.89865 8.39795e-11
380 1 1.57131 20.4415 11.0113 -8.9001 4.78174e-14
381 1 3.1437 18.8692 9.44304 -8.89865 8.41482e-11
382 1 4.71608 20.4416 11.0112 -8.90009 5.88805e-14
383 1 6.28851 18.8692 9.44283 -8.89864 8.45026e-11
384 1 7.86094 20.4416 11.011 -8.90009 4.2307e-14
385 1 9.43342 18.8692 9.44265 -8.89865 8.47921e-11
386 1 11.0059 20.4416 11.0109 -8.90009 3.2658e-14
387 1 12.5784 18.8692 9.44265 -8.89865 8.47744e-11
388 1 14.1508 20.4416 11.011 -8.90009 3.21522e-14
389 1 15.7233 18.8692 9.44283 -8.89864 8.44423e-11
390 1 17.2957 20.4416 11.0112 -8.90009 2.10462e-14
391 1 18.8681 18.8692 9.44304 -8.89865 8.40793e-11
392 1 20.4405 20.4415 11.0113 -8.9001 2.22656e-14
393 1 -0.00109138 -2.0361e-15 12.5796 -8.89868 7.94474e-11
394 1 3.14369 -5.72053e-15 12.5795 -8.89867 7.92792e-11
395 1 6.2885 -1.09514e-14 12.5793 -8.89867 7.88371e-11
396 1 9.43339 -1.48031e-14 12.5791 -8.89868 7.84546e-11
397 1 12.5783 -1.42066e-14 12.5791 -8.89868 7.85303e-11
398 1 15.7232 -1.05969e-14 12.5793 -8.89867 7.89867e-11
399 1 18.868 -5.33825e-15 12.5795 -8.89867 7.93792e-11
400 1 22.0128 3.14478 12.5795 -8.89867 7.96626e-11
401 1 3.14365 3.14474 12.5794 -8.89866 7.95046e-11
402 1 6.28843 3.14464 12.5791 -8.89864 7.90571e-11
403 1 9.43336 3.14455 12.5788 -8.89865 7.86273e-11
404 1 12.5784 3.14455 12.5788 -8.89865 7.87117e-11
405 1 15.7233 3.14464 12.5791 -8.89864 7.92243e-11
406 1 18.8681 3.14474 12.5794 -8.89866 7.96163e-11
407 1 22.0128 6.28959 12.5793 -8.89867 7.99481e-11
408 1 3.14354 6.28952 12.5791 -8.89864 7.97994e-11
409 1 6.28824 6.28933 12.5785 -8.89854 7.93886e-11
410 1 9.43325 6.28917 12.5779 -8.8986 7.88176e-11
411 1 12.5785 6.28917 12.5779 -8.8986 7.89227e-11
412 1 15.7235 6.28933 12.5785 -8.89854 7.96042e-11
413 1 18.8682 6.28952 12.5791 -8.89864 7.994e-11
414 1 22.0128 9.43448 12.5791 -8.89868 8.00035e-11
415 1 3.14346 9.43445 12.5788 -8.89865 7.9791e-11
416 1 6.28808 9.43434 12.5779 -8.8986 7.92274e-11
417 1 9.43312 9.43421 12.5768 -8.89878 7.85393e-11
418 1 12.5786 9.43421 12.5768 -8.89878 7.86454e-11
419 1 15.7236 9.43434 12.5779 -8.8986 7.94701e-11
420 1 18.8683 9.43445 12.5788 -8.89865 7.99526e-11
421 1 22.0128 12.5794 12.5791 -8.89868 8.00035e-11
422 1 3.14346 12.5795 12.5788 -8.89865 7.9791e-11
423 1 6.28808 12.5796 12.5779 -8.8986 7.92274e-11
424 1 9.43312 12.5797 12.5768 -8.89878 7.85393e-11
425 1 12.5786 12.5797 12.5768 -8.89878 7.86454e-11
426 1 15.7236 12.5796 12.5779 -8.8986 7.94701e-11
427 1 18.8683 12.5795 12.5788 -8.89865 7.99526e-11
428 1 22.0128 15.7243 12.5793 -8.89867 7.99481e-11
429 1 3.14354 15.7244 12.5791 -8.89864 7.97994e-11
430 1 6.28824 15.7246 12.5785 -8.89854 7.93886e-11
431 1 9.43325 15.7247 12.5779 -8.8986 7.88176e-11
432 1 12.5785 15.7247 12.5779 -8.8986 7.89226e-11
433 1 15.7235 15.7246 12.5785 -8.89854 7.96042e-11
434 1 18.8682 15.7244 12.5791 -8.89864 7.994e-11
435 1 22.0128 18.8691 12.5795 -8.89867 7.96626e-11
436 1 3.14365 18.8692 12.5794 -8.89866 7.95046e-11
437 1 6.28843 18.8693 12.5791 -8.89864 7.90571e-11
438 1 9.43336 18.8693 12.5788 -8.89865 7.86273e-11
439 1 12.5784 18.8693 12.5788 -8.89865 7.87117e-11
440 1 15.7233 18.8693 12.5791 -8.89864 7.92243e-11
441 1 18.8681 18.8692 12.5794 -8.89866 7.96163e-11
442 1 1.5713 1.57241 14.1479 -8.9047 3.11576e-10
443 1 4.7161 1.57237 14.1478 -8.90468 3.11041e-10
444 1 7.86093 1.5723 14.1475 -8.9047 3.10069e-10
445 1 11.0058 1.57227 14.1474 -8.9047 3.09697e-10
446 1 14.1507 1.5723 14.1475 -8.9047 3.10418e-10
447 1 17.2956 1.57237 14.1478 -8.90468 3.11447e-10
448 1 20.4404 1.57241 14.1479 -8.9047 3.11745e-10
449 1 1.57126 4.71722 14.1478 -8.90468 3.12661e-10
450 1 4.71597 4.71708 14.1475 -8.90465 3.12374e-10
451 1 7.86076 4.71685 14.1469 -8.90465 3.11187e-10
452 1 11.0058 4.71676 14.1466 -8.90466 3.10612e-10
453 1 14.1509 4.71685 14.1469 -8.90465 3.1159e-10
454 1 17.2957 4.71708 14.1475 -8.90465 3.12842e-10
455 1 20.4404 4.71722 14.1478 -8.90468 3.12848e-10
456 1 1.57119 7.86204 14.1475 -8.9047 3.1338e-10
457 1 4.71574 7.86188 14.1469 -8.90465 3.13e-10
458 1 7.86039 7.8615 14.1455 -8.9044 3.11943e-10
459 1 11.0058 7.86138 14.1447 -8.90466 3.10783e-10
460 1 14.1513 7.8615 14.1455 -8.9044 3.12361e-10
461 1 17.2959 7.86188 14.1469 -8.90465 3.1353e-10
462 1 20.4405 7.86204 14.1475 -8.9047 3.13589e-10
463 1 1.57116 11.007 14.1474 -8.9047 3.13465e-10
464 1 4.71565 11.007 14.1466 -8.90466 3.12822e-10
465 1 7.86026 11.007 14.1447 -8.90466 3.11292e-10
466 1 11.0058 11.007 14.1432 -8.90674 3.09873e-10
467 1 14.1514 11.007 14.1447 -8.90466 3.11698e-10
468 1 17.296 11.007 14.1466 -8.90466 3.13366e-10
469 1 20.4405 11.007 14.1474 -8.9047 3.13682e-10
470 1 1.57119 14.1519 14.1475 -8.9047 3.1338e-10
471 1 4.71574 14.152 14.1469 -8.90465 3.13001e-10
472 1 7.86039 14.1524 14.1455 -8.9044 3.11943e-10
473 1 11.0058 14.1525 14.1447 -8.90466 3.10783e-10
474 1 14.1513 14.1524 14.1455 -8.9044 3.12361e-10
475 1 17.2959 14.152 14.1469 -8.90465 3.1353e-10
476 1 20.4405 14.1519 14.1475 -8.9047 3.13589e-10
477 1 1.57126 17.2967 14.1478 -8.90468 3.12661e-10
478 1 4.71597 17.2968 14.1475 -8.90465 3.12374e-10
479 1 7.86076 17.297 14.1469 -8.90465 3.11187e-10
480 1 11.0058 17.2971 14.1466 -8.90466 3.10612e-10
481 1 14.1509 17.297 14.1469 -8.90465 3.11589e-10
482 1 17.2957 17.2968 14.1475 -8.90465 3.12842e-10
483 1 20.4404 17.2967 14.1478 -8.90468 3.12848e-10
484 1 1.5713 20.4415 14.1479 -8.9047 3.11576e-10
485 1 4.7161 20.4415 14.1478 -8.90468 3.11041e-10
486 1 7.86093 20.4416 14.1475 -8.9047 3.10069e-10
487 1 11.0058 20.4416 14.1474 -8.9047 3.09697e-10
488 1 14.1507 20.4416 14.1475 -8.9047 3.10418e-10
489 1 17.2956 20.4415 14.1478 -8.90468 3.11447e-10
490 1 20.4404 20.4415 14.1479 -8.9047 3.11745e-10
491 1 22.0128 -2.88262e-15 15.7172 -8.88818 6.41738e-10
492 1 1.5714 1.57255 17.279 -8.90297 1.05631e-09
493 1 3.14379 -9.48635e-15 15.7172 -8.88819 6.41212e-10
494 1 4.7164 1.5726 17.279 -8.90302 1.05542e-09
495 1 6.2886 -2.03875e-14 15.7171 -8.88817 6.40252e-10
496 1 7.86111 1.57254 17.2788 -8.9031 1.0541e-09
497 1 9.43341 -2.36839e-14 15.7169 -8.8882 6.3922e-10
498 1 11.0058 1.5725 17.2787 -8.90309 1.05328e-09
499 1 12.5782 -2.18487e-14 15.7169 -8.8882 6.39419e-10
500 1 14.1505 1.57254 17.2788 -8.9031 1.0544e-09
501 1 15.723 -1.7801e-14 15.7171 -8.88817 6.40675e-10
502 1 17.2952 1.5726 17.279 -8.90302 1.05575e-09
503 1 18.8678 -8.99256e-15 15.7172 -8.88819 6.41523e-10
504 1 20.4402 1.57255 17.279 -8.90297 1.05644e-09
505 1 22.0128 3.14492 15.7172 -8.88819 6.42704e-10
506 1 1.57145 4.71755 17.279 -8.90302 1.05905e-09
507 1 3.14377 3.14491 15.7171 -8.88818 6.42183e-10
508 1 4.71649 4.71764 17.2789 -8.90324 1.05841e-09
509 1 6.28854 3.14478 15.7169 -8.88809 6.41557e-10
510 1 7.86096 4.71722 17.2782 -8.90292 1.05877e-09
511 1 9.43336 3.14464 15.7165 -8.88817 6.40313e-10
512 1 11.0058 4.71706 17.2777 -8.90284 1.05705e-09
513 1 12.5783 3.14464 15.7165 -8.88817 6.40534e-10
514 1 14.1506 4.71722 17.2782 -8.90292 1.05913e-09
515 1 15.7231 3.14478 15.7169 -8.88809 6.42032e-10
516 1 17.2951 4.71764 17.2789 -8.90324 1.05883e-09
517 1 18.8679 3.14491 15.7171 -8.88818 6.42514e-10
518 1 20.4401 4.71755 17.279 -8.90302 1.0592e-09
519 1 22.0128 6.28974 15.7171 -8.88817 6.4482e-10
520 1 1.57139 7.86227 17.2788 -8.9031 1.06222e-09
521 1 3.14365 6.28967 15.7169 -8.88809 6.44723e-10
522 1 4.71607 7.86211 17.2782 -8.90292 1.06361e-09
523 1 6.28822 6.28936 15.7161 -8.8877 6.45526e-10
524 1 7.8599 7.86105 17.2759 -8.90267 1.06625e-09
525 1 9.43314 6.28897 15.7149 -8.88787 6.42934e-10
526 1 11.0058 7.86102 17.2737 -8.90497 1.06071e-09
527 1 12.5785 6.28897 15.7149 -8.88787 6.43167e-10
528 1 14.1517 7.86105 17.2759 -8.90267 1.06624e-09
529 1 15.7234 6.28936 15.7161 -8.8877 6.46073e-10
530 1 17.2955 7.86211 17.2782 -8.90292 1.06398e-09
531 1 18.868 6.28967 15.7169 -8.88809 6.45141e-10
532 1 20.4402 7.86227 17.2788 -8.9031 1.06245e-09
533 1 22.0128 9.43454 15.7169 -8.8882 6.4582e-10
534 1 1.57135 11.007 17.2787 -8.90309 1.0631e-09
535 1 3.1435 9.4345 15.7165 -8.88817 6.4561e-10
536 1 4.71591 11.007 17.2777 -8.90284 1.06418e-09
537 1 6.28784 9.43427 15.7149 -8.88787 6.45723e-10
538 1 7.85987 11.007 17.2737 -8.90497 1.06448e-09
539 1 9.43255 9.43369 15.7118 -8.88714 6.4225e-10
540 1 11.0058 11.007 17.2662 -8.91709 1.06383e-09
541 1 12.5791 9.43369 15.7118 -8.88714 6.42423e-10
542 1 14.1517 11.007 17.2737 -8.90497 1.06542e-09
543 1 15.7238 9.43427 15.7149 -8.88787 6.46177e-10
544 1 17.2957 11.007 17.2777 -8.90284 1.06451e-09
545 1 18.8681 9.4345 15.7165 -8.88817 6.46077e-10
546 1 20.4402 11.007 17.2787 -8.90309 1.06336e-09
547 1 22.0128 12.5794 15.7169 -8.8882 6.4582e-10
548 1 1.57139 14.1516 17.2788 -8.9031 1.06222e-09
549 1 3.1435 12.5794 15.7165 -8.88817 6.4561e-10
550 1 4.71607 14.1518 17.2782 -8.90292 1.06361e-09
551 1 6.28784 12.5796 15.7149 -8.88787 6.45722e-10
552 1 7.8599 14.1529 17.2759 -8.90267 1.06624e-09
553 1 9.43255 12.5802 15.7118 -8.88714 6.4225e-10
554 1 11.0058 14.1529 17.2737 -8.90497 1.06071e-09
555 1 12.5791 12.5802 15.7118 -8.88714 6.42423e-10
556 1 14.1517 14.1529 17.2759 -8.90267 1.06625e-09
557 1 15.7238 12.5796 15.7149 -8.88787 6.46178e-10
558 1 17.2955 14.1518 17.2782 -8.90292 1.06398e-09
559 1 18.8681 12.5794 15.7165 -8.88817 6.46077e-10
560 1 20.4402 14.1516 17.2788 -8.9031 1.06245e-09
561 1 22.0128 15.7242 15.7171 -8.88817 6.4482e-10
562 1 1.57145 17.2964 17.279 -8.90302 1.05905e-09
563 1 3.14365 15.7242 15.7169 -8.88809 6.44723e-10
564 1 4.71649 17.2963 17.2789 -8.90324 1.05841e-09
565 1 6.28822 15.7245 15.7161 -8.8877 6.45525e-10
566 1 7.86096 17.2967 17.2782 -8.90292 1.05877e-09
567 1 9.43314 15.7249 15.7149 -8.88787 6.42934e-10
568 1 11.0058 17.2968 17.2777 -8.90284 1.05705e-09
569 1 12.5785 15.7249 15.7149 -8.88787 6.43167e-10
570 1 14.1506 17.2967 17.2782 -8.90292 1.05914e-09
571 1 15.7234 15.7245 15.7161 -8.8877 6.46073e-10
572 1 17.2951 17.2963 17.2789 -8.90324 1.05883e-09
573 1 18.868 15.7242 15.7169 -8.88809 6.45141e-10
574 1 20.4401 17.2964 17.279 -8.90302 1.0592e-09
575 1 22.0128 18.869 15.7172 -8.88819 6.42704e-10
576 1 1.5714 20.4413 17.279 -8.90297 1.05631e-09
577 1 3.14377 18.869 15.7171 -8.88818 6.42183e-10
578 1 4.7164 20.4413 17.279 -8.90302 1.05542e-09
579 1 6.28854 18.8691 15.7169 -8.88809 6.41557e-10
580 1 7.86111 20.4414 17.2788 -8.9031 1.0541e-09
581 1 9.43336 18.8693 15.7165 -8.88817 6.40313e-10
582 1 11.0058 20.4414 17.2787 -8.90309 1.05328e-09
583 1 12.5783 18.8693 15.7165 -8.88817 6.40534e-10