ITEM: TIMESTEP
295
ITEM: NUMBER OF ATOMS
736
ITEM: BOX BOUNDS pp pp pp
0.0000000000000000e+00 2.2013900999999997e+01
0.0000000000000000e+00 2.2013900999999997e+01
0.0000000000000000e+00 5.3462330999999999e+01
ITEM: ATOMS id type x y z c_pot c_ke
1 1 -0.000957015 -1.52704e-16 0.0976349 -7.40188 1.99992e-09
2 1 1.57143 1.5724 1.62442 -8.68379 1.78442e-09
3 1 3.14383 1.24083e-16 0.0976084 -7.40187 2.00497e-09
4 1 4.71625 1.57239 1.62435 -8.68379 1.78747e-09
5 1 6.28866 6.41361e-16 0.097549 -7.40185 2.01001e-09
6 1 7.8611 1.57239 1.62427 -8.68378 1.78951e-09
7 1 9.43354 4.81642e-16 0.0975015 -7.40183 2.01125e-09
8 1 11.006 1.57239 1.62423 -8.68378 1.789e-09
9 1 12.5784 -1.68528e-16 0.0975016 -7.40183 2.00776e-09
10 1 14.1509 1.57239 1.62427 -8.68378 1.78634e-09
11 1 15.7233 2.49594e-16 0.0975492 -7.40185 2.00217e-09
12 1 17.2957 1.57239 1.62435 -8.68379 1.7835e-09
13 1 18.8682 -5.22684e-16 0.0976085 -7.40187 1.99867e-09
14 1 20.4405 1.5724 1.62442 -8.68379 1.78264e-09
15 1 -0.000957011 3.14479 0.0976084 -7.40187 1.9998e-09
16 1 1.57143 4.71721 1.62435 -8.68379 1.78427e-09
17 1 3.14383 3.14479 0.0975791 -7.40186 2.00483e-09
18 1 4.71624 4.7172 1.62427 -8.68378 1.78727e-09
19 1 6.28866 3.14478 0.0975135 -7.40184 2.00982e-09
20 1 7.8611 4.71719 1.62417 -8.68377 1.78923e-09
21 1 9.43354 3.14477 0.0974608 -7.40182 2.01101e-09
22 1 11.006 4.71719 1.62412 -8.68377 1.7887e-09
23 1 12.5784 3.14477 0.0974609 -7.40182 2.00753e-09
24 1 14.1509 4.71719 1.62417 -8.68377 1.78608e-09
25 1 15.7233 3.14478 0.0975136 -7.40184 2.00198e-09
26 1 17.2957 4.7172 1.62427 -8.68378 1.78332e-09
27 1 18.8682 3.14479 0.0975793 -7.40186 1.99854e-09
28 1 20.4405 4.71721 1.62435 -8.68379 1.7825e-09
29 1 -0.000957 6.28962 0.0975491 -7.40185 1.99956e-09
30 1 1.57143 7.86206 1.62427 -8.68378 1.78411e-09
31 1 3.14382 6.28962 0.0975135 -7.40184 2.00453e-09
32 1 4.71623 7.86206 1.62417 -8.68377 1.78704e-09
33 1 6.28865 6.28961 0.0974332 -7.40181 2.0094e-09
34 1 7.86109 7.86205 1.62404 -8.68377 1.78892e-09
35 1 9.43354 6.2896 0.0973686 -7.40178 2.01049e-09
36 1 11.006 7.86205 1.62398 -8.68376 1.78836e-09
37 1 12.5785 6.2896 0.0973686 -7.40178 2.00701e-09
38 1 14.1509 7.86205 1.62404 -8.68377 1.78579e-09
39 1 15.7233 6.28961 0.0974334 -7.40181 2.00157e-09
40 1 17.2957 7.86206 1.62417 -8.68377 1.78311e-09
41 1 18.8682 6.28962 0.0975136 -7.40184 1.99825e-09
42 1 20.4405 7.86206 1.62427 -8.68378 1.78235e-09
43 1 -0.000956991 9.4345 0.0975016 -7.40183 1.99938e-09
44 1 1.57143 11.007 1.62423 -8.68378 1.78405e-09
45 1 3.14382 9.4345 0.0974608 -7.40182 2.00431e-09
46 1 4.71623 11.007 1.62412 -8.68377 1.78695e-09
47 1 6.28864 9.43449 0.0973685 -7.40178 2.00907e-09
48 1 7.86108 11.007 1.62398 -8.68376 1.78879e-09
49 1 9.43353 9.43449 0.0972937 -7.40175 2.01007e-09
50 1 11.006 11.007 1.62392 -8.68376 1.78821e-09
51 1 12.5785 9.43449 0.0972937 -7.40175 2.0066e-09
52 1 14.1509 11.007 1.62398 -8.68376 1.78567e-09
53 1 15.7233 9.43449 0.0973687 -7.40178 2.00125e-09
54 1 17.2957 11.007 1.62412 -8.68377 1.78303e-09
55 1 18.8682 9.4345 0.0974609 -7.40182 1.99803e-09
56 1 20.4405 11.007 1.62423 -8.68378 1.7823e-09
57 1 -0.000956991 12.5794 0.0975016 -7.40183 1.99938e-09
58 1 1.57143 14.1518 1.62427 -8.68378 1.78411e-09
59 1 3.14382 12.5794 0.0974608 -7.40182 2.00431e-09
60 1 4.71623 14.1518 1.62417 -8.68377 1.78704e-09
61 1 6.28864 12.5794 0.0973685 -7.40178 2.00907e-09
62 1 7.86109 14.1519 1.62404 -8.68377 1.78892e-09
63 1 9.43353 12.5794 0.0972937 -7.40175 2.01007e-09
64 1 11.006 14.1519 1.62398 -8.68376 1.78836e-09
65 1 12.5785 12.5794 0.0972937 -7.40175 2.0066e-09
66 1 14.1509 14.1519 1.62404 -8.68377 1.78579e-09
67 1 15.7233 12.5794 0.0973687 -7.40178 2.00125e-09
68 1 17.2957 14.1518 1.62417 -8.68377 1.78311e-09
69 1 18.8682 12.5794 0.0974609 -7.40182 1.99803e-09
70 1 20.4405 14.1518 1.62427 -8.68378 1.78235e-09
71 1 -0.000957 15.7243 0.0975491 -7.40185 1.99956e-09
72 1 1.57143 17.2967 1.62435 -8.68379 1.78427e-09
73 1 3.14382 15.7243 0.0975135 -7.40184 2.00453e-09
74 1 4.71624 17.2967 1.62427 -8.68378 1.78727e-09
75 1 6.28865 15.7243 0.0974332 -7.40181 2.0094e-09
76 1 7.8611 17.2967 1.62417 -8.68377 1.78923e-09
77 1 9.43354 15.7243 0.0973686 -7.40178 2.01049e-09
78 1 11.006 17.2967 1.62412 -8.68377 1.7887e-09
79 1 12.5785 15.7243 0.0973686 -7.40178 2.00701e-09
80 1 14.1509 17.2967 1.62417 -8.68377 1.78608e-09
81 1 15.7233 15.7243 0.0974334 -7.40181 2.00157e-09
82 1 17.2957 17.2967 1.62427 -8.68378 1.78332e-09
83 1 18.8682 15.7243 0.0975136 -7.40184 1.99825e-09
84 1 20.4405 17.2967 1.62435 -8.68379 1.7825e-09
85 1 -0.000957011 18.8691 0.0976084 -7.40187 1.9998e-09
86 1 1.57143 20.4415 1.62442 -8.68379 1.78442e-09
87 1 3.14383 18.8691 0.0975791 -7.40186 2.00483e-09
88 1 4.71625 20.4415 1.62435 -8.68379 1.78747e-09
89 1 6.28866 18.8691 0.0975135 -7.40184 2.00982e-09
90 1 7.8611 20.4415 1.62427 -8.68378 1.78951e-09
91 1 9.43354 18.8691 0.0974608 -7.40182 2.01101e-09
92 1 11.006 20.4415 1.62423 -8.68378 1.789e-09
93 1 12.5784 18.8691 0.0974609 -7.40182 2.00753e-09
94 1 14.1509 20.4415 1.62427 -8.68378 1.78634e-09
95 1 15.7233 18.8691 0.0975136 -7.40184 2.00198e-09
96 1 17.2957 20.4415 1.62435 -8.68379 1.7835e-09
97 1 18.8682 18.8691 0.0975793 -7.40186 1.99854e-09
98 1 20.4405 20.4415 1.62442 -8.68379 1.78264e-09
99 1 -0.000971884 -3.97286e-16 3.15455 -8.93805 1.50311e-09
100 1 1.57141 1.5724 4.74383 -8.90301 1.1234e-09
101 1 3.14383 5.0209e-16 3.15451 -8.93805 1.50427e-09
102 1 4.71623 1.57239 4.74374 -8.90301 1.12402e-09
103 1 6.28867 7.82232e-16 3.15442 -8.93806 1.50568e-09
104 1 7.86108 1.57239 4.74364 -8.90301 1.12472e-09
105 1 9.43354 5.66956e-16 3.15435 -8.93807 1.5063e-09
106 1 11.006 1.57238 4.74359 -8.90301 1.12499e-09
107 1 12.5784 3.11541e-16 3.15435 -8.93807 1.50567e-09
108 1 14.1509 1.57239 4.74364 -8.90301 1.12461e-09
109 1 15.7233 -8.81213e-17 3.15442 -8.93806 1.50425e-09
110 1 17.2957 1.57239 4.74374 -8.90301 1.12386e-09
111 1 18.8681 -7.95616e-16 3.15451 -8.93805 1.5031e-09
112 1 20.4405 1.5724 4.74383 -8.90301 1.12332e-09
113 1 -0.000971878 3.14481 3.15451 -8.93805 1.50308e-09
114 1 1.57141 4.71721 4.74374 -8.90301 1.12341e-09
115 1 3.14383 3.1448 3.15446 -8.93806 1.50422e-09
116 1 4.71621 4.7172 4.74364 -8.90301 1.12401e-09
117 1 6.28866 3.14479 3.15436 -8.93807 1.50561e-09
118 1 7.86107 4.71718 4.7435 -8.90301 1.12468e-09
119 1 9.43353 3.14479 3.15428 -8.93808 1.50621e-09
120 1 11.006 4.71718 4.74344 -8.90301 1.12493e-09
121 1 12.5784 3.14479 3.15428 -8.93808 1.50559e-09
122 1 14.1509 4.71718 4.7435 -8.90301 1.12458e-09
123 1 15.7233 3.14479 3.15436 -8.93807 1.50419e-09
124 1 17.2957 4.7172 4.74364 -8.90301 1.12387e-09
125 1 18.8681 3.1448 3.15446 -8.93806 1.50306e-09
126 1 20.4405 4.71721 4.74374 -8.90301 1.12334e-09
127 1 -0.000971863 6.28964 3.15442 -8.93806 1.50303e-09
128 1 1.5714 7.86206 4.74364 -8.90301 1.12349e-09
129 1 3.14382 6.28963 3.15436 -8.93807 1.50415e-09
130 1 4.7162 7.86205 4.7435 -8.90301 1.12406e-09
131 1 6.28865 6.28962 3.15424 -8.93808 1.50549e-09
132 1 7.86106 7.86204 4.74333 -8.90301 1.12471e-09
133 1 9.43353 6.28962 3.15413 -8.9381 1.50605e-09
134 1 11.006 7.86203 4.74325 -8.90302 1.12495e-09
135 1 12.5784 6.28962 3.15413 -8.9381 1.50544e-09
136 1 14.1509 7.86204 4.74333 -8.90301 1.12463e-09
137 1 15.7233 6.28962 3.15424 -8.93808 1.50409e-09
138 1 17.2957 7.86205 4.7435 -8.90301 1.12395e-09
139 1 18.8681 6.28963 3.15436 -8.93807 1.50301e-09
140 1 20.4405 7.86206 4.74364 -8.90301 1.12343e-09
141 1 -0.00097185 9.43451 3.15435 -8.93807 1.50303e-09
142 1 1.5714 11.007 4.74359 -8.90301 1.12355e-09
143 1 3.14382 9.43451 3.15428 -8.93808 1.50412e-09
144 1 4.71619 11.007 4.74344 -8.90301 1.12412e-09
145 1 6.28864 9.4345 3.15413 -8.9381 1.50543e-09
146 1 7.86105 11.007 4.74325 -8.90302 1.12475e-09
147 1 9.43353 9.4345 3.15401 -8.93812 1.50596e-09
148 1 11.006 11.007 4.74316 -8.90302 1.12499e-09
149 1 12.5784 9.4345 3.15401 -8.93812 1.50536e-09
150 1 14.1509 11.007 4.74325 -8.90302 1.12469e-09
151 1 15.7233 9.4345 3.15413 -8.9381 1.50406e-09
152 1 17.2957 11.007 4.74344 -8.90301 1.12401e-09
153 1 18.8681 9.43451 3.15428 -8.93808 1.503e-09
154 1 20.4405 11.007 4.74359 -8.90301 1.12349e-09
155 1 -0.00097185 12.5794 3.15435 -8.93807 1.50303e-09
156 1 1.5714 14.1518 4.74364 -8.90301 1.12349e-09
157 1 3.14382 12.5794 3.15428 -8.93808 1.50412e-09
158 1 4.7162 14.1518 4.7435 -8.90301 1.12406e-09
159 1 6.28864 12.5794 3.15413 -8.9381 1.50543e-09
160 1 7.86106 14.1519 4.74333 -8.90301 1.12471e-09
161 1 9.43353 12.5794 3.15401 -8.93812 1.50596e-09
162 1 11.006 14.1519 4.74325 -8.90302 1.12495e-09
163 1 12.5784 12.5794 3.15401 -8.93812 1.50536e-09
164 1 14.1509 14.1519 4.74333 -8.90301 1.12463e-09
165 1 15.7233 12.5794 3.15413 -8.9381 1.50406e-09
166 1 17.2957 14.1518 4.7435 -8.90301 1.12395e-09
167 1 18.8681 12.5794 3.15428 -8.93808 1.503e-09
168 1 20.4405 14.1518 4.74364 -8.90301 1.12343e-09
169 1 -0.000971863 15.7243 3.15442 -8.93806 1.50303e-09
170 1 1.57141 17.2967 4.74374 -8.90301 1.12341e-09
171 1 3.14382 15.7243 3.15436 -8.93807 1.50415e-09
172 1 4.71621 17.2967 4.74364 -8.90301 1.12401e-09
173 1 6.28865 15.7243 3.15424 -8.93808 1.50549e-09
174 1 7.86107 17.2967 4.7435 -8.90301 1.12468e-09
175 1 9.43353 15.7243 3.15413 -8.9381 1.50605e-09
176 1 11.006 17.2967 4.74344 -8.90301 1.12493e-09
177 1 12.5784 15.7243 3.15413 -8.9381 1.50544e-09
178 1 14.1509 17.2967 4.7435 -8.90301 1.12458e-09
179 1 15.7233 15.7243 3.15424 -8.93808 1.50409e-09
180 1 17.2957 17.2967 4.74364 -8.90301 1.12387e-09
181 1 18.8681 15.7243 3.15436 -8.93807 1.50301e-09
182 1 20.4405 17.2967 4.74374 -8.90301 1.12334e-09
183 1 -0.000971878 18.8691 3.15451 -8.93805 1.50308e-09
184 1 1.57141 20.4415 4.74383 -8.90301 1.1234e-09
185 1 3.14383 18.8691 3.15446 -8.93806 1.50422e-09
186 1 4.71623 20.4415 4.74374 -8.90301 1.12402e-09
187 1 6.28866 18.8691 3.15436 -8.93807 1.50561e-09
188 1 7.86108 20.4415 4.74364 -8.90301 1.12472e-09
189 1 9.43353 18.8691 3.15428 -8.93808 1.50621e-09
190 1 11.006 20.4415 4.74359 -8.90301 1.12499e-09
191 1 12.5784 18.8691 3.15428 -8.93808 1.50559e-09
192 1 14.1509 20.4415 4.74364 -8.90301 1.12461e-09
193 1 15.7233 18.8691 3.15436 -8.93807 1.50419e-09
194 1 17.2957 20.4415 4.74374 -8.90301 1.12386e-09
195 1 18.8681 18.8691 3.15446 -8.93806 1.50306e-09
196 1 20.4405 20.4415 4.74383 -8.90301 1.12332e-09
197 1 -0.00100317 -1.43067e-16 6.3056 -8.88811 6.86557e-10
198 1 1.57136 1.57238 7.87482 -8.90467 3.36704e-10
199 1 3.14378 -1.07999e-16 6.30555 -8.88811 6.8691e-10
200 1 4.71615 1.57237 7.8747 -8.90467 3.37146e-10
201 1 6.28861 -9.51962e-16 6.30544 -8.88812 6.87629e-10
202 1 7.86101 1.57235 7.87456 -8.90467 3.37721e-10
203 1 9.43349 -1.70063e-15 6.30534 -8.88812 6.88191e-10
204 1 11.0059 1.57235 7.87449 -8.90467 3.37998e-10
205 1 12.5784 -1.70628e-15 6.30534 -8.88812 6.88172e-10
206 1 14.1508 1.57235 7.87456 -8.90467 3.37743e-10
207 1 15.7233 -1.57408e-15 6.30544 -8.88812 6.87568e-10
208 1 17.2957 1.57237 7.8747 -8.90467 3.37149e-10
209 1 18.8681 -7.18292e-16 6.30555 -8.88811 6.86841e-10
210 1 20.4405 1.57238 7.87482 -8.90467 3.36696e-10
211 1 -0.00100316 3.14479 6.30555 -8.88811 6.86563e-10
212 1 1.57135 4.71717 7.8747 -8.90467 3.36692e-10
213 1 3.14377 3.14478 6.30549 -8.88811 6.86902e-10
214 1 4.71612 4.71714 7.87454 -8.90466 3.37119e-10
215 1 6.2886 3.14476 6.30535 -8.88812 6.87613e-10
216 1 7.86098 4.7171 7.87433 -8.90467 3.37711e-10
217 1 9.43349 3.14474 6.30524 -8.88812 6.88173e-10
218 1 11.0059 4.71708 7.87423 -8.90467 3.38001e-10
219 1 12.5784 3.14474 6.30524 -8.88812 6.88159e-10
220 1 14.1509 4.7171 7.87433 -8.90467 3.37748e-10
221 1 15.7233 3.14476 6.30535 -8.88812 6.87563e-10
222 1 17.2957 4.71714 7.87454 -8.90466 3.3714e-10
223 1 18.8681 3.14478 6.30549 -8.88811 6.86842e-10
224 1 20.4405 4.71717 7.8747 -8.90467 3.36692e-10
225 1 -0.00100314 6.28962 6.30544 -8.88812 6.86662e-10
226 1 1.57133 7.86203 7.87456 -8.90467 3.36807e-10
227 1 3.14375 6.2896 6.30535 -8.88812 6.86986e-10
228 1 4.71607 7.862 7.87433 -8.90467 3.37257e-10
229 1 6.28857 6.28957 6.30515 -8.88812 6.87683e-10
230 1 7.86094 7.86196 7.87401 -8.90469 3.37881e-10
231 1 9.43347 6.28955 6.30499 -8.88813 6.88234e-10
232 1 11.0059 7.86194 7.87386 -8.90471 3.3818e-10
233 1 12.5784 6.28955 6.30499 -8.88813 6.88231e-10
234 1 14.1509 7.86196 7.87401 -8.90469 3.37936e-10
235 1 15.7233 6.28957 6.30515 -8.88812 6.87657e-10
236 1 17.2958 7.862 7.87433 -8.90467 3.37304e-10
237 1 18.8681 6.2896 6.30535 -8.88812 6.86946e-10
238 1 20.4405 7.86203 7.87456 -8.90467 3.3682e-10
239 1 -0.00100312 9.4345 6.30534 -8.88812 6.86816e-10
240 1 1.57132 11.007 7.87449 -8.90467 3.36901e-10
241 1 3.14374 9.43449 6.30524 -8.88812 6.87142e-10
242 1 4.71606 11.007 7.87423 -8.90467 3.37377e-10
243 1 6.28855 9.43448 6.30499 -8.88813 6.87852e-10
244 1 7.86092 11.007 7.87386 -8.90471 3.38032e-10
245 1 9.43346 9.43447 6.30478 -8.88815 6.88398e-10
246 1 11.0059 11.007 7.87367 -8.90475 3.38335e-10
247 1 12.5784 9.43447 6.30478 -8.88815 6.88402e-10
248 1 14.1509 11.007 7.87386 -8.90471 3.38095e-10
249 1 15.7233 9.43448 6.30499 -8.88813 6.87845e-10
250 1 17.2958 11.007 7.87423 -8.90467 3.37435e-10
251 1 18.8682 9.43449 6.30524 -8.88812 6.87119e-10
252 1 20.4405 11.007 7.87449 -8.90467 3.36919e-10
253 1 -0.00100312 12.5794 6.30534 -8.88812 6.86816e-10
254 1 1.57133 14.1519 7.87456 -8.90467 3.36807e-10
255 1 3.14374 12.5794 6.30524 -8.88812 6.87142e-10
256 1 4.71607 14.1519 7.87433 -8.90467 3.37257e-10
257 1 6.28855 12.5794 6.30499 -8.88813 6.87852e-10
258 1 7.86094 14.1519 7.87401 -8.90469 3.37881e-10
259 1 9.43346 12.5794 6.30478 -8.88815 6.88398e-10
260 1 11.0059 14.152 7.87386 -8.90471 3.3818e-10
261 1 12.5784 12.5794 6.30478 -8.88815 6.88402e-10
262 1 14.1509 14.1519 7.87401 -8.90469 3.37936e-10
263 1 15.7233 12.5794 6.30499 -8.88813 6.87845e-10
264 1 17.2958 14.1519 7.87433 -8.90467 3.37304e-10
265 1 18.8682 12.5794 6.30524 -8.88812 6.87119e-10
266 1 20.4405 14.1519 7.87456 -8.90467 3.3682e-10
267 1 -0.00100314 15.7243 6.30544 -8.88812 6.86662e-10
268 1 1.57135 17.2967 7.8747 -8.90467 3.36692e-10
269 1 3.14375 15.7243 6.30535 -8.88812 6.86986e-10
270 1 4.71612 17.2968 7.87454 -8.90466 3.37119e-10
271 1 6.28857 15.7243 6.30515 -8.88812 6.87683e-10
272 1 7.86098 17.2968 7.87433 -8.90467 3.37711e-10
273 1 9.43347 15.7244 6.30499 -8.88813 6.88234e-10
274 1 11.0059 17.2968 7.87423 -8.90467 3.38001e-10
275 1 12.5784 15.7244 6.30499 -8.88813 6.88231e-10
276 1 14.1509 17.2968 7.87433 -8.90467 3.37748e-10
277 1 15.7233 15.7243 6.30515 -8.88812 6.87657e-10
278 1 17.2957 17.2968 7.87454 -8.90466 3.3714e-10
279 1 18.8681 15.7243 6.30535 -8.88812 6.86946e-10
280 1 20.4405 17.2967 7.8747 -8.90467 3.36692e-10
281 1 -0.00100316 18.8691 6.30555 -8.88811 6.86563e-10
282 1 1.57136 20.4415 7.87482 -8.90467 3.36704e-10
283 1 3.14377 18.8691 6.30549 -8.88811 6.86902e-10
284 1 4.71615 20.4415 7.8747 -8.90467 3.37146e-10
285 1 6.2886 18.8691 6.30535 -8.88812 6.87613e-10
286 1 7.86101 20.4415 7.87456 -8.90467 3.37721e-10
287 1 9.43349 18.8692 6.30524 -8.88812 6.88173e-10
288 1 11.0059 20.4416 7.87449 -8.90467 3.37998e-10
289 1 12.5784 18.8692 6.30524 -8.88812 6.88159e-10
290 1 14.1508 20.4415 7.87456 -8.90467 3.37743e-10
291 1 15.7233 18.8691 6.30535 -8.88812 6.87563e-10
292 1 17.2957 20.4415 7.8747 -8.90467 3.37149e-10
293 1 18.8681 18.8691 6.30549 -8.88811 6.86842e-10
294 1 20.4405 20.4415 7.87482 -8.90467 3.36696e-10
295 1 -0.00104495 -1.32324e-15 9.44319 -8.89866 8.83527e-11
296 1 1.57131 1.57237 11.0113 -8.9001 4.76403e-14
297 1 3.14372 -2.02104e-15 9.44312 -8.89865 8.85354e-11
298 1 4.71608 1.57234 11.0112 -8.90009 5.90495e-14
299 1 6.28854 -3.49038e-15 9.44296 -8.89865 8.88969e-11
300 1 7.86094 1.57231 11.011 -8.90009 4.29187e-14
301 1 9.43344 -5.35195e-15 9.44283 -8.89865 8.91829e-11
302 1 11.0059 1.57229 11.0109 -8.90009 3.33909e-14
303 1 12.5784 -5.28685e-15 9.44283 -8.89865 8.91609e-11
304 1 14.1508 1.57231 11.011 -8.90009 3.28628e-14
305 1 15.7233 -3.43581e-15 9.44296 -8.89865 8.88278e-11
306 1 17.2957 1.57234 11.0112 -8.90009 2.15644e-14
307 1 18.8681 -1.81671e-15 9.44312 -8.89865 8.84604e-11
308 1 20.4405 1.57237 11.0113 -8.9001 2.23292e-14
309 1 -0.00104495 3.14476 9.44312 -8.89865 8.82945e-11
310 1 1.57128 4.71715 11.0112 -8.90009 3.15783e-14
311 1 3.1437 3.14474 9.44304 -8.89865 8.84684e-11
312 1 4.716 4.71707 11.0109 -8.90006 4.28866e-14
313 1 6.28851 3.14469 9.44283 -8.89864 8.88385e-11
314 1 7.86086 4.71696 11.0106 -8.90007 3.27985e-14
315 1 9.43342 3.14465 9.44265 -8.89865 8.91423e-11
316 1 11.0059 4.71692 11.0104 -8.90008 3.37396e-14
317 1 12.5784 3.14465 9.44265 -8.89865 8.91247e-11
318 1 14.1509 4.71696 11.0106 -8.90007 4.1285e-14
319 1 15.7233 3.14469 9.44283 -8.89864 8.87789e-11
320 1 17.2958 4.71707 11.0109 -8.90006 2.62854e-14
321 1 18.8681 3.14474 9.44304 -8.89865 8.84003e-11
322 1 20.4405 4.71715 11.0112 -8.90009 1.49183e-14
323 1 -0.00104493 6.28958 9.44296 -8.89865 8.82673e-11
324 1 1.57124 7.86201 11.011 -8.90009 1.92534e-14
325 1 3.14365 6.28955 9.44283 -8.89864 8.84363e-11
326 1 4.71589 7.86193 11.0106 -8.90007 2.8012e-14
327 1 6.28843 6.28947 9.44248 -8.89864 8.88201e-11
328 1 7.86074 7.8618 11.0099 -8.90011 2.91136e-14
329 1 9.43338 6.28941 9.44217 -8.89865 8.91653e-11
330 1 11.0059 7.86175 11.0096 -8.90015 4.59318e-14
331 1 12.5784 6.28941 9.44217 -8.89865 8.91585e-11
332 1 14.151 7.8618 11.0099 -8.90011 6.0116e-14
333 1 15.7234 6.28947 9.44248 -8.89864 8.87851e-11
334 1 17.2959 7.86193 11.0106 -8.90007 4.06898e-14
335 1 18.8682 6.28955 9.44283 -8.89864 8.83882e-11
336 1 20.4405 7.86201 11.011 -8.90009 1.52332e-14
337 1 -0.00104491 9.43448 9.44283 -8.89865 8.8331e-11
338 1 1.57122 11.007 11.0109 -8.90009 1.6768e-14
339 1 3.14361 9.43447 9.44265 -8.89865 8.85163e-11
340 1 4.71585 11.007 11.0104 -8.90008 2.45755e-14
341 1 6.28837 9.43443 9.44217 -8.89865 8.89551e-11
342 1 7.86068 11.007 11.0096 -8.90015 3.30463e-14
343 1 9.43335 9.43439 9.44171 -8.89872 8.9343e-11
344 1 11.0059 11.007 11.0091 -8.90037 5.68687e-14
345 1 12.5785 9.43439 9.44171 -8.89872 8.93432e-11
346 1 14.1511 11.007 11.0096 -8.90015 7.03177e-14
347 1 15.7234 9.43443 9.44217 -8.89865 8.89401e-11
348 1 17.2959 11.007 11.0104 -8.90008 4.90601e-14
349 1 18.8682 9.43447 9.44265 -8.89865 8.84858e-11
350 1 20.4405 11.007 11.0109 -8.90009 1.82989e-14
351 1 -0.00104491 12.5794 9.44283 -8.89865 8.8331e-11
352 1 1.57124 14.1519 11.011 -8.90009 1.92534e-14
353 1 3.14361 12.5794 9.44265 -8.89865 8.85163e-11
354 1 4.71589 14.152 11.0106 -8.90007 2.8012e-14
355 1 6.28837 12.5795 9.44217 -8.89865 8.89551e-11
356 1 7.86074 14.1521 11.0099 -8.90011 2.91136e-14
357 1 9.43335 12.5795 9.44171 -8.89872 8.9343e-11
358 1 11.0059 14.1522 11.0096 -8.90015 4.59318e-14
359 1 12.5785 12.5795 9.44171 -8.89872 8.93432e-11
360 1 14.151 14.1521 11.0099 -8.90011 6.01159e-14
361 1 15.7234 12.5795 9.44217 -8.89865 8.89401e-11
362 1 17.2959 14.152 11.0106 -8.90007 4.06898e-14
363 1 18.8682 12.5794 9.44265 -8.89865 8.84858e-11
364 1 20.4405 14.1519 11.011 -8.90009 1.52332e-14
365 1 -0.00104493 15.7243 9.44296 -8.89865 8.82673e-11
366 1 1.57128 17.2968 11.0112 -8.90009 3.15783e-14
367 1 3.14365 15.7243 9.44283 -8.89864 8.84363e-11
368 1 4.716 17.2968 11.0109 -8.90006 4.28866e-14
369 1 6.28843 15.7244 9.44248 -8.89864 8.88201e-11
370 1 7.86086 17.2969 11.0106 -8.90007 3.27984e-14
371 1 9.43338 15.7245 9.44217 -8.89865 8.91653e-11
372 1 11.0059 17.297 11.0104 -8.90008 3.37397e-14
373 1 12.5784 15.7245 9.44217 -8.89865 8.91585e-11
374 1 14.1509 17.2969 11.0106 -8.90007 4.1285e-14
375 1 15.7234 15.7244 9.44248 -8.89864 8.87851e-11
376 1 17.2958 17.2968 11.0109 -8.90006 2.62854e-14
377 1 18.8682 15.7243 9.44283 -8.89864 8.83882e-11
378 1 20.4405 17.2968 11.0112 -8.90009 1.49183e-14
379 1 -0.00104495 18.8691 9.44312 -8.89865 8.82945e-11
380 1 1.57131 20.4415 11.0113 -8.9001 4.76403e-14
381 1 3.1437 18.8692 9.44304 -8.89865 8.84684e-11
382 1 4.71608 20.4416 11.0112 -8.90009 5.90495e-14
383 1 6.28851 18.8692 9.44283 -8.89864 8.88385e-11
384 1 7.86094 20.4416 11.011 -8.90009 4.29187e-14
385 1 9.43342 18.8692 9.44265 -8.89865 8.91423e-11
386 1 11.0059 20.4416 11.0109 -8.90009 3.33909e-14
387 1 12.5784 18.8692 9.44265 -8.89865 8.91247e-11
388 1 14.1508 20.4416 11.011 -8.90009 3.28628e-14
389 1 15.7233 18.8692 9.44283 -8.89864 8.87789e-11
390 1 17.2957 20.4416 11.0112 -8.90009 2.15644e-14
391 1 18.8681 18.8692 9.44304 -8.89865 8.84003e-11
392 1 20.4405 20.4415 11.0113 -8.9001 2.23292e-14
393 1 -0.00109101 -3.91777e-15 12.5796 -8.89868 8.35966e-11
394 1 3.14369 -6.75747e-15 12.5795 -8.89867 8.3424e-11
395 1 6.2885 -1.08212e-14 12.5793 -8.89867 8.29661e-11
396 1 9.43339 -1.33473e-14 12.5791 -8.89868 8.25674e-11
397 1 12.5783 -1.26642e-14 12.5791 -8.89868 8.26437e-11
398 1 15.7232 -9.74883e-15 12.5793 -8.89867 8.31173e-11
399 1 18.868 -5.71223e-15 12.5795 -8.89867 8.35254e-11
400 1 22.0128 3.14478 12.5795 -8.89867 8.38178e-11
401 1 3.14365 3.14474 12.5794 -8.89866 8.3656e-11
402 1 6.28843 3.14464 12.5791 -8.89864 8.31925e-11
403 1 9.43336 3.14455 12.5788 -8.89865 8.27436e-11
404 1 12.5784 3.14455 12.5788 -8.89865 8.28284e-11
405 1 15.7233 3.14464 12.5791 -8.89864 8.33611e-11
406 1 18.8681 3.14474 12.5794 -8.89866 8.37693e-11
407 1 22.0128 6.28959 12.5793 -8.89867 8.41061e-11
408 1 3.14355 6.28952 12.5791 -8.89864 8.39548e-11
409 1 6.28824 6.28933 12.5785 -8.89854 8.35322e-11
410 1 9.43325 6.28917 12.5779 -8.8986 8.29312e-11
411 1 12.5785 6.28917 12.5779 -8.8986 8.30355e-11
412 1 15.7235 6.28933 12.5785 -8.89854 8.37439e-11
413 1 18.8682 6.28952 12.5791 -8.89864 8.40965e-11
414 1 22.0128 9.43448 12.5791 -8.89868 8.41542e-11
415 1 3.14346 9.43445 12.5788 -8.89865 8.39365e-11
416 1 6.28808 9.43434 12.5779 -8.8986 8.33541e-11
417 1 9.43312 9.43421 12.5768 -8.89878 8.26258e-11
418 1 12.5786 9.43421 12.5768 -8.89878 8.27337e-11
419 1 15.7236 9.43434 12.5779 -8.8986 8.35897e-11
420 1 18.8683 9.43445 12.5788 -8.89865 8.40985e-11
421 1 22.0128 12.5794 12.5791 -8.89868 8.41542e-11
422 1 3.14346 12.5795 12.5788 -8.89865 8.39365e-11
423 1 6.28808 12.5796 12.5779 -8.8986 8.33541e-11
424 1 9.43312 12.5797 12.5768 -8.89878 8.26258e-11
425 1 12.5786 12.5797 12.5768 -8.89878 8.27337e-11
426 1 15.7236 12.5796 12.5779 -8.8986 8.35897e-11
427 1 18.8683 12.5795 12.5788 -8.89865 8.40985e-11
428 1 22.0128 15.7243 12.5793 -8.89867 8.41061e-11
429 1 3.14355 15.7244 12.5791 -8.89864 8.39548e-11
430 1 6.28824 15.7246 12.5785 -8.89854 8.35322e-11
431 1 9.43325 15.7247 12.5779 -8.8986 8.29312e-11
432 1 12.5785 15.7247 12.5779 -8.8986 8.30355e-11
433 1 15.7235 15.7246 12.5785 -8.89854 8.37439e-11
434 1 18.8682 15.7244 12.5791 -8.89864 8.40965e-11
435 1 22.0128 18.8691 12.5795 -8.89867 8.38178e-11
436 1 3.14365 18.8692 12.5794 -8.89866 8.3656e-11
437 1 6.28843 18.8693 12.5791 -8.89864 8.31925e-11
438 1 9.43336 18.8693 12.5788 -8.89865 8.27436e-11
439 1 12.5784 18.8693 12.5788 -8.89865 8.28284e-11
440 1 15.7233 18.8693 12.5791 -8.89864 8.33611e-11
441 1 18.8681 18.8692 12.5794 -8.89866 8.37693e-11
442 1 1.5713 1.57241 14.1479 -8.9047 3.27771e-10
443 1 4.7161 1.57237 14.1478 -8.90468 3.27223e-10
444 1 7.86093 1.5723 14.1475 -8.9047 3.26213e-10
445 1 11.0058 1.57227 14.1474 -8.9047 3.2582e-10
446 1 14.1507 1.5723 14.1475 -8.9047 3.26564e-10
447 1 17.2956 1.57237 14.1478 -8.90468 3.27633e-10
448 1 20.4404 1.57241 14.1479 -8.9047 3.27943e-10
449 1 1.57126 4.71722 14.1478 -8.90468 3.2889e-10
450 1 4.71597 4.71708 14.1475 -8.90465 3.28608e-10
451 1 7.86076 4.71685 14.1469 -8.90465 3.2737e-10
452 1 11.0058 4.71676 14.1466 -8.90466 3.26757e-10
453 1 14.1509 4.71685 14.1469 -8.90465 3.27768e-10
454 1 17.2957 4.71708 14.1475 -8.90465 3.29071e-10
455 1 20.4404 4.71722 14.1478 -8.90468 3.2908e-10
456 1 1.57119 7.86204 14.1475 -8.9047 3.29619e-10
457 1 4.71574 7.86188 14.1469 -8.90465 3.29245e-10
458 1 7.86039 7.8615 14.1455 -8.9044 3.28114e-10
459 1 11.0058 7.86138 14.1447 -8.90466 3.26909e-10
460 1 14.1513 7.8615 14.1455 -8.9044 3.28568e-10
461 1 17.2959 7.86188 14.1469 -8.90465 3.29759e-10
462 1 20.4405 7.86204 14.1475 -8.9047 3.29828e-10
463 1 1.57116 11.007 14.1474 -8.9047 3.29696e-10
464 1 4.71565 11.007 14.1466 -8.90466 3.29045e-10
465 1 7.86026 11.007 14.1447 -8.90466 3.27409e-10
466 1 11.0058 11.007 14.1432 -8.90674 3.25938e-10
467 1 14.1514 11.007 14.1447 -8.90466 3.27865e-10
468 1 17.296 11.007 14.1466 -8.90466 3.29573e-10
469 1 20.4405 11.007 14.1474 -8.9047 3.29912e-10
470 1 1.57119 14.1519 14.1475 -8.9047 3.29619e-10
471 1 4.71574 14.152 14.1469 -8.90465 3.29245e-10
472 1 7.86039 14.1524 14.1455 -8.9044 3.28114e-10
473 1 11.0058 14.1525 14.1447 -8.90466 3.26909e-10
474 1 14.1513 14.1524 14.1455 -8.9044 3.28568e-10
475 1 17.2959 14.152 14.1469 -8.90465 3.29759e-10
476 1 20.4405 14.1519 14.1475 -8.9047 3.29828e-10
477 1 1.57126 17.2967 14.1478 -8.90468 3.2889e-10
478 1 4.71597 17.2968 14.1475 -8.90465 3.28608e-10
479 1 7.86076 17.297 14.1469 -8.90465 3.2737e-10
480 1 11.0058 17.2971 14.1466 -8.90466 3.26757e-10
481 1 14.1509 17.297 14.1469 -8.90465 3.27768e-10
482 1 17.2957 17.2968 14.1475 -8.90465 3.29071e-10
483 1 20.4404 17.2967 14.1478 -8.90468 3.2908e-10
484 1 1.5713 20.4415 14.1479 -8.9047 3.27771e-10
485 1 4.7161 20.4415 14.1478 -8.90468 3.27223e-10
486 1 7.86093 20.4416 14.1475 -8.9047 3.26213e-10
487 1 11.0058 20.4416 14.1474 -8.9047 3.2582e-10
488 1 14.1507 20.4416 14.1475 -8.9047 3.26564e-10
489 1 17.2956 20.4415 14.1478 -8.90468 3.27633e-10
490 1 20.4404 20.4415 14.1479 -8.9047 3.27943e-10
491 1 22.0128 -5.45449e-15 15.7172 -8.88818 6.75038e-10
492 1 1.5714 1.57255 17.279 -8.90297 1.11106e-09
493 1 3.14379 -9.31464e-15 15.7172 -8.88819 6.74496e-10
494 1 4.7164 1.5726 17.279 -8.90302 1.11014e-09
495 1 6.28861 -1.59739e-14 15.7171 -8.88817 6.73503e-10
496 1 7.86112 1.57254 17.2788 -8.9031 1.10877e-09
497 1 9.43341 -1.95342e-14 15.7169 -8.8882 6.72424e-10
498 1 11.0058 1.5725 17.2787 -8.90309 1.1079e-09
499 1 12.5782 -1.74302e-14 15.7169 -8.8882 6.72626e-10
500 1 14.1505 1.57254 17.2788 -8.9031 1.10906e-09
501 1 15.723 -1.23879e-14 15.7171 -8.88817 6.73931e-10
502 1 17.2952 1.5726 17.279 -8.90302 1.11047e-09
503 1 18.8678 -7.86303e-15 15.7172 -8.88819 6.74811e-10
504 1 20.4402 1.57255 17.279 -8.90297 1.11119e-09
505 1 22.0128 3.14492 15.7172 -8.88819 6.76032e-10
506 1 1.57145 4.71755 17.279 -8.90302 1.11389e-09
507 1 3.14377 3.14491 15.7171 -8.88818 6.75497e-10
508 1 4.71649 4.71764 17.2789 -8.90324 1.11325e-09
509 1 6.28854 3.14478 15.7169 -8.88809 6.74862e-10
510 1 7.86096 4.71722 17.2782 -8.90292 1.1136e-09
511 1 9.43337 3.14464 15.7165 -8.88817 6.73554e-10
512 1 11.0058 4.71706 17.2777 -8.90284 1.1118e-09
513 1 12.5783 3.14464 15.7165 -8.88817 6.73775e-10
514 1 14.1506 4.71722 17.2782 -8.90292 1.11399e-09
515 1 15.7231 3.14478 15.7169 -8.88809 6.75329e-10
516 1 17.2951 4.71764 17.2789 -8.90324 1.11363e-09
517 1 18.8679 3.14491 15.7171 -8.88818 6.75831e-10
518 1 20.4401 4.71755 17.279 -8.90302 1.11404e-09
519 1 22.0128 6.28974 15.7171 -8.88817 6.78211e-10
520 1 1.57139 7.86227 17.2788 -8.9031 1.11717e-09
521 1 3.14365 6.28967 15.7169 -8.88809 6.78134e-10
522 1 4.71607 7.86211 17.2782 -8.90292 1.11853e-09
523 1 6.28822 6.28936 15.7161 -8.8877 6.78954e-10
524 1 7.8599 7.86105 17.2759 -8.90267 1.12104e-09
525 1 9.43314 6.28897 15.7149 -8.88787 6.76241e-10
526 1 11.0058 7.86102 17.2737 -8.90497 1.11562e-09
527 1 12.5785 6.28897 15.7149 -8.88787 6.76514e-10
528 1 14.1517 7.86105 17.2759 -8.90267 1.12168e-09
529 1 15.7234 6.28936 15.7161 -8.8877 6.79554e-10
530 1 17.2955 7.86211 17.2782 -8.90292 1.11907e-09
531 1 18.868 6.28967 15.7169 -8.88809 6.78535e-10
532 1 20.4402 7.86227 17.2788 -8.9031 1.11736e-09
533 1 22.0128 9.43454 15.7169 -8.8882 6.79224e-10
534 1 1.57135 11.007 17.2787 -8.90309 1.11807e-09
535 1 3.1435 9.4345 15.7165 -8.88817 6.79035e-10
536 1 4.71591 11.007 17.2777 -8.90284 1.11906e-09
537 1 6.28784 9.43427 15.7149 -8.88787 6.79053e-10
538 1 7.85987 11.007 17.2737 -8.90497 1.11966e-09
539 1 9.43255 9.43369 15.7118 -8.88714 6.7545e-10
540 1 11.0058 11.007 17.2662 -8.91709 1.11874e-09
541 1 12.5791 9.43369 15.7118 -8.88714 6.75718e-10
542 1 14.1517 11.007 17.2737 -8.90497 1.12031e-09
543 1 15.7238 9.43427 15.7149 -8.88787 6.79684e-10
544 1 17.2957 11.007 17.2777 -8.90284 1.11963e-09
545 1 18.8681 9.4345 15.7165 -8.88817 6.79473e-10
546 1 20.4402 11.007 17.2787 -8.90309 1.11829e-09
547 1 22.0128 12.5794 15.7169 -8.8882 6.79224e-10
548 1 1.57139 14.1516 17.2788 -8.9031 1.11717e-09
549 1 3.1435 12.5794 15.7165 -8.88817 6.79035e-10
550 1 4.71607 14.1518 17.2782 -8.90292 1.11853e-09
551 1 6.28784 12.5796 15.7149 -8.88787 6.79053e-10
552 1 7.8599 14.1529 17.2759 -8.90267 1.12104e-09
553 1 9.43255 12.5802 15.7118 -8.88714 6.7545e-10
554 1 11.0058 14.1529 17.2737 -8.90497 1.11562e-09
555 1 12.5791 12.5802 15.7118 -8.88714 6.75718e-10
556 1 14.1517 14.1529 17.2759 -8.90267 1.12168e-09
557 1 15.7238 12.5796 15.7149 -8.88787 6.79684e-10
558 1 17.2955 14.1518 17.2782 -8.90292 1.11907e-09
559 1 18.8681 12.5794 15.7165 -8.88817 6.79473e-10
560 1 20.4402 14.1516 17.2788 -8.9031 1.11736e-09
561 1 22.0128 15.7242 15.7171 -8.88817 6.78211e-10
562 1 1.57145 17.2964 17.279 -8.90302 1.11389e-09
563 1 3.14365 15.7242 15.7169 -8.88809 6.78134e-10
564 1 4.71649 17.2963 17.2789 -8.90324 1.11325e-09
565 1 6.28822 15.7245 15.7161 -8.8877 6.78954e-10
566 1 7.86096 17.2967 17.2782 -8.90292 1.1136e-09
567 1 9.43314 15.7249 15.7149 -8.88787 6.76241e-10
568 1 11.0058 17.2968 17.2777 -8.90284 1.1118e-09
569 1 12.5785 15.7249 15.7149 -8.88787 6.76514e-10
570 1 14.1506 17.2967 17.2782 -8.90292 1.11399e-09
571 1 15.7234 15.7245 15.7161 -8.8877 6.79554e-10
572 1 17.2951 17.2963 17.2789 -8.90324 1.11363e-09
573 1 18.868 15.7242 15.7169 -8.88809 6.78535e-10
574 1 20.4401 17.2964 17.279 -8.90302 1.11404e-09
575 1 22.0128 18.869 15.7172 -8.88819 6.76032e-10
576 1 1.5714 20.4413 17.279 -8.90297 1.11106e-09
577 1 3.14377 18.869 15.7171 -8.88818 6.75497e-10
578 1 4.7164 20.4413 17.279 -8.90302 1.11014e-09
579 1 6.28854 18.8691 15.7169 -8.88809 6.74862e-10
580 1 7.86112 20.4414 17.2788 -8.9031 1.10877e-09
581 1 9.43337 18.8693 15.7165 -8.88817 6.73554e-10
582 1 11.0058 20.4414 17.2787 -8.90309 1.1079e-09
583 1 12.5783 18.8693 15.7165 -8.88817 6.73775e-10