ITEM: TIMESTEP
214
ITEM: NUMBER OF ATOMS
736
ITEM: BOX BOUNDS pp pp pp
0.0000000000000000e+00 2.2013900999999997e+01
0.0000000000000000e+00 2.2013900999999997e+01
0.0000000000000000e+00 5.3462330999999999e+01
ITEM: ATOMS id type x y z c_pot c_ke
1 1 -0.000667042 -6.52128e-16 0.0976238 -7.40188 1.55151e-07
2 1 1.57171 1.5724 1.6244 -8.68379 1.4346e-07
3 1 3.14413 -3.39819e-16 0.0975964 -7.40187 1.62098e-07
4 1 4.71652 1.5724 1.62434 -8.68379 1.46921e-07
5 1 6.28896 1.67227e-16 0.0975394 -7.40185 1.67004e-07
6 1 7.86138 1.57239 1.62426 -8.68378 1.4781e-07
7 1 9.43384 9.78481e-16 0.0974957 -7.40183 1.6629e-07
8 1 11.0063 1.57239 1.62423 -8.68378 1.45707e-07
9 1 12.5787 1.14037e-15 0.0974982 -7.40183 1.60475e-07
10 1 14.1511 1.57239 1.62427 -8.68378 1.41914e-07
11 1 15.7236 5.42291e-16 0.0975449 -7.40185 1.53833e-07
12 1 17.296 1.5724 1.62435 -8.68379 1.39163e-07
13 1 18.8684 -1.52373e-16 0.0976009 -7.40187 1.51429e-07
14 1 20.4408 1.5724 1.62441 -8.68379 1.39863e-07
15 1 -0.000667333 3.14479 0.0975987 -7.40187 1.54066e-07
16 1 1.57171 4.71721 1.62434 -8.68379 1.41324e-07
17 1 3.14412 3.14479 0.0975686 -7.40186 1.60984e-07
18 1 4.71652 4.7172 1.62426 -8.68378 1.44844e-07
19 1 6.28895 3.14478 0.0975052 -7.40184 1.65952e-07
20 1 7.86137 4.7172 1.62416 -8.68377 1.45989e-07
21 1 9.43384 3.14477 0.0974564 -7.40182 1.65344e-07
22 1 11.0063 4.71719 1.62412 -8.68377 1.4415e-07
23 1 12.5787 3.14477 0.0974589 -7.40182 1.596e-07
24 1 14.1512 4.7172 1.62417 -8.68377 1.40428e-07
25 1 15.7236 3.14478 0.0975108 -7.40184 1.5294e-07
26 1 17.296 4.7172 1.62427 -8.68378 1.375e-07
27 1 18.8684 3.14479 0.097573 -7.40186 1.50442e-07
28 1 20.4408 4.71721 1.62434 -8.68379 1.3791e-07
29 1 -0.000667986 6.28962 0.0975425 -7.40185 1.51707e-07
30 1 1.5717 7.86207 1.62426 -8.68378 1.38919e-07
31 1 3.14411 6.28962 0.097506 -7.40184 1.58561e-07
32 1 4.71651 7.86206 1.62416 -8.68377 1.42512e-07
33 1 6.28894 6.28961 0.0974281 -7.40181 1.63668e-07
34 1 7.86136 7.86205 1.62404 -8.68377 1.43979e-07
35 1 9.43383 6.2896 0.0973673 -7.40178 1.63298e-07
36 1 11.0063 7.86205 1.62399 -8.68376 1.42473e-07
37 1 12.5787 6.2896 0.0973697 -7.40178 1.57714e-07
38 1 14.1512 7.86205 1.62405 -8.68377 1.38843e-07
39 1 15.7236 6.28961 0.0974336 -7.40181 1.51012e-07
40 1 17.296 7.86206 1.62417 -8.68377 1.35692e-07
41 1 18.8685 6.28962 0.0975104 -7.40184 1.48303e-07
42 1 20.4408 7.86207 1.62426 -8.68378 1.35736e-07
43 1 -0.000668509 9.4345 0.0974975 -7.40183 1.49894e-07
44 1 1.5717 11.007 1.62423 -8.68378 1.37941e-07
45 1 3.14411 9.4345 0.0974559 -7.40182 1.56696e-07
46 1 4.7165 11.007 1.62412 -8.68377 1.41566e-07
47 1 6.28893 9.43449 0.0973659 -7.40178 1.61914e-07
48 1 7.86136 11.007 1.62399 -8.68376 1.43178e-07
49 1 9.43383 9.43449 0.0972949 -7.40176 1.61737e-07
50 1 11.0063 11.007 1.62393 -8.68376 1.41822e-07
51 1 12.5787 9.43449 0.0972973 -7.40176 1.5628e-07
52 1 14.1512 11.007 1.62399 -8.68376 1.38232e-07
53 1 15.7236 9.43449 0.0973714 -7.40178 1.49545e-07
54 1 17.296 11.007 1.62413 -8.68377 1.34982e-07
55 1 18.8685 9.4345 0.0974603 -7.40182 1.46667e-07
56 1 20.4408 11.007 1.62423 -8.68378 1.34863e-07
57 1 -0.000668509 12.5794 0.0974975 -7.40183 1.49894e-07
58 1 1.5717 14.1518 1.62426 -8.68378 1.38919e-07
59 1 3.14411 12.5794 0.0974559 -7.40182 1.56696e-07
60 1 4.71651 14.1518 1.62416 -8.68377 1.42512e-07
61 1 6.28893 12.5794 0.0973659 -7.40178 1.61914e-07
62 1 7.86136 14.1518 1.62404 -8.68377 1.43979e-07
63 1 9.43383 12.5794 0.0972949 -7.40176 1.61737e-07
64 1 11.0063 14.1519 1.62399 -8.68376 1.42473e-07
65 1 12.5787 12.5794 0.0972973 -7.40176 1.5628e-07
66 1 14.1512 14.1518 1.62405 -8.68377 1.38843e-07
67 1 15.7236 12.5794 0.0973714 -7.40178 1.49545e-07
68 1 17.296 14.1518 1.62417 -8.68377 1.35692e-07
69 1 18.8685 12.5794 0.0974603 -7.40182 1.46667e-07
70 1 20.4408 14.1518 1.62426 -8.68378 1.35736e-07
71 1 -0.000667986 15.7243 0.0975425 -7.40185 1.51707e-07
72 1 1.57171 17.2967 1.62434 -8.68379 1.41324e-07
73 1 3.14411 15.7243 0.097506 -7.40184 1.58561e-07
74 1 4.71652 17.2967 1.62426 -8.68378 1.44844e-07
75 1 6.28894 15.7243 0.0974281 -7.40181 1.63668e-07
76 1 7.86137 17.2967 1.62416 -8.68377 1.45989e-07
77 1 9.43383 15.7243 0.0973673 -7.40178 1.63298e-07
78 1 11.0063 17.2967 1.62412 -8.68377 1.4415e-07
79 1 12.5787 15.7243 0.0973697 -7.40178 1.57714e-07
80 1 14.1512 17.2967 1.62417 -8.68377 1.40428e-07
81 1 15.7236 15.7243 0.0974336 -7.40181 1.51012e-07
82 1 17.296 17.2967 1.62427 -8.68378 1.375e-07
83 1 18.8685 15.7243 0.0975104 -7.40184 1.48303e-07
84 1 20.4408 17.2967 1.62434 -8.68379 1.3791e-07
85 1 -0.000667333 18.8691 0.0975987 -7.40187 1.54066e-07
86 1 1.57171 20.4415 1.6244 -8.68379 1.4346e-07
87 1 3.14412 18.8691 0.0975686 -7.40186 1.60984e-07
88 1 4.71652 20.4415 1.62434 -8.68379 1.46921e-07
89 1 6.28895 18.8691 0.0975052 -7.40184 1.65952e-07
90 1 7.86138 20.4415 1.62426 -8.68378 1.4781e-07
91 1 9.43384 18.8691 0.0974564 -7.40182 1.65344e-07
92 1 11.0063 20.4415 1.62423 -8.68378 1.45707e-07
93 1 12.5787 18.8691 0.0974589 -7.40182 1.596e-07
94 1 14.1511 20.4415 1.62427 -8.68378 1.41914e-07
95 1 15.7236 18.8691 0.0975108 -7.40184 1.5294e-07
96 1 17.296 20.4415 1.62435 -8.68379 1.39163e-07
97 1 18.8684 18.8691 0.097573 -7.40186 1.50442e-07
98 1 20.4408 20.4415 1.62441 -8.68379 1.39863e-07
99 1 -0.000718406 2.79066e-16 3.15453 -8.93805 1.22302e-07
100 1 1.57163 1.5724 4.74381 -8.90301 9.46943e-08
101 1 3.14409 5.16098e-16 3.15449 -8.93805 1.24237e-07
102 1 4.71645 1.57239 4.74373 -8.90301 9.52839e-08
103 1 6.28892 6.45472e-16 3.15441 -8.93806 1.25099e-07
104 1 7.8613 1.57239 4.74363 -8.90301 9.51465e-08
105 1 9.43379 1.07496e-15 3.15434 -8.93807 1.24588e-07
106 1 11.0062 1.57238 4.74359 -8.90301 9.46629e-08
107 1 12.5787 6.63061e-16 3.15435 -8.93807 1.23069e-07
108 1 14.1511 1.57239 4.74364 -8.90301 9.39088e-08
109 1 15.7235 7.17342e-16 3.15442 -8.93806 1.21346e-07
110 1 17.2959 1.57239 4.74374 -8.90301 9.3303e-08
111 1 18.8684 6.22853e-16 3.1545 -8.93805 1.20888e-07
112 1 20.4407 1.5724 4.74382 -8.90301 9.36563e-08
113 1 -0.000718686 3.14481 3.1545 -8.93805 1.21185e-07
114 1 1.57163 4.71721 4.74373 -8.90301 9.27713e-08
115 1 3.14408 3.1448 3.15445 -8.93806 1.23084e-07
116 1 4.71643 4.7172 4.74363 -8.90301 9.3413e-08
117 1 6.28892 3.14479 3.15436 -8.93807 1.24036e-07
118 1 7.86129 4.71718 4.7435 -8.90301 9.35087e-08
119 1 9.43379 3.14479 3.15428 -8.93808 1.23673e-07
120 1 11.0062 4.71718 4.74344 -8.90301 9.32672e-08
121 1 12.5787 3.14479 3.15428 -8.93808 1.2225e-07
122 1 14.1511 4.71718 4.74351 -8.90301 9.25803e-08
123 1 15.7235 3.14479 3.15436 -8.93807 1.20497e-07
124 1 17.2959 4.7172 4.74364 -8.90301 9.18129e-08
125 1 18.8684 3.1448 3.15446 -8.93806 1.19905e-07
126 1 20.4407 4.71721 4.74374 -8.90301 9.19012e-08
127 1 -0.000719313 6.28964 3.15441 -8.93806 1.18887e-07
128 1 1.57162 7.86206 4.74363 -8.90301 9.0641e-08
129 1 3.14408 6.28963 3.15436 -8.93807 1.20705e-07
130 1 4.71642 7.86205 4.7435 -8.90301 9.13467e-08
131 1 6.28891 6.28962 3.15423 -8.93808 1.21859e-07
132 1 7.86127 7.86204 4.74333 -8.90301 9.17368e-08
133 1 9.43378 6.28962 3.15413 -8.9381 1.21832e-07
134 1 11.0062 7.86203 4.74325 -8.90302 9.18023e-08
135 1 12.5787 6.28962 3.15414 -8.9381 1.20628e-07
136 1 14.1511 7.86204 4.74333 -8.90301 9.12027e-08
137 1 15.7236 6.28962 3.15424 -8.93808 1.18809e-07
138 1 17.296 7.86205 4.74351 -8.90301 9.02335e-08
139 1 18.8684 6.28963 3.15436 -8.93807 1.17914e-07
140 1 20.4407 7.86206 4.74364 -8.90301 8.99857e-08
141 1 -0.000719813 9.43451 3.15435 -8.93807 1.17258e-07
142 1 1.57162 11.007 4.74359 -8.90301 8.97884e-08
143 1 3.14407 9.43451 3.15428 -8.93808 1.19009e-07
144 1 4.71641 11.007 4.74344 -8.90301 9.05225e-08
145 1 6.2889 9.4345 3.15413 -8.9381 1.20326e-07
146 1 7.86127 11.007 4.74325 -8.90302 9.10452e-08
147 1 9.43378 9.4345 3.15401 -8.93812 1.20572e-07
148 1 11.0062 11.007 4.74316 -8.90302 9.1249e-08
149 1 12.5787 9.4345 3.15402 -8.93812 1.19547e-07
150 1 14.1511 11.007 4.74326 -8.90302 9.0689e-08
151 1 15.7236 9.4345 3.15414 -8.9381 1.17674e-07
152 1 17.296 11.007 4.74345 -8.90301 8.96294e-08
153 1 18.8684 9.43451 3.15429 -8.93808 1.16534e-07
154 1 20.4408 11.007 4.74359 -8.90301 8.92304e-08
155 1 -0.000719813 12.5794 3.15435 -8.93807 1.17258e-07
156 1 1.57162 14.1518 4.74363 -8.90301 9.0641e-08
157 1 3.14407 12.5794 3.15428 -8.93808 1.19009e-07
158 1 4.71642 14.1518 4.7435 -8.90301 9.13467e-08
159 1 6.2889 12.5794 3.15413 -8.9381 1.20326e-07
160 1 7.86127 14.1519 4.74333 -8.90301 9.17368e-08
161 1 9.43378 12.5794 3.15401 -8.93812 1.20572e-07
162 1 11.0062 14.1519 4.74325 -8.90302 9.18023e-08
163 1 12.5787 12.5794 3.15402 -8.93812 1.19547e-07
164 1 14.1511 14.1519 4.74333 -8.90301 9.12027e-08
165 1 15.7236 12.5794 3.15414 -8.9381 1.17674e-07
166 1 17.296 14.1518 4.74351 -8.90301 9.02335e-08
167 1 18.8684 12.5794 3.15429 -8.93808 1.16534e-07
168 1 20.4407 14.1518 4.74364 -8.90301 8.99857e-08
169 1 -0.000719313 15.7243 3.15441 -8.93806 1.18887e-07
170 1 1.57163 17.2967 4.74373 -8.90301 9.27713e-08
171 1 3.14408 15.7243 3.15436 -8.93807 1.20705e-07
172 1 4.71643 17.2967 4.74363 -8.90301 9.3413e-08
173 1 6.28891 15.7243 3.15423 -8.93808 1.21859e-07
174 1 7.86129 17.2967 4.7435 -8.90301 9.35087e-08
175 1 9.43378 15.7243 3.15413 -8.9381 1.21832e-07
176 1 11.0062 17.2967 4.74344 -8.90301 9.32672e-08
177 1 12.5787 15.7243 3.15414 -8.9381 1.20628e-07
178 1 14.1511 17.2967 4.74351 -8.90301 9.25803e-08
179 1 15.7236 15.7243 3.15424 -8.93808 1.18809e-07
180 1 17.2959 17.2967 4.74364 -8.90301 9.18129e-08
181 1 18.8684 15.7243 3.15436 -8.93807 1.17914e-07
182 1 20.4407 17.2967 4.74374 -8.90301 9.19012e-08
183 1 -0.000718686 18.8691 3.1545 -8.93805 1.21185e-07
184 1 1.57163 20.4415 4.74381 -8.90301 9.46943e-08
185 1 3.14408 18.8691 3.15445 -8.93806 1.23084e-07
186 1 4.71645 20.4415 4.74373 -8.90301 9.52839e-08
187 1 6.28892 18.8691 3.15436 -8.93807 1.24036e-07
188 1 7.8613 20.4415 4.74363 -8.90301 9.51465e-08
189 1 9.43379 18.8691 3.15428 -8.93808 1.23673e-07
190 1 11.0062 20.4415 4.74359 -8.90301 9.46629e-08
191 1 12.5787 18.8691 3.15428 -8.93808 1.2225e-07
192 1 14.1511 20.4415 4.74364 -8.90301 9.39088e-08
193 1 15.7235 18.8691 3.15436 -8.93807 1.20497e-07
194 1 17.2959 20.4415 4.74374 -8.90301 9.3303e-08
195 1 18.8684 18.8691 3.15446 -8.93806 1.19905e-07
196 1 20.4407 20.4415 4.74382 -8.90301 9.36563e-08
197 1 -0.000829513 9.30312e-16 6.30559 -8.88811 6.07319e-08
198 1 1.57148 1.57238 7.87481 -8.90467 3.26533e-08
199 1 3.14396 2.83584e-16 6.30554 -8.88811 6.16301e-08
200 1 4.71627 1.57237 7.87469 -8.90467 3.30955e-08
201 1 6.28879 2.80784e-16 6.30543 -8.88812 6.18244e-08
202 1 7.86113 1.57235 7.87455 -8.90467 3.2955e-08
203 1 9.43367 7.51535e-16 6.30534 -8.88812 6.15234e-08
204 1 11.0061 1.57235 7.87449 -8.90467 3.26431e-08
205 1 12.5786 5.25105e-16 6.30534 -8.88812 6.09564e-08
206 1 14.151 1.57235 7.87456 -8.90467 3.2109e-08
207 1 15.7235 7.26006e-16 6.30543 -8.88812 6.01948e-08
208 1 17.2958 1.57237 7.8747 -8.90467 3.15751e-08
209 1 18.8683 5.1074e-16 6.30555 -8.88811 5.99669e-08
210 1 20.4406 1.57238 7.87481 -8.90467 3.18102e-08
211 1 -0.000829859 3.14479 6.30554 -8.88811 5.9728e-08
212 1 1.57147 4.71717 7.87469 -8.90467 3.10656e-08
213 1 3.14395 3.14478 6.30548 -8.88811 6.05895e-08
214 1 4.71624 4.71714 7.87453 -8.90466 3.15501e-08
215 1 6.28877 3.14476 6.30534 -8.88812 6.08687e-08
216 1 7.8611 4.7171 7.87432 -8.90467 3.16398e-08
217 1 9.43366 3.14474 6.30524 -8.88812 6.0712e-08
218 1 11.0061 4.71708 7.87423 -8.90467 3.15782e-08
219 1 12.5786 3.14474 6.30524 -8.88812 6.02414e-08
220 1 14.151 4.7171 7.87433 -8.90467 3.11238e-08
221 1 15.7235 3.14476 6.30535 -8.88812 5.94526e-08
222 1 17.2959 4.71714 7.87454 -8.90466 3.04326e-08
223 1 18.8683 3.14478 6.30549 -8.88811 5.90946e-08
224 1 20.4406 4.71717 7.8747 -8.90467 3.03992e-08
225 1 -0.000830623 6.28962 6.30543 -8.88812 5.76914e-08
226 1 1.57145 7.86203 7.87455 -8.90467 2.93644e-08
227 1 3.14393 6.2896 6.30535 -8.88812 5.84662e-08
228 1 4.7162 7.862 7.87432 -8.90467 2.98993e-08
229 1 6.28874 6.28957 6.30515 -8.88812 5.89365e-08
230 1 7.86106 7.86196 7.87401 -8.90469 3.02811e-08
231 1 9.43365 6.28955 6.30499 -8.88813 5.91086e-08
232 1 11.0061 7.86194 7.87386 -8.90471 3.05396e-08
233 1 12.5786 6.28955 6.30499 -8.88813 5.88598e-08
234 1 14.151 7.86196 7.87401 -8.90469 3.01916e-08
235 1 15.7235 6.28957 6.30516 -8.88812 5.80135e-08
236 1 17.2959 7.862 7.87433 -8.90467 2.93062e-08
237 1 18.8683 6.2896 6.30535 -8.88812 5.73615e-08
238 1 20.4406 7.86203 7.87456 -8.90467 2.89285e-08
239 1 -0.000831223 9.4345 6.30534 -8.88812 5.62762e-08
240 1 1.57144 11.007 7.87449 -8.90467 2.87063e-08
241 1 3.14391 9.43449 6.30524 -8.88812 5.69781e-08
242 1 4.71618 11.007 7.87423 -8.90467 2.92636e-08
243 1 6.28872 9.43448 6.30499 -8.88813 5.76037e-08
244 1 7.86104 11.007 7.87386 -8.90471 2.97784e-08
245 1 9.43364 9.43447 6.30478 -8.88815 5.80443e-08
246 1 11.0061 11.007 7.87368 -8.90475 3.01817e-08
247 1 12.5786 9.43447 6.30478 -8.88815 5.79773e-08
248 1 14.1511 11.007 7.87386 -8.90471 2.9882e-08
249 1 15.7235 9.43448 6.305 -8.88813 5.70866e-08
250 1 17.2959 11.007 7.87423 -8.90467 2.89096e-08
251 1 18.8683 9.43449 6.30524 -8.88812 5.61957e-08
252 1 20.4407 11.007 7.87449 -8.90467 2.83757e-08
253 1 -0.000831223 12.5794 6.30534 -8.88812 5.62762e-08
254 1 1.57145 14.1519 7.87455 -8.90467 2.93644e-08
255 1 3.14391 12.5794 6.30524 -8.88812 5.69781e-08
256 1 4.7162 14.1519 7.87432 -8.90467 2.98993e-08
257 1 6.28872 12.5794 6.30499 -8.88813 5.76037e-08
258 1 7.86106 14.1519 7.87401 -8.90469 3.02811e-08
259 1 9.43364 12.5794 6.30478 -8.88815 5.80443e-08
260 1 11.0061 14.152 7.87386 -8.90471 3.05396e-08
261 1 12.5786 12.5794 6.30478 -8.88815 5.79773e-08
262 1 14.151 14.1519 7.87401 -8.90469 3.01916e-08
263 1 15.7235 12.5794 6.305 -8.88813 5.70866e-08
264 1 17.2959 14.1519 7.87433 -8.90467 2.93062e-08
265 1 18.8683 12.5794 6.30524 -8.88812 5.61957e-08
266 1 20.4406 14.1519 7.87456 -8.90467 2.89285e-08
267 1 -0.000830623 15.7243 6.30543 -8.88812 5.76914e-08
268 1 1.57147 17.2967 7.87469 -8.90467 3.10656e-08
269 1 3.14393 15.7243 6.30535 -8.88812 5.84662e-08
270 1 4.71624 17.2968 7.87453 -8.90466 3.15501e-08
271 1 6.28874 15.7243 6.30515 -8.88812 5.89365e-08
272 1 7.8611 17.2968 7.87432 -8.90467 3.16398e-08
273 1 9.43365 15.7244 6.30499 -8.88813 5.91086e-08
274 1 11.0061 17.2968 7.87423 -8.90467 3.15782e-08
275 1 12.5786 15.7244 6.30499 -8.88813 5.88598e-08
276 1 14.151 17.2968 7.87433 -8.90467 3.11238e-08
277 1 15.7235 15.7243 6.30516 -8.88812 5.80135e-08
278 1 17.2959 17.2968 7.87454 -8.90466 3.04326e-08
279 1 18.8683 15.7243 6.30535 -8.88812 5.73615e-08
280 1 20.4406 17.2967 7.8747 -8.90467 3.03992e-08
281 1 -0.000829859 18.8691 6.30554 -8.88811 5.9728e-08
282 1 1.57148 20.4415 7.87481 -8.90467 3.26533e-08
283 1 3.14395 18.8691 6.30548 -8.88811 6.05895e-08
284 1 4.71627 20.4415 7.87469 -8.90467 3.30955e-08
285 1 6.28877 18.8691 6.30534 -8.88812 6.08687e-08
286 1 7.86113 20.4415 7.87455 -8.90467 3.2955e-08
287 1 9.43366 18.8692 6.30524 -8.88812 6.0712e-08
288 1 11.0061 20.4416 7.87449 -8.90467 3.26431e-08
289 1 12.5786 18.8692 6.30524 -8.88812 6.02414e-08
290 1 14.151 20.4415 7.87456 -8.90467 3.2109e-08
291 1 15.7235 18.8691 6.30535 -8.88812 5.94526e-08
292 1 17.2958 20.4415 7.8747 -8.90467 3.15751e-08
293 1 18.8683 18.8691 6.30549 -8.88811 5.90946e-08
294 1 20.4406 20.4415 7.87481 -8.90467 3.18102e-08
295 1 -0.000979667 6.36713e-18 9.44319 -8.89866 1.08172e-08
296 1 1.57131 1.57237 11.0113 -8.9001 1.33785e-09
297 1 3.14378 -3.84485e-16 9.44311 -8.89865 1.14863e-08
298 1 4.71608 1.57234 11.0112 -8.90009 1.29688e-09
299 1 6.2886 5.74987e-17 9.44296 -8.89865 1.14212e-08
300 1 7.86094 1.57231 11.011 -8.90009 7.47911e-10
301 1 9.4335 2.76182e-16 9.44283 -8.89865 1.10637e-08
302 1 11.0059 1.57229 11.0109 -8.90009 5.0519e-10
303 1 12.5784 6.19809e-16 9.44283 -8.89865 1.07154e-08
304 1 14.1508 1.57231 11.011 -8.90009 4.24526e-10
305 1 15.7233 4.42023e-16 9.44296 -8.89865 1.02304e-08
306 1 17.2957 1.57234 11.0112 -8.90009 3.09845e-10
307 1 18.8682 2.63284e-16 9.44312 -8.89865 1.01228e-08
308 1 20.4405 1.57237 11.0113 -8.9001 6.90668e-10
309 1 -0.000980168 3.14476 9.44312 -8.89865 1.01281e-08
310 1 1.57128 4.71715 11.0112 -8.90009 6.62592e-10
311 1 3.14376 3.14474 9.44303 -8.89865 1.07501e-08
312 1 4.716 4.71707 11.0109 -8.90006 6.52015e-10
313 1 6.28857 3.14469 9.44282 -8.89864 1.07704e-08
314 1 7.86086 4.71696 11.0106 -8.90007 3.66636e-10
315 1 9.43349 3.14465 9.44265 -8.89865 1.05702e-08
316 1 11.0059 4.71692 11.0104 -8.90008 4.42807e-10
317 1 12.5785 3.14465 9.44265 -8.89865 1.03367e-08
318 1 14.1509 4.71696 11.0106 -8.90007 4.95748e-10
319 1 15.7234 3.14469 9.44283 -8.89864 9.83126e-09
320 1 17.2958 4.71707 11.0109 -8.90006 2.0739e-10
321 1 18.8682 3.14474 9.44303 -8.89865 9.58214e-09
322 1 20.4405 4.71715 11.0112 -8.90009 2.49385e-10
323 1 -0.000981246 6.28958 9.44296 -8.89865 8.8285e-09
324 1 1.57124 7.86201 11.011 -8.90009 1.54044e-10
325 1 3.14371 6.28955 9.44282 -8.89864 9.33483e-09
326 1 4.7159 7.86193 11.0106 -8.90007 1.72545e-10
327 1 6.28849 6.28947 9.44248 -8.89864 9.54531e-09
328 1 7.86074 7.8618 11.0099 -8.90011 2.25215e-10
329 1 9.43345 6.28941 9.44218 -8.89865 9.70701e-09
330 1 11.0059 7.86175 11.0096 -8.90015 7.14935e-10
331 1 12.5785 6.28941 9.44218 -8.89865 9.74145e-09
332 1 14.151 7.8618 11.0099 -8.90011 9.43142e-10
333 1 15.7234 6.28947 9.44248 -8.89864 9.19633e-09
334 1 17.2959 7.86193 11.0106 -8.90007 4.40918e-10
335 1 18.8682 6.28955 9.44283 -8.89864 8.62869e-09
336 1 20.4405 7.86201 11.011 -8.90009 4.973e-11
337 1 -0.00098207 9.43448 9.44283 -8.89865 8.03134e-09
338 1 1.57123 11.007 11.0109 -8.90009 4.63926e-11
339 1 3.14367 9.43447 9.44265 -8.89865 8.43846e-09
340 1 4.71585 11.007 11.0104 -8.90008 7.60561e-11
341 1 6.28843 9.43443 9.44217 -8.89865 8.80486e-09
342 1 7.86069 11.007 11.0096 -8.90015 2.83906e-10
343 1 9.43341 9.43439 9.44172 -8.89872 9.26589e-09
344 1 11.0059 11.007 11.0091 -8.90037 9.61133e-10
345 1 12.5785 9.43439 9.44172 -8.89872 9.52001e-09
346 1 14.1511 11.007 11.0096 -8.90015 1.26483e-09
347 1 15.7235 9.43443 9.44218 -8.89865 8.94633e-09
348 1 17.2959 11.007 11.0104 -8.90008 6.6915e-10
349 1 18.8683 9.43447 9.44265 -8.89865 8.11885e-09
350 1 20.4405 11.007 11.0109 -8.90009 8.37414e-11
351 1 -0.00098207 12.5794 9.44283 -8.89865 8.03134e-09
352 1 1.57124 14.1519 11.011 -8.90009 1.54044e-10
353 1 3.14367 12.5794 9.44265 -8.89865 8.43846e-09
354 1 4.7159 14.152 11.0106 -8.90007 1.72545e-10
355 1 6.28843 12.5795 9.44217 -8.89865 8.80486e-09
356 1 7.86074 14.1521 11.0099 -8.90011 2.25215e-10
357 1 9.43341 12.5795 9.44172 -8.89872 9.26589e-09
358 1 11.0059 14.1521 11.0096 -8.90015 7.14935e-10
359 1 12.5785 12.5795 9.44172 -8.89872 9.52001e-09
360 1 14.151 14.1521 11.0099 -8.90011 9.43142e-10
361 1 15.7235 12.5795 9.44218 -8.89865 8.94633e-09
362 1 17.2959 14.152 11.0106 -8.90007 4.40918e-10
363 1 18.8683 12.5794 9.44265 -8.89865 8.11885e-09
364 1 20.4405 14.1519 11.011 -8.90009 4.973e-11
365 1 -0.000981246 15.7243 9.44296 -8.89865 8.8285e-09
366 1 1.57128 17.2968 11.0112 -8.90009 6.62592e-10
367 1 3.14371 15.7243 9.44282 -8.89864 9.33483e-09
368 1 4.716 17.2968 11.0109 -8.90006 6.52015e-10
369 1 6.28849 15.7244 9.44248 -8.89864 9.54531e-09
370 1 7.86086 17.2969 11.0106 -8.90007 3.66636e-10
371 1 9.43345 15.7245 9.44218 -8.89865 9.70701e-09
372 1 11.0059 17.297 11.0104 -8.90008 4.42807e-10
373 1 12.5785 15.7245 9.44218 -8.89865 9.74145e-09
374 1 14.1509 17.2969 11.0106 -8.90007 4.95748e-10
375 1 15.7234 15.7244 9.44248 -8.89864 9.19633e-09
376 1 17.2958 17.2968 11.0109 -8.90006 2.0739e-10
377 1 18.8682 15.7243 9.44283 -8.89864 8.62869e-09
378 1 20.4405 17.2968 11.0112 -8.90009 2.49385e-10
379 1 -0.000980168 18.8691 9.44312 -8.89865 1.01281e-08
380 1 1.57131 20.4415 11.0113 -8.9001 1.33785e-09
381 1 3.14376 18.8692 9.44303 -8.89865 1.07501e-08
382 1 4.71608 20.4416 11.0112 -8.90009 1.29688e-09
383 1 6.28857 18.8692 9.44282 -8.89864 1.07704e-08
384 1 7.86094 20.4416 11.011 -8.90009 7.47911e-10
385 1 9.43349 18.8692 9.44265 -8.89865 1.05702e-08
386 1 11.0059 20.4416 11.0109 -8.90009 5.0519e-10
387 1 12.5785 18.8692 9.44265 -8.89865 1.03367e-08
388 1 14.1508 20.4416 11.011 -8.90009 4.24526e-10
389 1 15.7234 18.8692 9.44283 -8.89864 9.83126e-09
390 1 17.2957 20.4416 11.0112 -8.90009 3.09845e-10
391 1 18.8682 18.8692 9.44303 -8.89865 9.58214e-09
392 1 20.4405 20.4415 11.0113 -8.9001 6.90668e-10
393 1 -0.00114703 1.03478e-16 12.5796 -8.89868 5.28262e-09
394 1 3.14363 -9.34226e-17 12.5795 -8.89867 5.25565e-09
395 1 6.28844 4.75967e-16 12.5793 -8.89867 4.27109e-09
396 1 9.43334 3.17641e-16 12.5791 -8.89868 3.57796e-09
397 1 12.5783 6.25385e-16 12.5791 -8.89868 3.79677e-09
398 1 15.7232 8.50108e-16 12.5793 -8.89867 4.21206e-09
399 1 18.868 5.25217e-17 12.5795 -8.89867 4.65862e-09
400 1 22.0128 3.14478 12.5795 -8.89867 5.37428e-09
401 1 3.14359 3.14474 12.5794 -8.89866 5.27435e-09
402 1 6.28838 3.14464 12.5791 -8.89864 4.39086e-09
403 1 9.4333 3.14455 12.5788 -8.89865 3.9003e-09
404 1 12.5783 3.14455 12.5788 -8.89865 4.29354e-09
405 1 15.7232 3.14464 12.5791 -8.89864 4.70866e-09
406 1 18.868 3.14474 12.5794 -8.89866 4.96423e-09
407 1 22.0128 6.28959 12.5793 -8.89867 5.8909e-09
408 1 3.14349 6.28952 12.5791 -8.89864 5.61227e-09
409 1 6.28819 6.28933 12.5785 -8.89854 4.96048e-09
410 1 9.4332 6.28917 12.5779 -8.8986 4.94141e-09
411 1 12.5784 6.28918 12.5779 -8.8986 5.74732e-09
412 1 15.7234 6.28933 12.5785 -8.89854 6.17414e-09
413 1 18.8681 6.28952 12.5791 -8.89864 5.98011e-09
414 1 22.0128 9.43448 12.5791 -8.89868 6.61399e-09
415 1 3.1434 9.43445 12.5788 -8.89865 6.17534e-09
416 1 6.28803 9.43434 12.5779 -8.8986 5.7007e-09
417 1 9.43306 9.43421 12.5768 -8.89878 6.0812e-09
418 1 12.5785 9.43421 12.5768 -8.89878 7.20967e-09
419 1 15.7236 9.43434 12.5779 -8.8986 7.64476e-09
420 1 18.8682 9.43445 12.5788 -8.89865 7.10887e-09
421 1 22.0128 12.5794 12.5791 -8.89868 6.61399e-09
422 1 3.1434 12.5795 12.5788 -8.89865 6.17534e-09
423 1 6.28803 12.5796 12.5779 -8.8986 5.7007e-09
424 1 9.43306 12.5797 12.5768 -8.89878 6.0812e-09
425 1 12.5785 12.5797 12.5768 -8.89878 7.20967e-09
426 1 15.7236 12.5796 12.5779 -8.8986 7.64476e-09
427 1 18.8682 12.5795 12.5788 -8.89865 7.10887e-09
428 1 22.0128 15.7243 12.5793 -8.89867 5.8909e-09
429 1 3.14349 15.7244 12.5791 -8.89864 5.61227e-09
430 1 6.28819 15.7246 12.5785 -8.89854 4.96048e-09
431 1 9.4332 15.7247 12.5779 -8.8986 4.94141e-09
432 1 12.5784 15.7247 12.5779 -8.8986 5.74732e-09
433 1 15.7234 15.7246 12.5785 -8.89854 6.17414e-09
434 1 18.8681 15.7244 12.5791 -8.89864 5.98011e-09
435 1 22.0128 18.8691 12.5795 -8.89867 5.37428e-09
436 1 3.14359 18.8692 12.5794 -8.89866 5.27435e-09
437 1 6.28838 18.8693 12.5791 -8.89864 4.39086e-09
438 1 9.4333 18.8693 12.5788 -8.89865 3.9003e-09
439 1 12.5783 18.8693 12.5788 -8.89865 4.29354e-09
440 1 15.7232 18.8693 12.5791 -8.89864 4.70866e-09
441 1 18.868 18.8692 12.5794 -8.89866 4.96423e-09
442 1 1.57119 1.57242 14.1479 -8.9047 2.32522e-08
443 1 4.71599 1.57237 14.1478 -8.90468 2.20589e-08
444 1 7.86081 1.5723 14.1475 -8.9047 2.05775e-08
445 1 11.0057 1.57227 14.1474 -8.9047 2.05579e-08
446 1 14.1506 1.5723 14.1475 -8.9047 2.16112e-08
447 1 17.2955 1.57237 14.1478 -8.90468 2.25028e-08
448 1 20.4403 1.57242 14.1479 -8.9047 2.31476e-08
449 1 1.57114 4.71722 14.1478 -8.90468 2.45699e-08
450 1 4.71585 4.71708 14.1475 -8.90465 2.34348e-08
451 1 7.86065 4.71685 14.1469 -8.90465 2.23134e-08
452 1 11.0057 4.71676 14.1466 -8.90466 2.27646e-08
453 1 14.1508 4.71685 14.1469 -8.90465 2.40941e-08
454 1 17.2956 4.71709 14.1475 -8.90465 2.47555e-08
455 1 20.4403 4.71722 14.1478 -8.90468 2.483e-08
456 1 1.57107 7.86204 14.1475 -8.9047 2.66468e-08
457 1 4.71562 7.86188 14.1469 -8.90465 2.55535e-08
458 1 7.86027 7.8615 14.1455 -8.9044 2.49368e-08
459 1 11.0057 7.86138 14.1447 -8.90466 2.60048e-08
460 1 14.1512 7.8615 14.1455 -8.9044 2.77165e-08
461 1 17.2958 7.86188 14.1469 -8.90465 2.80082e-08
462 1 20.4404 7.86204 14.1475 -8.9047 2.7386e-08
463 1 1.57104 11.007 14.1474 -8.9047 2.77244e-08
464 1 4.71553 11.007 14.1466 -8.90466 2.66319e-08
465 1 7.86015 11.007 14.1447 -8.90466 2.62136e-08
466 1 11.0057 11.007 14.1432 -8.90674 2.75572e-08
467 1 14.1513 11.007 14.1447 -8.90466 2.94066e-08
468 1 17.2959 11.007 14.1466 -8.90466 2.95948e-08
469 1 20.4404 11.007 14.1474 -8.9047 2.86819e-08
470 1 1.57107 14.1519 14.1475 -8.9047 2.66468e-08
471 1 4.71562 14.152 14.1469 -8.90465 2.55535e-08
472 1 7.86027 14.1524 14.1455 -8.9044 2.49368e-08
473 1 11.0057 14.1525 14.1447 -8.90466 2.60048e-08
474 1 14.1512 14.1524 14.1455 -8.9044 2.77165e-08
475 1 17.2958 14.152 14.1469 -8.90465 2.80082e-08
476 1 20.4404 14.1519 14.1475 -8.9047 2.7386e-08
477 1 1.57114 17.2967 14.1478 -8.90468 2.45699e-08
478 1 4.71585 17.2968 14.1475 -8.90465 2.34348e-08
479 1 7.86065 17.297 14.1469 -8.90465 2.23134e-08
480 1 11.0057 17.2971 14.1466 -8.90466 2.27646e-08
481 1 14.1508 17.297 14.1469 -8.90465 2.40941e-08
482 1 17.2956 17.2968 14.1475 -8.90465 2.47555e-08
483 1 20.4403 17.2967 14.1478 -8.90468 2.483e-08
484 1 1.57119 20.4415 14.1479 -8.9047 2.32522e-08
485 1 4.71599 20.4415 14.1478 -8.90468 2.20589e-08
486 1 7.86081 20.4416 14.1475 -8.9047 2.05775e-08
487 1 11.0057 20.4416 14.1474 -8.9047 2.05579e-08
488 1 14.1506 20.4416 14.1475 -8.9047 2.16112e-08
489 1 17.2955 20.4415 14.1478 -8.90468 2.25028e-08
490 1 20.4403 20.4415 14.1479 -8.9047 2.31476e-08
491 1 22.0126 2.79754e-16 15.7172 -8.88818 5.04228e-08
492 1 1.57118 1.57255 17.279 -8.90297 8.68681e-08
493 1 3.14362 8.39468e-17 15.7172 -8.88819 4.98215e-08
494 1 4.71618 1.5726 17.279 -8.90303 8.54812e-08
495 1 6.28844 -1.80471e-17 15.7171 -8.88817 4.78732e-08
496 1 7.8609 1.57254 17.2788 -8.9031 8.35116e-08
497 1 9.43324 -2.34165e-16 15.7169 -8.8882 4.67379e-08
498 1 11.0056 1.5725 17.2787 -8.90309 8.33942e-08
499 1 12.5781 3.97978e-16 15.7169 -8.8882 4.75307e-08
500 1 14.1503 1.57254 17.2788 -8.9031 8.47713e-08
501 1 15.7229 9.49765e-16 15.7171 -8.88817 4.88274e-08
502 1 17.295 1.5726 17.279 -8.90302 8.57822e-08
503 1 18.8677 5.92717e-16 15.7172 -8.88819 4.97597e-08
504 1 20.44 1.57255 17.279 -8.90297 8.65574e-08
505 1 22.0126 3.14492 15.7172 -8.88819 5.19088e-08
506 1 1.57123 4.71755 17.279 -8.90303 9.12864e-08
507 1 3.14361 3.14491 15.7171 -8.88818 5.12168e-08
508 1 4.71627 4.71764 17.2789 -8.90324 9.0137e-08
509 1 6.28837 3.14478 15.7169 -8.88809 4.94769e-08
510 1 7.86074 4.71722 17.2782 -8.90292 8.89902e-08
511 1 9.4332 3.14464 15.7165 -8.88817 4.86379e-08
512 1 11.0056 4.71706 17.2777 -8.90284 8.9555e-08
513 1 12.5781 3.14464 15.7165 -8.88817 4.97116e-08
514 1 14.1504 4.71722 17.2782 -8.90292 9.14443e-08
515 1 15.7229 3.14478 15.7169 -8.88809 5.1024e-08
516 1 17.2949 4.71764 17.2789 -8.90324 9.16685e-08
517 1 18.8677 3.14491 15.7171 -8.88818 5.15808e-08
518 1 20.4399 4.71755 17.279 -8.90302 9.14848e-08
519 1 22.0126 6.28974 15.7171 -8.88817 5.57615e-08
520 1 1.57117 7.86227 17.2788 -8.9031 9.75445e-08
521 1 3.14348 6.28967 15.7169 -8.88809 5.48812e-08
522 1 4.71585 7.86211 17.2782 -8.90292 9.68808e-08
523 1 6.28805 6.28936 15.7161 -8.8877 5.36686e-08
524 1 7.85967 7.86105 17.2759 -8.90267 9.6823e-08
525 1 9.43297 6.28897 15.7149 -8.88787 5.35109e-08
526 1 11.0056 7.86102 17.2737 -8.90497 9.84851e-08
527 1 12.5783 6.28897 15.7149 -8.88787 5.52965e-08
528 1 14.1515 7.86105 17.2759 -8.90267 1.01335e-07
529 1 15.7232 6.28936 15.7161 -8.8877 5.67731e-08
530 1 17.2953 7.86211 17.2782 -8.90292 1.00308e-07
531 1 18.8678 6.28968 15.7169 -8.88809 5.63147e-08
532 1 20.44 7.86227 17.2788 -8.9031 9.84699e-08
533 1 22.0126 9.43454 15.7169 -8.8882 5.92886e-08
534 1 1.57113 11.007 17.2787 -8.90309 1.00554e-07
535 1 3.14333 9.4345 15.7165 -8.88817 5.82092e-08
536 1 4.71569 11.007 17.2777 -8.90284 1.00015e-07
537 1 6.28766 9.43427 15.7149 -8.88787 5.73206e-08
538 1 7.85965 11.007 17.2737 -8.90497 1.00343e-07
539 1 9.43238 9.43369 15.7118 -8.88714 5.78252e-08
540 1 11.0056 11.007 17.2662 -8.91709 1.02962e-07
541 1 12.5789 9.43369 15.7118 -8.88714 6.0108e-08
542 1 14.1515 11.007 17.2737 -8.90497 1.05373e-07
543 1 15.7236 9.43427 15.7149 -8.88788 6.15972e-08
544 1 17.2955 11.007 17.2777 -8.90284 1.04258e-07
545 1 18.868 9.4345 15.7165 -8.88817 6.05331e-08
546 1 20.44 11.007 17.2787 -8.90309 1.01818e-07
547 1 22.0126 12.5794 15.7169 -8.8882 5.92886e-08
548 1 1.57117 14.1516 17.2788 -8.9031 9.75445e-08
549 1 3.14333 12.5794 15.7165 -8.88817 5.82092e-08
550 1 4.71585 14.1518 17.2782 -8.90292 9.68808e-08
551 1 6.28766 12.5796 15.7149 -8.88787 5.73206e-08
552 1 7.85967 14.1529 17.2759 -8.90267 9.6823e-08
553 1 9.43238 12.5802 15.7118 -8.88714 5.78252e-08
554 1 11.0056 14.1529 17.2737 -8.90497 9.84851e-08
555 1 12.5789 12.5802 15.7118 -8.88714 6.0108e-08
556 1 14.1515 14.1529 17.2759 -8.90267 1.01335e-07
557 1 15.7236 12.5796 15.7149 -8.88788 6.15972e-08
558 1 17.2953 14.1518 17.2782 -8.90292 1.00308e-07
559 1 18.868 12.5794 15.7165 -8.88817 6.05331e-08
560 1 20.44 14.1516 17.2788 -8.9031 9.84699e-08
561 1 22.0126 15.7242 15.7171 -8.88817 5.57615e-08
562 1 1.57123 17.2964 17.279 -8.90303 9.12864e-08
563 1 3.14348 15.7242 15.7169 -8.88809 5.48812e-08
564 1 4.71627 17.2963 17.2789 -8.90324 9.0137e-08
565 1 6.28805 15.7245 15.7161 -8.8877 5.36686e-08
566 1 7.86074 17.2967 17.2782 -8.90292 8.89902e-08
567 1 9.43297 15.7249 15.7149 -8.88787 5.35109e-08
568 1 11.0056 17.2968 17.2777 -8.90284 8.9555e-08
569 1 12.5783 15.7249 15.7149 -8.88787 5.52965e-08
570 1 14.1504 17.2967 17.2782 -8.90292 9.14443e-08
571 1 15.7232 15.7245 15.7161 -8.8877 5.67731e-08
572 1 17.2949 17.2963 17.2789 -8.90324 9.16685e-08
573 1 18.8678 15.7242 15.7169 -8.88809 5.63147e-08
574 1 20.4399 17.2964 17.279 -8.90302 9.14848e-08
575 1 22.0126 18.869 15.7172 -8.88819 5.19088e-08
576 1 1.57118 20.4413 17.279 -8.90297 8.68681e-08
577 1 3.14361 18.869 15.7171 -8.88818 5.12168e-08
578 1 4.71618 20.4413 17.279 -8.90303 8.54812e-08
579 1 6.28837 18.8691 15.7169 -8.88809 4.94769e-08
580 1 7.8609 20.4414 17.2788 -8.9031 8.35116e-08
581 1 9.4332 18.8693 15.7165 -8.88817 4.86379e-08
582 1 11.0056 20.4414 17.2787 -8.90309 8.33942e-08
583 1 12.5781 18.8693 15.7165 -8.88817 4.97116e-08