ITEM: TIMESTEP
73
ITEM: NUMBER OF ATOMS
736
ITEM: BOX BOUNDS pp pp pp
0.0000000000000000e+00 2.2013900999999997e+01
0.0000000000000000e+00 2.2013900999999997e+01
0.0000000000000000e+00 5.3462330999999999e+01
ITEM: ATOMS id type x y z c_pot c_ke
1 1 3.03823e-05 1.15296e-15 0.0932995 -7.40175 0.000169167
2 1 1.57246 1.57243 1.62018 -8.68386 0.000149314
3 1 3.1449 1.24532e-15 0.0933295 -7.40177 0.000169839
4 1 4.71731 1.57244 1.62024 -8.68386 0.000149812
5 1 6.28973 22.0139 0.0933666 -7.40178 0.000170023
6 1 7.86214 1.57244 1.62028 -8.68386 0.000149428
7 1 9.43454 22.0139 0.0933828 -7.40179 0.000169582
8 1 11.0069 1.57244 1.62028 -8.68386 0.000148462
9 1 12.5793 22.0139 0.093366 -7.40178 0.000168853
10 1 14.1518 1.57243 1.62024 -8.68386 0.000147645
11 1 15.7242 1.19426e-15 0.0933287 -7.40177 0.000168381
12 1 17.2966 1.57243 1.62018 -8.68386 0.000147579
13 1 18.8691 22.0139 0.0932991 -7.40175 0.000168518
14 1 20.4415 1.57243 1.62016 -8.68386 0.000148316
15 1 3.13555e-05 3.14487 0.0933124 -7.40176 0.000169082
16 1 1.57247 4.71729 1.62022 -8.68386 0.000149009
17 1 3.1449 3.14487 0.0933444 -7.40177 0.000169755
18 1 4.71732 4.7173 1.62028 -8.68386 0.000149469
19 1 6.28973 3.14487 0.0933837 -7.40179 0.000169868
20 1 7.86214 4.7173 1.62033 -8.68387 0.000148898
21 1 9.43454 3.14488 0.0934009 -7.40179 0.000169334
22 1 11.0069 4.7173 1.62033 -8.68387 0.000147723
23 1 12.5793 3.14487 0.0933829 -7.40179 0.000168561
24 1 14.1518 4.71729 1.62028 -8.68386 0.00014684
25 1 15.7242 3.14487 0.0933433 -7.40177 0.000168129
26 1 17.2966 4.71729 1.62022 -8.68386 0.000146912
27 1 18.8691 3.14487 0.093312 -7.40176 0.000168359
28 1 20.4415 4.71729 1.62019 -8.68386 0.000147877
29 1 3.35355e-05 6.28972 0.0933416 -7.40177 0.000168891
30 1 1.57247 7.86213 1.62026 -8.68386 0.00014862
31 1 3.1449 6.28972 0.0933778 -7.40179 0.000169562
32 1 4.71732 7.86213 1.62033 -8.68387 0.000149026
33 1 6.28974 6.28973 0.0934223 -7.4018 0.000169514
34 1 7.86214 7.86213 1.62038 -8.68387 0.000148233
35 1 9.43454 6.28973 0.0934415 -7.40181 0.000168773
36 1 11.0069 7.86213 1.62038 -8.68387 0.000146797
37 1 12.5793 6.28972 0.0934209 -7.4018 0.000167898
38 1 14.1518 7.86213 1.62033 -8.68387 0.000145821
39 1 15.7242 6.28972 0.0933762 -7.40179 0.000167556
40 1 17.2966 7.86213 1.62026 -8.68386 0.000146072
41 1 18.8691 6.28972 0.0933409 -7.40177 0.000168002
42 1 20.4415 7.86213 1.62023 -8.68386 0.000147328
43 1 3.52763e-05 9.43454 0.093365 -7.40178 0.000168736
44 1 1.57247 11.007 1.62028 -8.68386 0.000148443
45 1 3.14491 9.43455 0.0934045 -7.4018 0.000169401
46 1 4.71732 11.007 1.62035 -8.68387 0.000148824
47 1 6.28974 9.43455 0.0934531 -7.40182 0.000169225
48 1 7.86214 11.007 1.62041 -8.68387 0.000147935
49 1 9.43454 9.43455 0.0934741 -7.40182 0.000168318
50 1 11.0069 11.007 1.62041 -8.68387 0.000146383
51 1 12.5793 9.43455 0.0934514 -7.40182 0.000167359
52 1 14.1518 11.007 1.62035 -8.68387 0.000145362
53 1 15.7242 9.43454 0.0934025 -7.4018 0.000167091
54 1 17.2966 11.007 1.62028 -8.68386 0.000145695
55 1 18.869 9.43454 0.0933641 -7.40178 0.000167714
56 1 20.4415 11.007 1.62025 -8.68386 0.000147082
57 1 3.52763e-05 12.5794 0.093365 -7.40178 0.000168736
58 1 1.57247 14.1518 1.62026 -8.68386 0.00014862
59 1 3.14491 12.5794 0.0934045 -7.4018 0.000169401
60 1 4.71732 14.1518 1.62033 -8.68387 0.000149026
61 1 6.28974 12.5794 0.0934531 -7.40182 0.000169225
62 1 7.86214 14.1518 1.62038 -8.68387 0.000148233
63 1 9.43454 12.5794 0.0934741 -7.40182 0.000168318
64 1 11.0069 14.1518 1.62038 -8.68387 0.000146797
65 1 12.5793 12.5794 0.0934514 -7.40182 0.000167359
66 1 14.1518 14.1518 1.62033 -8.68387 0.000145821
67 1 15.7242 12.5794 0.0934025 -7.4018 0.000167091
68 1 17.2966 14.1518 1.62026 -8.68386 0.000146072
69 1 18.869 12.5794 0.0933641 -7.40178 0.000167714
70 1 20.4415 14.1518 1.62023 -8.68386 0.000147328
71 1 3.35355e-05 15.7242 0.0933416 -7.40177 0.000168891
72 1 1.57247 17.2966 1.62022 -8.68386 0.000149009
73 1 3.1449 15.7242 0.0933778 -7.40179 0.000169562
74 1 4.71732 17.2966 1.62028 -8.68386 0.000149469
75 1 6.28974 15.7242 0.0934223 -7.4018 0.000169514
76 1 7.86214 17.2966 1.62033 -8.68387 0.000148898
77 1 9.43454 15.7242 0.0934415 -7.40181 0.000168773
78 1 11.0069 17.2966 1.62033 -8.68387 0.000147723
79 1 12.5793 15.7242 0.0934209 -7.4018 0.000167898
80 1 14.1518 17.2966 1.62028 -8.68386 0.00014684
81 1 15.7242 15.7242 0.0933762 -7.40179 0.000167556
82 1 17.2966 17.2966 1.62022 -8.68386 0.000146912
83 1 18.8691 15.7242 0.0933409 -7.40177 0.000168002
84 1 20.4415 17.2966 1.62019 -8.68386 0.000147877
85 1 3.13555e-05 18.869 0.0933124 -7.40176 0.000169082
86 1 1.57246 20.4415 1.62018 -8.68386 0.000149314
87 1 3.1449 18.869 0.0933444 -7.40177 0.000169755
88 1 4.71731 20.4415 1.62024 -8.68386 0.000149812
89 1 6.28973 18.869 0.0933837 -7.40179 0.000169868
90 1 7.86214 20.4415 1.62028 -8.68386 0.000149428
91 1 9.43454 18.869 0.0934009 -7.40179 0.000169334
92 1 11.0069 20.4415 1.62028 -8.68386 0.000148462
93 1 12.5793 18.869 0.0933829 -7.40179 0.000168561
94 1 14.1518 20.4415 1.62024 -8.68386 0.000147645
95 1 15.7242 18.869 0.0933433 -7.40177 0.000168129
96 1 17.2966 20.4415 1.62018 -8.68386 0.000147579
97 1 18.8691 18.869 0.093312 -7.40176 0.000168359
98 1 20.4415 20.4415 1.62016 -8.68386 0.000148316
99 1 3.38736e-05 1.80142e-15 3.1504 -8.93804 0.000129315
100 1 1.57248 1.57244 4.7399 -8.90305 0.000104605
101 1 3.14489 1.84409e-15 3.15045 -8.93803 0.000130209
102 1 4.71733 1.57244 4.73997 -8.90305 0.00010522
103 1 6.28973 22.0139 3.1505 -8.93803 0.000130244
104 1 7.86215 1.57244 4.74003 -8.90305 0.000104683
105 1 9.43454 22.0139 3.15053 -8.93802 0.00012941
106 1 11.007 1.57244 4.74002 -8.90305 0.000103415
107 1 12.5794 22.0139 3.1505 -8.93803 0.000128342
108 1 14.1518 1.57244 4.73996 -8.90305 0.000102376
109 1 15.7242 1.57115e-15 3.15044 -8.93803 0.000127839
110 1 17.2966 1.57243 4.7399 -8.90305 0.00010233
111 1 18.8691 22.0139 3.1504 -8.93804 0.000128262
112 1 20.4415 1.57243 4.73987 -8.90305 0.000103305
113 1 3.51505e-05 3.14486 3.15042 -8.93804 0.000129066
114 1 1.57248 4.7173 4.73995 -8.90305 0.000104192
115 1 3.1449 3.14487 3.15047 -8.93803 0.000130042
116 1 4.71733 4.7173 4.74003 -8.90305 0.000105058
117 1 6.28973 3.14487 3.15053 -8.93802 0.000130066
118 1 7.86215 4.7173 4.74009 -8.90305 0.000104543
119 1 9.43454 3.14487 3.15056 -8.93802 0.000129129
120 1 11.007 4.7173 4.74009 -8.90305 0.000102984
121 1 12.5794 3.14487 3.15053 -8.93802 0.000127934
122 1 14.1518 4.7173 4.74002 -8.90305 0.000101584
123 1 15.7242 3.14486 3.15047 -8.93803 0.000127391
124 1 17.2966 4.71729 4.73994 -8.90305 0.000101437
125 1 18.8691 3.14486 3.15042 -8.93804 0.000127891
126 1 20.4415 4.71729 4.73991 -8.90305 0.000102606
127 1 3.79946e-05 6.28971 3.15046 -8.93803 0.000128502
128 1 1.57249 7.86213 4.74 -8.90305 0.000103654
129 1 3.1449 6.28971 3.15052 -8.93802 0.000129646
130 1 4.71734 7.86214 4.7401 -8.90304 0.000104833
131 1 6.28973 6.28972 3.15059 -8.93801 0.000129666
132 1 7.86215 7.86214 4.74017 -8.90304 0.000104413
133 1 9.43455 6.28972 3.15062 -8.93801 0.000128513
134 1 11.007 7.86214 4.74016 -8.90304 0.000102486
135 1 12.5794 6.28972 3.15059 -8.93801 0.000127017
136 1 14.1518 7.86213 4.74008 -8.90305 0.000100572
137 1 15.7242 6.28971 3.15052 -8.93802 0.000126369
138 1 17.2966 7.86213 4.73999 -8.90305 0.000100303
139 1 18.8691 6.28971 3.15046 -8.93803 0.000127055
140 1 20.4415 7.86213 4.73996 -8.90305 0.000101728
141 1 4.0253e-05 9.43454 3.1505 -8.93803 0.000128044
142 1 1.57249 11.007 4.74003 -8.90305 0.00010341
143 1 3.1449 9.43454 3.15057 -8.93802 0.000129316
144 1 4.71734 11.007 4.74013 -8.90304 0.000104729
145 1 6.28974 9.43454 3.15064 -8.93801 0.000129348
146 1 7.86216 11.007 4.74021 -8.90304 0.000104373
147 1 9.43455 9.43454 3.15068 -8.938 0.000128039
148 1 11.007 11.007 4.7402 -8.90304 0.000102282
149 1 12.5794 9.43454 3.15064 -8.93801 0.000126283
150 1 14.1518 11.007 4.74011 -8.90305 0.000100117
151 1 15.7242 9.43454 3.15056 -8.93802 0.000125539
152 1 17.2966 11.007 4.74002 -8.90305 9.97946e-05
153 1 18.8691 9.43454 3.1505 -8.93803 0.000126381
154 1 20.4415 11.007 4.73998 -8.90305 0.000101335
155 1 4.0253e-05 12.5794 3.1505 -8.93803 0.000128044
156 1 1.57249 14.1518 4.74 -8.90305 0.000103654
157 1 3.1449 12.5794 3.15057 -8.93802 0.000129316
158 1 4.71734 14.1518 4.7401 -8.90304 0.000104833
159 1 6.28974 12.5794 3.15064 -8.93801 0.000129348
160 1 7.86215 14.1518 4.74017 -8.90304 0.000104413
161 1 9.43455 12.5794 3.15068 -8.938 0.000128039
162 1 11.007 14.1518 4.74016 -8.90304 0.000102486
163 1 12.5794 12.5794 3.15064 -8.93801 0.000126283
164 1 14.1518 14.1518 4.74008 -8.90305 0.000100572
165 1 15.7242 12.5794 3.15056 -8.93802 0.000125539
166 1 17.2966 14.1518 4.73999 -8.90305 0.000100303
167 1 18.8691 12.5794 3.1505 -8.93803 0.000126381
168 1 20.4415 14.1518 4.73996 -8.90305 0.000101728
169 1 3.79946e-05 15.7242 3.15046 -8.93803 0.000128502
170 1 1.57248 17.2966 4.73995 -8.90305 0.000104192
171 1 3.1449 15.7242 3.15052 -8.93802 0.000129646
172 1 4.71733 17.2966 4.74003 -8.90305 0.000105058
173 1 6.28973 15.7242 3.15059 -8.93801 0.000129666
174 1 7.86215 17.2966 4.74009 -8.90305 0.000104543
175 1 9.43455 15.7242 3.15062 -8.93801 0.000128513
176 1 11.007 17.2966 4.74009 -8.90305 0.000102984
177 1 12.5794 15.7242 3.15059 -8.93801 0.000127017
178 1 14.1518 17.2966 4.74002 -8.90305 0.000101584
179 1 15.7242 15.7242 3.15052 -8.93802 0.000126369
180 1 17.2966 17.2966 4.73994 -8.90305 0.000101437
181 1 18.8691 15.7242 3.15046 -8.93803 0.000127055
182 1 20.4415 17.2966 4.73991 -8.90305 0.000102606
183 1 3.51505e-05 18.869 3.15042 -8.93804 0.000129066
184 1 1.57248 20.4415 4.7399 -8.90305 0.000104605
185 1 3.1449 18.869 3.15047 -8.93803 0.000130042
186 1 4.71733 20.4415 4.73997 -8.90305 0.00010522
187 1 6.28973 18.869 3.15053 -8.93802 0.000130066
188 1 7.86215 20.4415 4.74003 -8.90305 0.000104683
189 1 9.43454 18.869 3.15056 -8.93802 0.000129129
190 1 11.007 20.4415 4.74002 -8.90305 0.000103415
191 1 12.5794 18.869 3.15053 -8.93802 0.000127934
192 1 14.1518 20.4415 4.73996 -8.90305 0.000102376
193 1 15.7242 18.869 3.15047 -8.93803 0.000127391
194 1 17.2966 20.4415 4.7399 -8.90305 0.00010233
195 1 18.8691 18.869 3.15042 -8.93804 0.000127891
196 1 20.4415 20.4415 4.73987 -8.90305 0.000103305
197 1 6.401e-05 1.55491e-15 6.30185 -8.88812 7.34007e-05
198 1 1.57254 1.57245 7.87134 -8.90467 4.94829e-05
199 1 3.14493 22.0139 6.30192 -8.88811 7.46354e-05
200 1 4.71739 1.57246 7.87145 -8.90467 5.05917e-05
201 1 6.28976 22.0139 6.30201 -8.88811 7.47207e-05
202 1 7.86218 1.57246 7.87154 -8.90466 5.00955e-05
203 1 9.43456 7.87677e-16 6.30204 -8.88811 7.35963e-05
204 1 11.007 1.57246 7.87153 -8.90466 4.84404e-05
205 1 12.5794 22.0139 6.302 -8.88811 7.2163e-05
206 1 14.1518 1.57245 7.87144 -8.90467 4.69012e-05
207 1 15.7242 1.56685e-15 6.30191 -8.88811 7.14585e-05
208 1 17.2966 1.57245 7.87133 -8.90467 4.65588e-05
209 1 18.8691 22.0139 6.30184 -8.88812 7.19906e-05
210 1 20.4415 1.57244 7.87128 -8.90467 4.76906e-05
211 1 6.75569e-05 3.14488 6.30188 -8.88811 7.30532e-05
212 1 1.57255 4.71733 7.87141 -8.90467 4.92303e-05
213 1 3.14494 3.14488 6.30196 -8.88811 7.45977e-05
214 1 4.71741 4.71734 7.87155 -8.90466 5.13868e-05
215 1 6.28977 3.14489 6.30205 -8.88811 7.49274e-05
216 1 7.86219 4.71736 7.87166 -8.90465 5.14483e-05
217 1 9.43456 3.14489 6.30209 -8.88811 7.37435e-05
218 1 11.007 4.71735 7.87164 -8.90466 4.92465e-05
219 1 12.5794 3.14489 6.30204 -8.88811 7.19902e-05
220 1 14.1518 4.71733 7.87152 -8.90466 4.6588e-05
221 1 15.7242 3.14488 6.30194 -8.88811 7.09837e-05
222 1 17.2966 4.71732 7.87139 -8.90467 4.55534e-05
223 1 18.8691 3.14487 6.30187 -8.88812 7.14629e-05
224 1 20.4415 4.71731 7.87134 -8.90467 4.68121e-05
225 1 7.53941e-05 6.28973 6.30194 -8.88811 7.22515e-05
226 1 1.57257 7.86216 7.8715 -8.90466 4.88354e-05
227 1 3.14495 6.28974 6.30204 -8.88811 7.44402e-05
228 1 4.71743 7.86217 7.87167 -8.90465 5.22679e-05
229 1 6.28978 6.28975 6.30215 -8.8881 7.54399e-05
230 1 7.86221 7.86218 7.8718 -8.90464 5.34182e-05
231 1 9.43456 6.28975 6.3022 -8.8881 7.42034e-05
232 1 11.007 7.86218 7.87179 -8.90464 5.04865e-05
233 1 12.5794 6.28974 6.30213 -8.88811 7.16172e-05
234 1 14.1517 7.86216 7.87163 -8.90466 4.60746e-05
235 1 15.7242 6.28973 6.30202 -8.88811 6.98382e-05
236 1 17.2966 7.86215 7.87147 -8.90467 4.42216e-05
237 1 18.8691 6.28972 6.30193 -8.88811 7.02545e-05
238 1 20.4415 7.86215 7.87141 -8.90467 4.56959e-05
239 1 8.15736e-05 9.43455 6.30199 -8.88811 7.15913e-05
240 1 1.57258 11.007 7.87154 -8.90466 4.86348e-05
241 1 3.14496 9.43455 6.3021 -8.88811 7.42634e-05
242 1 4.71744 11.007 7.87173 -8.90465 5.26259e-05
243 1 6.28979 9.43456 6.30223 -8.8881 7.58528e-05
244 1 7.86221 11.007 7.87187 -8.90463 5.43668e-05
245 1 9.43456 9.43456 6.30228 -8.8881 7.46593e-05
246 1 11.007 11.007 7.87185 -8.90463 5.11175e-05
247 1 12.5793 9.43455 6.30221 -8.8881 7.1317e-05
248 1 14.1517 11.007 7.87168 -8.90466 4.58074e-05
249 1 15.7242 9.43455 6.30208 -8.88811 6.88693e-05
250 1 17.2966 11.007 7.87151 -8.90467 4.36066e-05
251 1 18.8691 9.43455 6.30198 -8.88811 6.92703e-05
252 1 20.4416 11.007 7.87145 -8.90467 4.51924e-05
253 1 8.15736e-05 12.5794 6.30199 -8.88811 7.15913e-05
254 1 1.57257 14.1517 7.8715 -8.90466 4.88354e-05
255 1 3.14496 12.5793 6.3021 -8.88811 7.42634e-05
256 1 4.71743 14.1517 7.87167 -8.90465 5.22679e-05
257 1 6.28979 12.5793 6.30223 -8.8881 7.58528e-05
258 1 7.86221 14.1517 7.8718 -8.90464 5.34182e-05
259 1 9.43456 12.5793 6.30228 -8.8881 7.46593e-05
260 1 11.007 14.1517 7.87179 -8.90464 5.04865e-05
261 1 12.5793 12.5793 6.30221 -8.8881 7.1317e-05
262 1 14.1517 14.1517 7.87163 -8.90466 4.60746e-05
263 1 15.7242 12.5794 6.30208 -8.88811 6.88693e-05
264 1 17.2966 14.1518 7.87147 -8.90467 4.42216e-05
265 1 18.8691 12.5794 6.30198 -8.88811 6.92703e-05
266 1 20.4415 14.1518 7.87141 -8.90467 4.56959e-05
267 1 7.53941e-05 15.7242 6.30194 -8.88811 7.22515e-05
268 1 1.57255 17.2966 7.87141 -8.90467 4.92303e-05
269 1 3.14495 15.7242 6.30204 -8.88811 7.44402e-05
270 1 4.71741 17.2966 7.87155 -8.90466 5.13868e-05
271 1 6.28978 15.7242 6.30215 -8.8881 7.54399e-05
272 1 7.86219 17.2965 7.87166 -8.90465 5.14483e-05
273 1 9.43456 15.7242 6.3022 -8.8881 7.42034e-05
274 1 11.007 17.2965 7.87164 -8.90466 4.92465e-05
275 1 12.5794 15.7242 6.30213 -8.88811 7.16172e-05
276 1 14.1518 17.2966 7.87152 -8.90466 4.6588e-05
277 1 15.7242 15.7242 6.30202 -8.88811 6.98382e-05
278 1 17.2966 17.2966 7.87139 -8.90467 4.55534e-05
279 1 18.8691 15.7242 6.30193 -8.88811 7.02545e-05
280 1 20.4415 17.2966 7.87134 -8.90467 4.68121e-05
281 1 6.75569e-05 18.869 6.30188 -8.88811 7.30532e-05
282 1 1.57254 20.4415 7.87134 -8.90467 4.94829e-05
283 1 3.14494 18.869 6.30196 -8.88811 7.45977e-05
284 1 4.71739 20.4414 7.87145 -8.90467 5.05917e-05
285 1 6.28977 18.869 6.30205 -8.88811 7.49274e-05
286 1 7.86218 20.4414 7.87154 -8.90466 5.00955e-05
287 1 9.43456 18.869 6.30209 -8.88811 7.37435e-05
288 1 11.007 20.4414 7.87153 -8.90466 4.84404e-05
289 1 12.5794 18.869 6.30204 -8.88811 7.19902e-05
290 1 14.1518 20.4414 7.87144 -8.90467 4.69012e-05
291 1 15.7242 18.869 6.30194 -8.88811 7.09837e-05
292 1 17.2966 20.4415 7.87133 -8.90467 4.65588e-05
293 1 18.8691 18.869 6.30187 -8.88812 7.14629e-05
294 1 20.4415 20.4415 7.87128 -8.90467 4.76906e-05
295 1 0.000122356 1.09791e-15 9.43985 -8.89867 2.5461e-05
296 1 1.57264 1.57247 11.0083 -8.90009 1.10624e-05
297 1 3.14502 22.0139 9.43997 -8.89867 2.71577e-05
298 1 4.7175 1.5725 11.0085 -8.90008 1.25761e-05
299 1 6.28983 9.13979e-16 9.44011 -8.89867 2.75528e-05
300 1 7.86224 1.57251 11.0086 -8.90008 1.23726e-05
301 1 9.43458 1.39733e-15 9.44016 -8.89867 2.63928e-05
302 1 11.007 1.5725 11.0086 -8.90008 1.07277e-05
303 1 12.5793 1.52052e-15 9.44009 -8.89867 2.46356e-05
304 1 14.1517 1.57248 11.0085 -8.90008 8.95914e-06
305 1 15.7242 1.02888e-15 9.43995 -8.89867 2.35509e-05
306 1 17.2966 1.57246 11.0083 -8.90009 8.29872e-06
307 1 18.8691 22.0139 9.43984 -8.89867 2.38818e-05
308 1 20.4416 1.57246 11.0082 -8.90009 9.17822e-06
309 1 0.000131942 3.1449 9.4399 -8.89867 2.52118e-05
310 1 1.57268 4.71738 11.0084 -8.90009 1.15339e-05
311 1 3.14503 3.14492 9.44004 -8.89867 2.76376e-05
312 1 4.71755 4.71743 11.0087 -8.90007 1.54938e-05
313 1 6.28984 3.14495 9.4402 -8.89867 2.87892e-05
314 1 7.86228 4.71747 11.0089 -8.90006 1.68732e-05
315 1 9.43458 3.14495 9.44026 -8.89867 2.76427e-05
316 1 11.007 4.71746 11.0089 -8.90006 1.39873e-05
317 1 12.5793 3.14494 9.44017 -8.89867 2.51729e-05
318 1 14.1517 4.7174 11.0086 -8.90008 9.73155e-06
319 1 15.7242 3.14491 9.44 -8.89867 2.33083e-05
320 1 17.2966 4.71736 11.0084 -8.90009 7.71256e-06
321 1 18.8691 3.1449 9.43988 -8.89867 2.33715e-05
322 1 20.4416 4.71735 11.0083 -8.90009 8.66814e-06
323 1 0.000152759 6.28976 9.44 -8.89867 2.45921e-05
324 1 1.57272 7.8622 11.0086 -8.90008 1.19693e-05
325 1 3.14507 6.28979 9.44018 -8.89867 2.8501e-05
326 1 4.71761 7.86224 11.0089 -8.90006 1.90325e-05
327 1 6.28988 6.28982 9.4404 -8.89866 3.20729e-05
328 1 7.86232 7.86228 11.0092 -8.89999 2.51019e-05
329 1 9.43459 6.28983 9.44048 -8.89865 3.13351e-05
330 1 11.0069 7.86227 11.0092 -8.90001 1.99812e-05
331 1 12.5793 6.2898 9.44035 -8.89866 2.66609e-05
332 1 14.1517 7.86222 11.0088 -8.90007 1.04085e-05
333 1 15.7242 6.28977 9.44013 -8.89867 2.25595e-05
334 1 17.2966 7.86218 11.0085 -8.90008 6.8605e-06
335 1 18.8691 6.28975 9.43998 -8.89867 2.21797e-05
336 1 20.4416 7.86217 11.0084 -8.90008 8.02279e-06
337 1 0.000168976 9.43456 9.44008 -8.89867 2.40647e-05
338 1 1.57274 11.007 11.0086 -8.90008 1.21383e-05
339 1 3.14509 9.43457 9.44029 -8.89867 2.9068e-05
340 1 4.71764 11.007 11.009 -8.90006 2.06119e-05
341 1 6.2899 9.43459 9.44056 -8.89865 3.48306e-05
342 1 7.86234 11.007 11.0094 -8.89997 2.94979e-05
343 1 9.4346 9.43459 9.44066 -8.89864 3.49272e-05
344 1 11.0069 11.007 11.0093 -8.89999 2.33526e-05
345 1 12.5793 9.43458 9.4405 -8.89866 2.79282e-05
346 1 14.1517 11.007 11.0089 -8.90007 1.06262e-05
347 1 15.7242 9.43457 9.44022 -8.89867 2.18246e-05
348 1 17.2966 11.007 11.0086 -8.90008 6.45904e-06
349 1 18.8691 9.43456 9.44005 -8.89867 2.11996e-05
350 1 20.4416 11.007 11.0085 -8.90008 7.74249e-06
351 1 0.000168976 12.5793 9.44008 -8.89867 2.40647e-05
352 1 1.57272 14.1517 11.0086 -8.90008 1.19693e-05
353 1 3.14509 12.5793 9.44029 -8.89867 2.9068e-05
354 1 4.71761 14.1517 11.0089 -8.90006 1.90325e-05
355 1 6.2899 12.5793 9.44056 -8.89865 3.48306e-05
356 1 7.86232 14.1516 11.0092 -8.89999 2.51019e-05
357 1 9.4346 12.5793 9.44066 -8.89864 3.49272e-05
358 1 11.0069 14.1516 11.0092 -8.90001 1.99812e-05
359 1 12.5793 12.5793 9.4405 -8.89866 2.79282e-05
360 1 14.1517 14.1517 11.0088 -8.90007 1.04085e-05
361 1 15.7242 12.5793 9.44022 -8.89867 2.18246e-05
362 1 17.2966 14.1517 11.0085 -8.90008 6.8605e-06
363 1 18.8691 12.5793 9.44005 -8.89867 2.11996e-05
364 1 20.4416 14.1517 11.0084 -8.90008 8.02279e-06
365 1 0.000152759 15.7241 9.44 -8.89867 2.45921e-05
366 1 1.57268 17.2965 11.0084 -8.90009 1.15339e-05
367 1 3.14507 15.7241 9.44018 -8.89867 2.8501e-05
368 1 4.71755 17.2965 11.0087 -8.90007 1.54938e-05
369 1 6.28988 15.7241 9.4404 -8.89866 3.20729e-05
370 1 7.86228 17.2964 11.0089 -8.90006 1.68732e-05
371 1 9.43459 15.7241 9.44048 -8.89865 3.13351e-05
372 1 11.007 17.2964 11.0089 -8.90006 1.39873e-05
373 1 12.5793 15.7241 9.44035 -8.89866 2.66609e-05
374 1 14.1517 17.2965 11.0086 -8.90008 9.73155e-06
375 1 15.7242 15.7241 9.44013 -8.89867 2.25595e-05
376 1 17.2966 17.2965 11.0084 -8.90009 7.71256e-06
377 1 18.8691 15.7242 9.43998 -8.89867 2.21797e-05
378 1 20.4416 17.2966 11.0083 -8.90009 8.66814e-06
379 1 0.000131942 18.869 9.4399 -8.89867 2.52118e-05
380 1 1.57264 20.4414 11.0083 -8.90009 1.10624e-05
381 1 3.14503 18.869 9.44004 -8.89867 2.76376e-05
382 1 4.7175 20.4414 11.0085 -8.90008 1.25761e-05
383 1 6.28984 18.869 9.4402 -8.89867 2.87892e-05
384 1 7.86224 20.4414 11.0086 -8.90008 1.23726e-05
385 1 9.43458 18.869 9.44026 -8.89867 2.76427e-05
386 1 11.007 20.4414 11.0086 -8.90008 1.07277e-05
387 1 12.5793 18.869 9.44017 -8.89867 2.51729e-05
388 1 14.1517 20.4414 11.0085 -8.90008 8.95914e-06
389 1 15.7242 18.869 9.44 -8.89867 2.33083e-05
390 1 17.2966 20.4414 11.0083 -8.90009 8.29872e-06
391 1 18.8691 18.869 9.43988 -8.89867 2.33715e-05
392 1 20.4416 20.4414 11.0082 -8.90009 9.17822e-06
393 1 0.000214611 1.30142e-15 12.5766 -8.89868 2.2442e-06
394 1 3.14515 22.0139 12.5768 -8.89869 3.46965e-06
395 1 6.28993 22.0139 12.577 -8.89868 3.65562e-06
396 1 9.43462 22.0139 12.5771 -8.89868 2.70319e-06
397 1 12.5793 1.60613e-15 12.5769 -8.89868 1.58382e-06
398 1 15.7242 22.0139 12.5767 -8.89868 9.71819e-07
399 1 18.8691 22.0139 12.5765 -8.89868 1.2112e-06
400 1 0.000239381 3.14494 12.5766 -8.89868 2.44327e-06
401 1 3.14519 3.145 12.5769 -8.89869 4.76221e-06
402 1 6.28998 3.14507 12.5772 -8.89868 6.41554e-06
403 1 9.43463 3.14508 12.5773 -8.89868 5.26191e-06
404 1 12.5793 3.14503 12.5771 -8.89868 2.73324e-06
405 1 15.7241 3.14496 12.5768 -8.89869 1.04271e-06
406 1 18.8691 3.14492 12.5766 -8.89868 1.1163e-06
407 1 0.000291583 6.2898 12.5768 -8.89868 2.86314e-06
408 1 3.14528 6.28988 12.5771 -8.89869 7.62725e-06
409 1 6.29009 6.28998 12.5776 -8.89867 1.67514e-05
410 1 9.43466 6.29001 12.5778 -8.89867 1.63483e-05
411 1 12.5793 6.28994 12.5775 -8.89868 7.01726e-06
412 1 15.7241 6.28983 12.577 -8.89868 1.01395e-06
413 1 18.8691 6.28978 12.5767 -8.89867 9.40488e-07
414 1 0.000331324 9.43458 12.5769 -8.89868 3.22982e-06
415 1 3.14535 9.43461 12.5773 -8.89869 9.77611e-06
416 1 6.29018 9.43466 12.578 -8.89868 2.6396e-05
417 1 9.43469 9.43468 12.5782 -8.8985 3.11603e-05
418 1 12.5793 9.43464 12.5778 -8.89869 1.0975e-05
419 1 15.7241 9.43459 12.5772 -8.89869 8.2981e-07
420 1 18.8692 9.43457 12.5769 -8.89867 8.85843e-07
421 1 0.000331324 12.5793 12.5769 -8.89868 3.22982e-06
422 1 3.14535 12.5793 12.5773 -8.89869 9.77611e-06
423 1 6.29018 12.5792 12.578 -8.89868 2.6396e-05
424 1 9.43469 12.5792 12.5782 -8.8985 3.11603e-05
425 1 12.5793 12.5793 12.5778 -8.89869 1.0975e-05
426 1 15.7241 12.5793 12.5772 -8.89869 8.2981e-07
427 1 18.8692 12.5793 12.5769 -8.89867 8.85843e-07
428 1 0.000291583 15.7241 12.5768 -8.89868 2.86314e-06
429 1 3.14528 15.724 12.5771 -8.89869 7.62725e-06
430 1 6.29009 15.7239 12.5776 -8.89867 1.67514e-05
431 1 9.43466 15.7239 12.5778 -8.89867 1.63483e-05
432 1 12.5793 15.724 12.5775 -8.89868 7.01726e-06
433 1 15.7241 15.7241 12.577 -8.89868 1.01395e-06
434 1 18.8691 15.7241 12.5767 -8.89867 9.40488e-07
435 1 0.000239381 18.869 12.5766 -8.89868 2.44327e-06
436 1 3.14519 18.8689 12.5769 -8.89869 4.76221e-06
437 1 6.28998 18.8688 12.5772 -8.89868 6.41554e-06
438 1 9.43463 18.8688 12.5773 -8.89868 5.26191e-06
439 1 12.5793 18.8689 12.5771 -8.89868 2.73324e-06
440 1 15.7241 18.8689 12.5768 -8.89869 1.04271e-06
441 1 18.8691 18.869 12.5766 -8.89868 1.1163e-06
442 1 1.57278 1.57251 14.1452 -8.90468 2.42432e-06
443 1 4.71766 1.57257 14.1455 -8.90467 2.64421e-06
444 1 7.86234 1.57261 14.1458 -8.90466 1.52339e-06
445 1 11.007 1.57259 14.1457 -8.90467 5.26391e-07
446 1 14.1517 1.57253 14.1455 -8.90467 6.4767e-07
447 1 17.2966 1.57248 14.1452 -8.90467 1.40261e-06
448 1 20.4417 1.57247 14.145 -8.90467 1.96581e-06
449 1 1.57288 4.71746 14.1454 -8.90467 4.25368e-06
450 1 4.71782 4.71763 14.146 -8.90471 1.04129e-05
451 1 7.86244 4.71774 14.1463 -8.90468 1.37593e-05
452 1 11.007 4.71769 14.1463 -8.90469 7.41904e-06
453 1 14.1516 4.71753 14.1458 -8.90471 1.30525e-06
454 1 17.2966 4.7174 14.1453 -8.90467 1.59279e-06
455 1 20.4417 4.71738 14.1452 -8.90466 2.76793e-06
456 1 1.57298 7.86226 14.1457 -8.90467 6.59206e-06
457 1 4.718 7.8624 14.1464 -8.90471 2.23911e-05
458 1 7.86262 7.86255 14.1472 -8.9045 6.58258e-05
459 1 11.0069 7.8625 14.1471 -8.90459 3.94731e-05
460 1 14.1516 7.86231 14.1462 -8.90471 1.95242e-06
461 1 17.2966 7.8622 14.1455 -8.90467 2.28586e-06
462 1 20.4418 7.86219 14.1453 -8.90466 4.10496e-06
463 1 1.57303 11.007 14.1458 -8.90467 7.67364e-06
464 1 4.71807 11.007 14.1466 -8.90471 2.78877e-05
465 1 7.86272 11.007 14.1476 -8.90466 9.83593e-05
466 1 11.0069 11.007 14.1474 -8.90475 6.36314e-05
467 1 14.1516 11.007 14.1463 -8.90471 1.85654e-06
468 1 17.2967 11.007 14.1456 -8.90467 2.77218e-06
469 1 20.4418 11.007 14.1454 -8.90466 4.8214e-06
470 1 1.57298 14.1516 14.1457 -8.90467 6.59206e-06
471 1 4.718 14.1515 14.1464 -8.90471 2.23911e-05
472 1 7.86262 14.1514 14.1472 -8.9045 6.58258e-05
473 1 11.0069 14.1514 14.1471 -8.90459 3.94731e-05
474 1 14.1516 14.1516 14.1462 -8.90471 1.95242e-06
475 1 17.2966 14.1517 14.1455 -8.90467 2.28586e-06
476 1 20.4418 14.1517 14.1453 -8.90466 4.10496e-06
477 1 1.57288 17.2964 14.1454 -8.90467 4.25368e-06
478 1 4.71782 17.2963 14.146 -8.90471 1.04129e-05
479 1 7.86244 17.2962 14.1463 -8.90468 1.37593e-05
480 1 11.007 17.2962 14.1463 -8.90469 7.41904e-06
481 1 14.1516 17.2964 14.1458 -8.90471 1.30525e-06
482 1 17.2966 17.2965 14.1453 -8.90467 1.59279e-06
483 1 20.4417 17.2965 14.1452 -8.90466 2.76793e-06
484 1 1.57278 20.4414 14.1452 -8.90468 2.42432e-06
485 1 4.71766 20.4413 14.1455 -8.90467 2.64421e-06
486 1 7.86234 20.4413 14.1458 -8.90466 1.52339e-06
487 1 11.007 20.4413 14.1457 -8.90467 5.26391e-07
488 1 14.1517 20.4414 14.1455 -8.90467 6.4767e-07
489 1 17.2966 20.4414 14.1452 -8.90467 1.40261e-06
490 1 20.4417 20.4414 14.145 -8.90467 1.96581e-06
491 1 0.000316015 1.35476e-15 15.7144 -8.88813 8.00146e-06
492 1 1.5729 1.57254 17.2765 -8.90302 2.00887e-05
493 1 3.14529 9.58362e-16 15.7147 -8.88816 6.89226e-06
494 1 4.71785 1.5727 17.277 -8.90305 1.89908e-05
495 1 6.29006 1.13966e-15 15.7151 -8.88813 4.16813e-06
496 1 7.86247 1.57279 17.2773 -8.903 1.35788e-05
497 1 9.43467 22.0139 15.7152 -8.88813 2.48813e-06
498 1 11.007 1.57274 17.2773 -8.90302 1.18208e-05
499 1 12.5793 22.0139 15.715 -8.88813 4.21058e-06
500 1 14.1517 1.57261 17.2769 -8.90306 1.64984e-05
501 1 15.7242 22.0139 15.7147 -8.88815 7.13178e-06
502 1 17.2967 1.57248 17.2764 -8.90303 2.13566e-05
503 1 18.8692 22.0139 15.7144 -8.88813 8.36463e-06
504 1 20.4418 1.57247 17.2763 -8.90302 2.1351e-05
505 1 0.000371892 3.14497 15.7145 -8.88814 9.03141e-06
506 1 1.57313 4.71754 17.2768 -8.90305 2.65282e-05
507 1 3.1454 3.14511 15.7149 -8.88818 9.64716e-06
508 1 4.71831 4.71804 17.2777 -8.90328 6.16214e-05
509 1 6.29018 3.1453 15.7154 -8.88814 1.18009e-05
510 1 7.86279 4.71836 17.2785 -8.90304 9.83402e-05
511 1 9.43471 3.14533 15.7156 -8.88815 8.29881e-06
512 1 11.0069 4.71821 17.2783 -8.90309 5.65755e-05
513 1 12.5793 3.1452 15.7153 -8.88814 5.08409e-06
514 1 14.1515 4.71775 17.2774 -8.90324 2.01474e-05
515 1 15.7241 3.14501 15.7148 -8.88816 6.74812e-06
516 1 17.2967 4.71739 17.2766 -8.90304 2.17127e-05
517 1 18.8692 3.14493 15.7145 -8.88813 9.01036e-06
518 1 20.4418 4.71737 17.2765 -8.903 2.47061e-05
519 1 0.000487394 6.28983 15.7148 -8.88812 1.19206e-05
520 1 1.57334 7.86232 17.2772 -8.90304 3.49313e-05
521 1 3.14564 6.29003 15.7154 -8.88816 1.88059e-05
522 1 4.71876 7.86273 17.2786 -8.90317 0.000131488
523 1 6.29054 6.29038 15.7165 -8.8881 6.92609e-05
524 1 7.86366 7.86356 17.2811 -8.9048 0.00103725
525 1 9.43482 6.29046 15.7168 -8.88795 7.21725e-05
526 1 11.0067 7.86335 17.2805 -8.90503 0.000597851
527 1 12.5792 6.29021 15.7161 -8.88807 2.06934e-05
528 1 14.1516 7.86244 17.278 -8.90325 1.69993e-05
529 1 15.7241 6.28988 15.7151 -8.88812 5.68351e-06
530 1 17.2968 7.86218 17.2769 -8.90303 2.58032e-05
531 1 18.8692 6.28978 15.7147 -8.88811 1.13204e-05
532 1 20.442 7.86218 17.2767 -8.903 3.0822e-05
533 1 0.000570663 9.43459 15.715 -8.88812 1.46765e-05
534 1 1.57342 11.007 17.2773 -8.90304 3.83231e-05
535 1 3.14579 9.43468 15.7157 -8.88816 2.56523e-05
536 1 4.71891 11.007 17.2789 -8.90326 0.000147431
537 1 6.29079 9.43484 15.7172 -8.88798 0.000126473
538 1 7.86405 11.007 17.2819 -8.90659 0.00124487
539 1 9.43495 9.4349 15.7182 -8.88583 0.000278628
540 1 11.0067 11.007 17.2813 -8.90618 0.000807914
541 1 12.5792 9.43476 15.7167 -8.88805 3.77954e-05
542 1 14.1517 11.007 17.2782 -8.90344 9.25479e-06
543 1 15.7242 9.43461 15.7154 -8.88812 5.63464e-06
544 1 17.2969 11.007 17.277 -8.90304 2.93728e-05
545 1 18.8693 9.43457 15.7148 -8.88811 1.42486e-05
546 1 20.442 11.007 17.2768 -8.90301 3.4153e-05
547 1 0.000570663 12.5793 15.715 -8.88812 1.46765e-05
548 1 1.57334 14.1516 17.2772 -8.90304 3.49313e-05
549 1 3.14579 12.5792 15.7157 -8.88816 2.56523e-05
550 1 4.71876 14.1512 17.2786 -8.90317 0.000131488
551 1 6.29079 12.5791 15.7172 -8.88798 0.000126473
552 1 7.86366 14.1503 17.2811 -8.9048 0.00103725
553 1 9.43495 12.579 15.7182 -8.88583 0.000278628
554 1 11.0067 14.1506 17.2805 -8.90503 0.000597851
555 1 12.5792 12.5791 15.7167 -8.88805 3.77954e-05
556 1 14.1516 14.1515 17.278 -8.90325 1.69993e-05
557 1 15.7242 12.5793 15.7154 -8.88812 5.63464e-06
558 1 17.2968 14.1517 17.2769 -8.90303 2.58032e-05
559 1 18.8693 12.5793 15.7148 -8.88811 1.42486e-05
560 1 20.442 14.1517 17.2767 -8.903 3.0822e-05
561 1 0.000487394 15.7241 15.7148 -8.88812 1.19206e-05
562 1 1.57313 17.2964 17.2768 -8.90305 2.65282e-05
563 1 3.14564 15.7239 15.7154 -8.88816 1.88059e-05
564 1 4.71831 17.2959 17.2777 -8.90328 6.16214e-05
565 1 6.29054 15.7235 15.7165 -8.8881 6.92609e-05
566 1 7.86279 17.2955 17.2785 -8.90304 9.83402e-05
567 1 9.43482 15.7234 15.7168 -8.88795 7.21725e-05
568 1 11.0069 17.2957 17.2783 -8.90309 5.65755e-05
569 1 12.5792 15.7237 15.7161 -8.88807 2.06934e-05
570 1 14.1515 17.2961 17.2774 -8.90324 2.01474e-05
571 1 15.7241 15.724 15.7151 -8.88812 5.68351e-06
572 1 17.2967 17.2965 17.2766 -8.90304 2.17127e-05
573 1 18.8692 15.7241 15.7147 -8.88811 1.13204e-05
574 1 20.4418 17.2965 17.2765 -8.903 2.47061e-05
575 1 0.000371892 18.8689 15.7145 -8.88814 9.03141e-06
576 1 1.5729 20.4414 17.2765 -8.90302 2.00887e-05
577 1 3.1454 18.8688 15.7149 -8.88818 9.64716e-06
578 1 4.71785 20.4412 17.277 -8.90305 1.89908e-05
579 1 6.29018 18.8686 15.7154 -8.88814 1.18009e-05
580 1 7.86247 20.4411 17.2773 -8.903 1.35788e-05
581 1 9.43471 18.8686 15.7156 -8.88815 8.29881e-06
582 1 11.007 20.4412 17.2773 -8.90302 1.18208e-05
583 1 12.5793 18.8687 15.7153 -8.88814 5.08409e-06
584 1 14.1517 20.4413 17.2769 -8.90306 1.64984e-05
585 1 15.7241 18.8689 15.7148 -8.88816 6.74812e-06