ITEM: TIMESTEP
331
ITEM: NUMBER OF ATOMS
736
ITEM: BOX BOUNDS pp pp pp
0.0000000000000000e+00 2.2013900999999997e+01
0.0000000000000000e+00 2.2013900999999997e+01
0.0000000000000000e+00 5.3462330999999999e+01
ITEM: ATOMS id type x y z c_pot c_ke
1 1 -0.000975247 -1.07179e-15 0.097635 -7.40188 2.9047e-09
2 1 1.57142 1.5724 1.62442 -8.68379 2.59026e-09
3 1 3.14381 -1.00316e-15 0.0976085 -7.40187 2.90983e-09
4 1 4.71623 1.57239 1.62435 -8.68379 2.59354e-09
5 1 6.28864 -8.93801e-16 0.0975491 -7.40185 2.91527e-09
6 1 7.86108 1.57239 1.62427 -8.68378 2.59591e-09
7 1 9.43352 -1.59586e-15 0.0975016 -7.40183 2.91693e-09
8 1 11.006 1.57239 1.62423 -8.68378 2.59562e-09
9 1 12.5784 -1.61644e-15 0.0975016 -7.40183 2.91357e-09
10 1 14.1509 1.57239 1.62427 -8.68378 2.59287e-09
11 1 15.7233 -1.82676e-15 0.0975492 -7.40185 2.90771e-09
12 1 17.2957 1.57239 1.62435 -8.68379 2.58973e-09
13 1 18.8681 -1.66446e-15 0.0976086 -7.40187 2.90376e-09
14 1 20.4405 1.5724 1.62442 -8.68379 2.58856e-09
15 1 -0.000975242 3.14479 0.0976085 -7.40187 2.90475e-09
16 1 1.57141 4.71721 1.62435 -8.68379 2.5904e-09
17 1 3.14381 3.14479 0.0975792 -7.40186 2.90984e-09
18 1 4.71622 4.7172 1.62427 -8.68378 2.59359e-09
19 1 6.28864 3.14478 0.0975135 -7.40184 2.9152e-09
20 1 7.86108 4.71719 1.62417 -8.68377 2.59587e-09
21 1 9.43352 3.14477 0.0974609 -7.40182 2.91679e-09
22 1 11.006 4.71719 1.62412 -8.68377 2.59552e-09
23 1 12.5784 3.14477 0.0974609 -7.40182 2.91343e-09
24 1 14.1509 4.71719 1.62417 -8.68377 2.59284e-09
25 1 15.7233 3.14478 0.0975136 -7.40184 2.90765e-09
26 1 17.2957 4.7172 1.62427 -8.68378 2.5898e-09
27 1 18.8681 3.14479 0.0975793 -7.40186 2.90378e-09
28 1 20.4405 4.71721 1.62435 -8.68379 2.58871e-09
29 1 -0.000975231 6.28962 0.0975491 -7.40185 2.90488e-09
30 1 1.57141 7.86206 1.62427 -8.68378 2.59061e-09
31 1 3.1438 6.28962 0.0975135 -7.40184 2.90989e-09
32 1 4.71621 7.86206 1.62417 -8.68377 2.5937e-09
33 1 6.28863 6.28961 0.0974333 -7.40181 2.91507e-09
34 1 7.86107 7.86205 1.62404 -8.68377 2.59584e-09
35 1 9.43352 6.2896 0.0973686 -7.40178 2.91649e-09
36 1 11.006 7.86205 1.62398 -8.68376 2.59544e-09
37 1 12.5784 6.2896 0.0973686 -7.40178 2.91314e-09
38 1 14.1509 7.86205 1.62404 -8.68377 2.59283e-09
39 1 15.7233 6.28961 0.0974333 -7.40181 2.90752e-09
40 1 17.2957 7.86206 1.62417 -8.68377 2.58993e-09
41 1 18.8681 6.28962 0.0975136 -7.40184 2.90384e-09
42 1 20.4405 7.86206 1.62427 -8.68378 2.58892e-09
43 1 -0.000975222 9.4345 0.0975016 -7.40183 2.905e-09
44 1 1.57141 11.007 1.62423 -8.68378 2.59071e-09
45 1 3.1438 9.4345 0.0974609 -7.40182 2.90994e-09
46 1 4.71621 11.007 1.62412 -8.68377 2.59376e-09
47 1 6.28862 9.43449 0.0973685 -7.40178 2.91497e-09
48 1 7.86107 11.007 1.62398 -8.68376 2.59584e-09
49 1 9.43351 9.43449 0.0972937 -7.40175 2.91626e-09
50 1 11.006 11.007 1.62392 -8.68376 2.59541e-09
51 1 12.5784 9.43449 0.0972937 -7.40175 2.91291e-09
52 1 14.1509 11.007 1.62398 -8.68376 2.59283e-09
53 1 15.7233 9.43449 0.0973686 -7.40178 2.90742e-09
54 1 17.2957 11.007 1.62412 -8.68377 2.59e-09
55 1 18.8682 9.4345 0.0974609 -7.40182 2.90389e-09
56 1 20.4405 11.007 1.62423 -8.68378 2.58903e-09
57 1 -0.000975222 12.5794 0.0975016 -7.40183 2.905e-09
58 1 1.57141 14.1518 1.62427 -8.68378 2.59061e-09
59 1 3.1438 12.5794 0.0974609 -7.40182 2.90994e-09
60 1 4.71621 14.1518 1.62417 -8.68377 2.5937e-09
61 1 6.28862 12.5794 0.0973685 -7.40178 2.91497e-09
62 1 7.86107 14.1519 1.62404 -8.68377 2.59584e-09
63 1 9.43351 12.5794 0.0972937 -7.40175 2.91626e-09
64 1 11.006 14.1519 1.62398 -8.68376 2.59544e-09
65 1 12.5784 12.5794 0.0972937 -7.40175 2.91291e-09
66 1 14.1509 14.1519 1.62404 -8.68377 2.59283e-09
67 1 15.7233 12.5794 0.0973686 -7.40178 2.90742e-09
68 1 17.2957 14.1518 1.62417 -8.68377 2.58993e-09
69 1 18.8682 12.5794 0.0974609 -7.40182 2.90389e-09
70 1 20.4405 14.1518 1.62427 -8.68378 2.58892e-09
71 1 -0.000975231 15.7243 0.0975491 -7.40185 2.90488e-09
72 1 1.57141 17.2967 1.62435 -8.68379 2.5904e-09
73 1 3.1438 15.7243 0.0975135 -7.40184 2.90989e-09
74 1 4.71622 17.2967 1.62427 -8.68378 2.59359e-09
75 1 6.28863 15.7243 0.0974333 -7.40181 2.91507e-09
76 1 7.86108 17.2967 1.62417 -8.68377 2.59587e-09
77 1 9.43352 15.7243 0.0973686 -7.40178 2.91649e-09
78 1 11.006 17.2967 1.62412 -8.68377 2.59552e-09
79 1 12.5784 15.7243 0.0973686 -7.40178 2.91314e-09
80 1 14.1509 17.2967 1.62417 -8.68377 2.59284e-09
81 1 15.7233 15.7243 0.0974333 -7.40181 2.90752e-09
82 1 17.2957 17.2967 1.62427 -8.68378 2.5898e-09
83 1 18.8681 15.7243 0.0975136 -7.40184 2.90384e-09
84 1 20.4405 17.2967 1.62435 -8.68379 2.58871e-09
85 1 -0.000975242 18.8691 0.0976085 -7.40187 2.90475e-09
86 1 1.57142 20.4415 1.62442 -8.68379 2.59026e-09
87 1 3.14381 18.8691 0.0975792 -7.40186 2.90984e-09
88 1 4.71623 20.4415 1.62435 -8.68379 2.59354e-09
89 1 6.28864 18.8691 0.0975135 -7.40184 2.9152e-09
90 1 7.86108 20.4415 1.62427 -8.68378 2.59591e-09
91 1 9.43352 18.8691 0.0974609 -7.40182 2.91679e-09
92 1 11.006 20.4415 1.62423 -8.68378 2.59562e-09
93 1 12.5784 18.8691 0.0974609 -7.40182 2.91343e-09
94 1 14.1509 20.4415 1.62427 -8.68378 2.59287e-09
95 1 15.7233 18.8691 0.0975136 -7.40184 2.90765e-09
96 1 17.2957 20.4415 1.62435 -8.68379 2.58973e-09
97 1 18.8681 18.8691 0.0975793 -7.40186 2.90378e-09
98 1 20.4405 20.4415 1.62442 -8.68379 2.58856e-09
99 1 -0.000987687 -1.26892e-15 3.15455 -8.93805 2.18156e-09
100 1 1.5714 1.5724 4.74383 -8.90301 1.62981e-09
101 1 3.14382 -1.02547e-15 3.15451 -8.93805 2.1828e-09
102 1 4.71621 1.57239 4.74374 -8.90301 1.63062e-09
103 1 6.28865 -1.37086e-15 3.15442 -8.93806 2.18448e-09
104 1 7.86107 1.57239 4.74364 -8.90301 1.63158e-09
105 1 9.43352 -1.67734e-15 3.15435 -8.93807 2.18534e-09
106 1 11.006 1.57238 4.74359 -8.90301 1.63197e-09
107 1 12.5784 -1.60373e-15 3.15435 -8.93807 2.18475e-09
108 1 14.1508 1.57239 4.74364 -8.90301 1.6315e-09
109 1 15.7233 -1.96148e-15 3.15442 -8.93806 2.18313e-09
110 1 17.2957 1.57239 4.74374 -8.90301 1.6305e-09
111 1 18.8681 -1.59925e-15 3.15451 -8.93805 2.1817e-09
112 1 20.4405 1.5724 4.74383 -8.90301 1.62975e-09
113 1 -0.000987681 3.14481 3.15451 -8.93805 2.18168e-09
114 1 1.57139 4.71721 4.74374 -8.90301 1.63011e-09
115 1 3.14381 3.1448 3.15446 -8.93806 2.18291e-09
116 1 4.7162 4.7172 4.74364 -8.90301 1.63088e-09
117 1 6.28865 3.14479 3.15436 -8.93807 2.18455e-09
118 1 7.86105 4.71718 4.7435 -8.90301 1.63179e-09
119 1 9.43352 3.14479 3.15428 -8.93808 2.18539e-09
120 1 11.006 4.71718 4.74344 -8.90301 1.63217e-09
121 1 12.5784 3.14479 3.15428 -8.93808 2.1848e-09
122 1 14.1508 4.71718 4.7435 -8.90301 1.63172e-09
123 1 15.7233 3.14479 3.15436 -8.93807 2.18321e-09
124 1 17.2957 4.7172 4.74364 -8.90301 1.63078e-09
125 1 18.8681 3.1448 3.15446 -8.93806 2.18182e-09
126 1 20.4405 4.71721 4.74374 -8.90301 1.63005e-09
127 1 -0.000987666 6.28964 3.15442 -8.93806 2.18201e-09
128 1 1.57139 7.86206 4.74364 -8.90301 1.63057e-09
129 1 3.14381 6.28963 3.15436 -8.93807 2.1832e-09
130 1 4.71618 7.86205 4.7435 -8.90301 1.63131e-09
131 1 6.28864 6.28962 3.15424 -8.93808 2.18477e-09
132 1 7.86104 7.86204 4.74333 -8.90301 1.63218e-09
133 1 9.43351 6.28962 3.15413 -8.9381 2.18554e-09
134 1 11.006 7.86203 4.74325 -8.90302 1.63253e-09
135 1 12.5784 6.28962 3.15413 -8.9381 2.18495e-09
136 1 14.1509 7.86204 4.74333 -8.90301 1.63212e-09
137 1 15.7233 6.28962 3.15424 -8.93808 2.18345e-09
138 1 17.2957 7.86205 4.7435 -8.90301 1.63123e-09
139 1 18.8681 6.28963 3.15436 -8.93807 2.18213e-09
140 1 20.4405 7.86206 4.74364 -8.90301 1.63052e-09
141 1 -0.000987654 9.43451 3.15435 -8.93807 2.18232e-09
142 1 1.57139 11.007 4.74359 -8.90301 1.6308e-09
143 1 3.1438 9.43451 3.15428 -8.93808 2.18348e-09
144 1 4.71618 11.007 4.74344 -8.90301 1.63154e-09
145 1 6.28863 9.4345 3.15413 -8.9381 2.185e-09
146 1 7.86104 11.007 4.74325 -8.90302 1.63239e-09
147 1 9.43351 9.4345 3.15401 -8.93812 2.18571e-09
148 1 11.006 11.007 4.74316 -8.90302 1.63273e-09
149 1 12.5784 9.4345 3.15401 -8.93812 2.18513e-09
150 1 14.1509 11.007 4.74325 -8.90302 1.63234e-09
151 1 15.7233 9.4345 3.15413 -8.9381 2.18369e-09
152 1 17.2957 11.007 4.74344 -8.90301 1.63146e-09
153 1 18.8681 9.43451 3.15428 -8.93808 2.18242e-09
154 1 20.4405 11.007 4.74359 -8.90301 1.63076e-09
155 1 -0.000987654 12.5794 3.15435 -8.93807 2.18232e-09
156 1 1.57139 14.1518 4.74364 -8.90301 1.63057e-09
157 1 3.1438 12.5794 3.15428 -8.93808 2.18348e-09
158 1 4.71618 14.1518 4.7435 -8.90301 1.63131e-09
159 1 6.28863 12.5794 3.15413 -8.9381 2.185e-09
160 1 7.86104 14.1519 4.74333 -8.90301 1.63218e-09
161 1 9.43351 12.5794 3.15401 -8.93812 2.18571e-09
162 1 11.006 14.1519 4.74325 -8.90302 1.63253e-09
163 1 12.5784 12.5794 3.15401 -8.93812 2.18513e-09
164 1 14.1509 14.1519 4.74333 -8.90301 1.63212e-09
165 1 15.7233 12.5794 3.15413 -8.9381 2.18369e-09
166 1 17.2957 14.1518 4.7435 -8.90301 1.63123e-09
167 1 18.8681 12.5794 3.15428 -8.93808 2.18242e-09
168 1 20.4405 14.1518 4.74364 -8.90301 1.63052e-09
169 1 -0.000987666 15.7243 3.15442 -8.93806 2.18201e-09
170 1 1.57139 17.2967 4.74374 -8.90301 1.63011e-09
171 1 3.14381 15.7243 3.15436 -8.93807 2.1832e-09
172 1 4.7162 17.2967 4.74364 -8.90301 1.63088e-09
173 1 6.28864 15.7243 3.15424 -8.93808 2.18477e-09
174 1 7.86105 17.2967 4.7435 -8.90301 1.63179e-09
175 1 9.43351 15.7243 3.15413 -8.9381 2.18554e-09
176 1 11.006 17.2967 4.74344 -8.90301 1.63217e-09
177 1 12.5784 15.7243 3.15413 -8.9381 2.18495e-09
178 1 14.1508 17.2967 4.7435 -8.90301 1.63172e-09
179 1 15.7233 15.7243 3.15424 -8.93808 2.18345e-09
180 1 17.2957 17.2967 4.74364 -8.90301 1.63078e-09
181 1 18.8681 15.7243 3.15436 -8.93807 2.18213e-09
182 1 20.4405 17.2967 4.74374 -8.90301 1.63005e-09
183 1 -0.000987681 18.8691 3.15451 -8.93805 2.18168e-09
184 1 1.5714 20.4415 4.74383 -8.90301 1.62981e-09
185 1 3.14381 18.8691 3.15446 -8.93806 2.18291e-09
186 1 4.71621 20.4415 4.74374 -8.90301 1.63062e-09
187 1 6.28865 18.8691 3.15436 -8.93807 2.18455e-09
188 1 7.86107 20.4415 4.74364 -8.90301 1.63158e-09
189 1 9.43352 18.8691 3.15428 -8.93808 2.18539e-09
190 1 11.006 20.4415 4.74359 -8.90301 1.63197e-09
191 1 12.5784 18.8691 3.15428 -8.93808 2.1848e-09
192 1 14.1508 20.4415 4.74364 -8.90301 1.6315e-09
193 1 15.7233 18.8691 3.15436 -8.93807 2.18321e-09
194 1 17.2957 20.4415 4.74374 -8.90301 1.6305e-09
195 1 18.8681 18.8691 3.15446 -8.93806 2.18182e-09
196 1 20.4405 20.4415 4.74383 -8.90301 1.62975e-09
197 1 -0.00101385 -1.7315e-15 6.3056 -8.88811 9.95525e-10
198 1 1.57135 1.57238 7.87482 -8.90467 4.87825e-10
199 1 3.14377 -1.79621e-15 6.30555 -8.88811 9.95979e-10
200 1 4.71614 1.57237 7.8747 -8.90467 4.88433e-10
201 1 6.2886 -1.84129e-15 6.30544 -8.88812 9.96965e-10
202 1 7.861 1.57235 7.87456 -8.90467 4.8924e-10
203 1 9.43348 -2.53306e-15 6.30534 -8.88812 9.97755e-10
204 1 11.0059 1.57235 7.87449 -8.90467 4.89631e-10
205 1 12.5784 -2.37345e-15 6.30534 -8.88812 9.9775e-10
206 1 14.1508 1.57235 7.87456 -8.90467 4.89281e-10
207 1 15.7233 -2.01962e-15 6.30544 -8.88812 9.96938e-10
208 1 17.2957 1.57237 7.8747 -8.90467 4.88464e-10
209 1 18.8681 -1.76195e-15 6.30555 -8.88811 9.95942e-10
210 1 20.4405 1.57238 7.87482 -8.90467 4.87832e-10
211 1 -0.00101384 3.14479 6.30555 -8.88811 9.95668e-10
212 1 1.57134 4.71717 7.8747 -8.90467 4.87994e-10
213 1 3.14376 3.14478 6.30549 -8.88811 9.96104e-10
214 1 4.71611 4.71714 7.87454 -8.90466 4.88579e-10
215 1 6.28859 3.14476 6.30535 -8.88812 9.97076e-10
216 1 7.86097 4.7171 7.87433 -8.90467 4.89407e-10
217 1 9.43348 3.14474 6.30524 -8.88812 9.97859e-10
218 1 11.0059 4.71708 7.87423 -8.90467 4.89811e-10
219 1 12.5784 3.14474 6.30524 -8.88812 9.97857e-10
220 1 14.1509 4.7171 7.87433 -8.90467 4.89458e-10
221 1 15.7233 3.14476 6.30535 -8.88812 9.97056e-10
222 1 17.2957 4.71714 7.87454 -8.90466 4.88624e-10
223 1 18.8681 3.14478 6.30549 -8.88811 9.96073e-10
224 1 20.4405 4.71717 7.8747 -8.90467 4.88007e-10
225 1 -0.00101382 6.28962 6.30544 -8.88812 9.96106e-10
226 1 1.57132 7.86203 7.87456 -8.90467 4.88388e-10
227 1 3.14374 6.2896 6.30535 -8.88812 9.96524e-10
228 1 4.71607 7.862 7.87433 -8.90467 4.89008e-10
229 1 6.28856 6.28957 6.30515 -8.88812 9.97473e-10
230 1 7.86093 7.86196 7.87401 -8.90469 4.89874e-10
231 1 9.43346 6.28955 6.30499 -8.88813 9.98234e-10
232 1 11.0059 7.86194 7.87386 -8.90471 4.90282e-10
233 1 12.5784 6.28955 6.30499 -8.88813 9.9824e-10
234 1 14.1509 7.86196 7.87401 -8.90469 4.89939e-10
235 1 15.7233 6.28957 6.30515 -8.88812 9.97472e-10
236 1 17.2958 7.862 7.87433 -8.90467 4.89071e-10
237 1 18.8681 6.2896 6.30535 -8.88812 9.96509e-10
238 1 20.4405 7.86203 7.87456 -8.90467 4.8841e-10
239 1 -0.0010138 9.4345 6.30534 -8.88812 9.9656e-10
240 1 1.57132 11.007 7.87449 -8.90467 4.88623e-10
241 1 3.14373 9.43449 6.30524 -8.88812 9.96986e-10
242 1 4.71605 11.007 7.87423 -8.90467 4.89281e-10
243 1 6.28854 9.43448 6.30499 -8.88813 9.97951e-10
244 1 7.86091 11.007 7.87386 -8.90471 4.90189e-10
245 1 9.43345 9.43447 6.30478 -8.88815 9.98697e-10
246 1 11.0059 11.007 7.87367 -8.90475 4.90599e-10
247 1 12.5784 9.43447 6.30478 -8.88815 9.98708e-10
248 1 14.1509 11.007 7.87386 -8.90471 4.9026e-10
249 1 15.7233 9.43448 6.30499 -8.88813 9.97964e-10
250 1 17.2958 11.007 7.87423 -8.90467 4.89354e-10
251 1 18.8681 9.43449 6.30524 -8.88812 9.96984e-10
252 1 20.4405 11.007 7.87449 -8.90467 4.88649e-10
253 1 -0.0010138 12.5794 6.30534 -8.88812 9.9656e-10
254 1 1.57132 14.1519 7.87456 -8.90467 4.88388e-10
255 1 3.14373 12.5794 6.30524 -8.88812 9.96986e-10
256 1 4.71607 14.1519 7.87433 -8.90467 4.89008e-10
257 1 6.28854 12.5794 6.30499 -8.88813 9.97951e-10
258 1 7.86093 14.1519 7.87401 -8.90469 4.89874e-10
259 1 9.43345 12.5794 6.30478 -8.88815 9.98697e-10
260 1 11.0059 14.152 7.87386 -8.90471 4.90282e-10
261 1 12.5784 12.5794 6.30478 -8.88815 9.98708e-10
262 1 14.1509 14.1519 7.87401 -8.90469 4.89939e-10
263 1 15.7233 12.5794 6.30499 -8.88813 9.97964e-10
264 1 17.2958 14.1519 7.87433 -8.90467 4.89071e-10
265 1 18.8681 12.5794 6.30524 -8.88812 9.96984e-10
266 1 20.4405 14.1519 7.87456 -8.90467 4.8841e-10
267 1 -0.00101382 15.7243 6.30544 -8.88812 9.96106e-10
268 1 1.57134 17.2967 7.8747 -8.90467 4.87994e-10
269 1 3.14374 15.7243 6.30535 -8.88812 9.96524e-10
270 1 4.71611 17.2968 7.87454 -8.90466 4.88579e-10
271 1 6.28856 15.7243 6.30515 -8.88812 9.97473e-10
272 1 7.86097 17.2968 7.87433 -8.90467 4.89407e-10
273 1 9.43346 15.7244 6.30499 -8.88813 9.98234e-10
274 1 11.0059 17.2968 7.87423 -8.90467 4.89811e-10
275 1 12.5784 15.7244 6.30499 -8.88813 9.9824e-10
276 1 14.1509 17.2968 7.87433 -8.90467 4.89458e-10
277 1 15.7233 15.7243 6.30515 -8.88812 9.97472e-10
278 1 17.2957 17.2968 7.87454 -8.90466 4.88624e-10
279 1 18.8681 15.7243 6.30535 -8.88812 9.96509e-10
280 1 20.4405 17.2967 7.8747 -8.90467 4.88007e-10
281 1 -0.00101384 18.8691 6.30555 -8.88811 9.95668e-10
282 1 1.57135 20.4415 7.87482 -8.90467 4.87825e-10
283 1 3.14376 18.8691 6.30549 -8.88811 9.96104e-10
284 1 4.71614 20.4415 7.8747 -8.90467 4.88433e-10
285 1 6.28859 18.8691 6.30535 -8.88812 9.97076e-10
286 1 7.861 20.4415 7.87456 -8.90467 4.8924e-10
287 1 9.43348 18.8692 6.30524 -8.88812 9.97859e-10
288 1 11.0059 20.4416 7.87449 -8.90467 4.89631e-10
289 1 12.5784 18.8692 6.30524 -8.88812 9.97857e-10
290 1 14.1508 20.4415 7.87456 -8.90467 4.89281e-10
291 1 15.7233 18.8691 6.30535 -8.88812 9.97056e-10
292 1 17.2957 20.4415 7.8747 -8.90467 4.88464e-10
293 1 18.8681 18.8691 6.30549 -8.88811 9.96073e-10
294 1 20.4405 20.4415 7.87482 -8.90467 4.87832e-10
295 1 -0.00104878 -3.08909e-15 9.44319 -8.89866 1.27722e-10
296 1 1.57131 1.57237 11.0113 -8.9001 4.00493e-14
297 1 3.14371 -4.1164e-15 9.44312 -8.89865 1.27945e-10
298 1 4.71608 1.57234 11.0112 -8.90009 5.33815e-14
299 1 6.28853 -5.3172e-15 9.44296 -8.89865 1.28438e-10
300 1 7.86094 1.57231 11.011 -8.90009 4.42032e-14
301 1 9.43343 -5.55387e-15 9.44283 -8.89865 1.28846e-10
302 1 11.0059 1.57229 11.0109 -8.90009 3.73463e-14
303 1 12.5784 -5.29579e-15 9.44283 -8.89865 1.2883e-10
304 1 14.1508 1.57231 11.011 -8.90009 3.65321e-14
305 1 15.7233 -4.81883e-15 9.44296 -8.89865 1.28388e-10
306 1 17.2957 1.57234 11.0112 -8.90009 2.47356e-14
307 1 18.8681 -4.36717e-15 9.44312 -8.89865 1.2789e-10
308 1 20.4405 1.57237 11.0113 -8.9001 2.07579e-14
309 1 -0.00104878 3.14476 9.44312 -8.89865 1.27699e-10
310 1 1.57128 4.71715 11.0112 -8.90009 2.94787e-14
311 1 3.14369 3.14474 9.44304 -8.89865 1.2791e-10
312 1 4.716 4.71707 11.0109 -8.90006 4.29591e-14
313 1 6.2885 3.14469 9.44283 -8.89864 1.28414e-10
314 1 7.86086 4.71696 11.0106 -8.90007 3.75387e-14
315 1 9.43342 3.14465 9.44265 -8.89865 1.28844e-10
316 1 11.0059 4.71692 11.0104 -8.90008 3.8052e-14
317 1 12.5784 3.14465 9.44265 -8.89865 1.28832e-10
318 1 14.1509 4.71696 11.0106 -8.90007 4.41808e-14
319 1 15.7233 3.14469 9.44283 -8.89864 1.28372e-10
320 1 17.2958 4.71707 11.0109 -8.90006 3.00683e-14
321 1 18.8681 3.14474 9.44304 -8.89865 1.2786e-10
322 1 20.4405 4.71715 11.0112 -8.90009 1.66045e-14
323 1 -0.00104876 6.28958 9.44296 -8.89865 1.27793e-10
324 1 1.57124 7.86201 11.011 -8.90009 2.21568e-14
325 1 3.14364 6.28955 9.44283 -8.89864 1.28001e-10
326 1 4.71589 7.86193 11.0106 -8.90007 3.31461e-14
327 1 6.28842 6.28947 9.44248 -8.89864 1.28522e-10
328 1 7.86074 7.8618 11.0099 -8.90011 3.65588e-14
329 1 9.43338 6.28941 9.44217 -8.89865 1.29003e-10
330 1 11.0059 7.86175 11.0096 -8.90015 4.98877e-14
331 1 12.5784 6.28941 9.44217 -8.89865 1.29e-10
332 1 14.151 7.8618 11.0099 -8.90011 6.04364e-14
333 1 15.7234 6.28947 9.44248 -8.89864 1.28498e-10
334 1 17.2959 7.86193 11.0106 -8.90007 4.29627e-14
335 1 18.8682 6.28955 9.44283 -8.89864 1.27966e-10
336 1 20.4405 7.86201 11.011 -8.90009 1.90339e-14
337 1 -0.00104874 9.43448 9.44283 -8.89865 1.27987e-10
338 1 1.57122 11.007 11.0109 -8.90009 2.13018e-14
339 1 3.1436 9.43447 9.44265 -8.89865 1.28224e-10
340 1 4.71585 11.007 11.0104 -8.90008 3.13906e-14
341 1 6.28836 9.43443 9.44217 -8.89865 1.28822e-10
342 1 7.86068 11.007 11.0096 -8.90015 4.15816e-14
343 1 9.43334 9.43439 9.44171 -8.89872 1.29358e-10
344 1 11.0059 11.007 11.0091 -8.90037 6.1037e-14
345 1 12.5785 9.43439 9.44171 -8.89872 1.29359e-10
346 1 14.1511 11.007 11.0096 -8.90015 6.95347e-14
347 1 15.7234 9.43443 9.44217 -8.89865 1.28813e-10
348 1 17.2959 11.007 11.0104 -8.90008 5.01316e-14
349 1 18.8682 9.43447 9.44265 -8.89865 1.28203e-10
350 1 20.4405 11.007 11.0109 -8.90009 2.24409e-14
351 1 -0.00104874 12.5794 9.44283 -8.89865 1.27987e-10
352 1 1.57124 14.1519 11.011 -8.90009 2.21568e-14
353 1 3.1436 12.5794 9.44265 -8.89865 1.28224e-10
354 1 4.71589 14.152 11.0106 -8.90007 3.31461e-14
355 1 6.28836 12.5795 9.44217 -8.89865 1.28822e-10
356 1 7.86074 14.1521 11.0099 -8.90011 3.65588e-14
357 1 9.43334 12.5795 9.44171 -8.89872 1.29358e-10
358 1 11.0059 14.1522 11.0096 -8.90015 4.98877e-14
359 1 12.5785 12.5795 9.44171 -8.89872 1.29359e-10
360 1 14.151 14.1521 11.0099 -8.90011 6.04364e-14
361 1 15.7234 12.5795 9.44217 -8.89865 1.28813e-10
362 1 17.2959 14.152 11.0106 -8.90007 4.29627e-14
363 1 18.8682 12.5794 9.44265 -8.89865 1.28203e-10
364 1 20.4405 14.1519 11.011 -8.90009 1.90339e-14
365 1 -0.00104876 15.7243 9.44296 -8.89865 1.27793e-10
366 1 1.57128 17.2968 11.0112 -8.90009 2.94787e-14
367 1 3.14364 15.7243 9.44283 -8.89864 1.28001e-10
368 1 4.716 17.2968 11.0109 -8.90006 4.29591e-14
369 1 6.28842 15.7244 9.44248 -8.89864 1.28522e-10
370 1 7.86086 17.2969 11.0106 -8.90007 3.75387e-14
371 1 9.43338 15.7245 9.44217 -8.89865 1.29003e-10
372 1 11.0059 17.297 11.0104 -8.90008 3.8052e-14
373 1 12.5784 15.7245 9.44217 -8.89865 1.29e-10
374 1 14.1509 17.2969 11.0106 -8.90007 4.41808e-14
375 1 15.7234 15.7244 9.44248 -8.89864 1.28498e-10
376 1 17.2958 17.2968 11.0109 -8.90006 3.00683e-14
377 1 18.8682 15.7243 9.44283 -8.89864 1.27966e-10
378 1 20.4405 17.2968 11.0112 -8.90009 1.66045e-14
379 1 -0.00104878 18.8691 9.44312 -8.89865 1.27699e-10
380 1 1.57131 20.4415 11.0113 -8.9001 4.00493e-14
381 1 3.14369 18.8692 9.44304 -8.89865 1.2791e-10
382 1 4.71608 20.4416 11.0112 -8.90009 5.33814e-14
383 1 6.2885 18.8692 9.44283 -8.89864 1.28414e-10
384 1 7.86094 20.4416 11.011 -8.90009 4.42032e-14
385 1 9.43342 18.8692 9.44265 -8.89865 1.28844e-10
386 1 11.0059 20.4416 11.0109 -8.90009 3.73463e-14
387 1 12.5784 18.8692 9.44265 -8.89865 1.28832e-10
388 1 14.1508 20.4416 11.011 -8.90009 3.65321e-14
389 1 15.7233 18.8692 9.44283 -8.89864 1.28372e-10
390 1 17.2957 20.4416 11.0112 -8.90009 2.47356e-14
391 1 18.8681 18.8692 9.44304 -8.89865 1.2786e-10
392 1 20.4405 20.4415 11.0113 -8.9001 2.07579e-14
393 1 -0.00108728 -4.99105e-15 12.5796 -8.89868 1.21742e-10
394 1 3.14369 -5.74334e-15 12.5795 -8.89867 1.21547e-10
395 1 6.2885 -7.07628e-15 12.5793 -8.89867 1.2097e-10
396 1 9.43339 -6.62429e-15 12.5791 -8.89868 1.20433e-10
397 1 12.5783 -5.53852e-15 12.5791 -8.89868 1.20501e-10
398 1 15.7232 -5.28008e-15 12.5793 -8.89867 1.21108e-10
399 1 18.868 -5.33972e-15 12.5795 -8.89867 1.21643e-10
400 1 22.0128 3.14478 12.5795 -8.89867 1.21999e-10
401 1 3.14365 3.14474 12.5794 -8.89866 1.21822e-10
402 1 6.28844 3.14464 12.5791 -8.89864 1.21235e-10
403 1 9.43336 3.14455 12.5788 -8.89865 1.20621e-10
404 1 12.5784 3.14455 12.5788 -8.89865 1.20696e-10
405 1 15.7233 3.14464 12.5791 -8.89864 1.21387e-10
406 1 18.8681 3.14474 12.5794 -8.89866 1.21928e-10
407 1 22.0128 6.28959 12.5793 -8.89867 1.22268e-10
408 1 3.14355 6.28952 12.5791 -8.89864 1.22112e-10
409 1 6.28825 6.28933 12.5785 -8.89854 1.21581e-10
410 1 9.43326 6.28917 12.5779 -8.8986 1.20735e-10
411 1 12.5785 6.28917 12.5779 -8.8986 1.20826e-10
412 1 15.7235 6.28933 12.5785 -8.89854 1.21769e-10
413 1 18.8682 6.28952 12.5791 -8.89864 1.2224e-10
414 1 22.0128 9.43448 12.5791 -8.89868 1.22214e-10
415 1 3.14347 9.43445 12.5788 -8.89865 1.21965e-10
416 1 6.28809 9.43434 12.5779 -8.8986 1.21198e-10
417 1 9.43312 9.43421 12.5768 -8.89878 1.20156e-10
418 1 12.5786 9.43421 12.5768 -8.89878 1.20249e-10
419 1 15.7236 9.43434 12.5779 -8.8986 1.21404e-10
420 1 18.8683 9.43445 12.5788 -8.89865 1.22109e-10
421 1 22.0128 12.5794 12.5791 -8.89868 1.22214e-10
422 1 3.14347 12.5795 12.5788 -8.89865 1.21965e-10
423 1 6.28809 12.5796 12.5779 -8.8986 1.21198e-10
424 1 9.43312 12.5797 12.5768 -8.89878 1.20156e-10
425 1 12.5786 12.5797 12.5768 -8.89878 1.20249e-10
426 1 15.7236 12.5796 12.5779 -8.8986 1.21404e-10
427 1 18.8683 12.5795 12.5788 -8.89865 1.22109e-10
428 1 22.0128 15.7243 12.5793 -8.89867 1.22268e-10
429 1 3.14355 15.7244 12.5791 -8.89864 1.22112e-10
430 1 6.28825 15.7246 12.5785 -8.89854 1.21581e-10
431 1 9.43326 15.7247 12.5779 -8.8986 1.20735e-10
432 1 12.5785 15.7247 12.5779 -8.8986 1.20826e-10
433 1 15.7235 15.7246 12.5785 -8.89854 1.21769e-10
434 1 18.8682 15.7244 12.5791 -8.89864 1.2224e-10
435 1 22.0128 18.8691 12.5795 -8.89867 1.21999e-10
436 1 3.14365 18.8692 12.5794 -8.89866 1.21822e-10
437 1 6.28844 18.8693 12.5791 -8.89864 1.21235e-10
438 1 9.43336 18.8693 12.5788 -8.89865 1.20621e-10
439 1 12.5784 18.8693 12.5788 -8.89865 1.20696e-10
440 1 15.7233 18.8693 12.5791 -8.89864 1.21387e-10
441 1 18.8681 18.8692 12.5794 -8.89866 1.21928e-10
442 1 1.57131 1.57241 14.1479 -8.9047 4.76367e-10
443 1 4.71611 1.57237 14.1478 -8.90468 4.75757e-10
444 1 7.86094 1.5723 14.1475 -8.9047 4.74436e-10
445 1 11.0058 1.57227 14.1474 -8.9047 4.73846e-10
446 1 14.1508 1.5723 14.1475 -8.9047 4.74757e-10
447 1 17.2956 1.57237 14.1478 -8.90468 4.76135e-10
448 1 20.4404 1.57241 14.1479 -8.9047 4.76527e-10
449 1 1.57127 4.71722 14.1478 -8.90468 4.77717e-10
450 1 4.71598 4.71708 14.1475 -8.90465 4.77495e-10
451 1 7.86077 4.71685 14.1469 -8.90465 4.75836e-10
452 1 11.0058 4.71676 14.1466 -8.90466 4.74911e-10
453 1 14.1509 4.71685 14.1469 -8.90465 4.76197e-10
454 1 17.2957 4.71708 14.1475 -8.90465 4.77919e-10
455 1 20.4404 4.71722 14.1478 -8.90468 4.77893e-10
456 1 1.5712 7.86204 14.1475 -8.9047 4.78427e-10
457 1 4.71575 7.86188 14.1469 -8.90465 4.7807e-10
458 1 7.8604 7.8615 14.1455 -8.9044 4.76553e-10
459 1 11.0058 7.86138 14.1447 -8.90466 4.7475e-10
460 1 14.1513 7.8615 14.1455 -8.9044 4.76965e-10
461 1 17.2959 7.86188 14.1469 -8.90465 4.78536e-10
462 1 20.4405 7.86204 14.1475 -8.9047 4.78619e-10
463 1 1.57117 11.007 14.1474 -8.9047 4.78383e-10
464 1 4.71565 11.007 14.1466 -8.90466 4.77621e-10
465 1 7.86027 11.007 14.1447 -8.90466 4.75362e-10
466 1 11.0058 11.007 14.1432 -8.90674 4.73166e-10
467 1 14.1514 11.007 14.1447 -8.90466 4.75774e-10
468 1 17.296 11.007 14.1466 -8.90466 4.78096e-10
469 1 20.4405 11.007 14.1474 -8.9047 4.78579e-10
470 1 1.5712 14.1519 14.1475 -8.9047 4.78427e-10
471 1 4.71575 14.152 14.1469 -8.90465 4.7807e-10
472 1 7.8604 14.1524 14.1455 -8.9044 4.76553e-10
473 1 11.0058 14.1525 14.1447 -8.90466 4.7475e-10
474 1 14.1513 14.1524 14.1455 -8.9044 4.76965e-10
475 1 17.2959 14.152 14.1469 -8.90465 4.78536e-10
476 1 20.4405 14.1519 14.1475 -8.9047 4.78619e-10
477 1 1.57127 17.2967 14.1478 -8.90468 4.77717e-10
478 1 4.71598 17.2968 14.1475 -8.90465 4.77495e-10
479 1 7.86077 17.297 14.1469 -8.90465 4.75836e-10
480 1 11.0058 17.2971 14.1466 -8.90466 4.74911e-10
481 1 14.1509 17.297 14.1469 -8.90465 4.76197e-10
482 1 17.2957 17.2968 14.1475 -8.90465 4.77919e-10
483 1 20.4404 17.2967 14.1478 -8.90468 4.77893e-10
484 1 1.57131 20.4415 14.1479 -8.9047 4.76367e-10
485 1 4.71611 20.4415 14.1478 -8.90468 4.75757e-10
486 1 7.86094 20.4416 14.1475 -8.9047 4.74436e-10
487 1 11.0058 20.4416 14.1474 -8.9047 4.73846e-10
488 1 14.1508 20.4416 14.1475 -8.9047 4.74757e-10
489 1 17.2956 20.4415 14.1478 -8.90468 4.76135e-10
490 1 20.4404 20.4415 14.1479 -8.9047 4.76527e-10
491 1 22.0128 -4.83007e-15 15.7172 -8.88818 9.80348e-10
492 1 1.57141 1.57255 17.279 -8.90297 1.61282e-09
493 1 3.1438 -5.28038e-15 15.7172 -8.88819 9.7972e-10
494 1 4.71641 1.5726 17.279 -8.90302 1.61166e-09
495 1 6.28862 -3.30548e-15 15.7171 -8.88817 9.78484e-10
496 1 7.86113 1.57254 17.2788 -8.9031 1.60982e-09
497 1 9.43342 4.28955e-17 15.7169 -8.8882 9.77007e-10
498 1 11.0058 1.5725 17.2787 -8.90309 1.60856e-09
499 1 12.5782 2.05583e-15 15.7169 -8.8882 9.77188e-10
500 1 14.1505 1.57254 17.2788 -8.9031 1.61008e-09
501 1 15.723 -4.41946e-16 15.7171 -8.88817 9.78873e-10
502 1 17.2952 1.5726 17.279 -8.90302 1.61195e-09
503 1 18.8679 -4.00432e-15 15.7172 -8.88819 9.8001e-10
504 1 20.4402 1.57255 17.279 -8.90297 1.61294e-09
505 1 22.0128 3.14492 15.7172 -8.88819 9.81538e-10
506 1 1.57146 4.71755 17.279 -8.90302 1.61625e-09
507 1 3.14378 3.14491 15.7171 -8.88818 9.8092e-10
508 1 4.71651 4.71764 17.2789 -8.90324 1.61548e-09
509 1 6.28855 3.14478 15.7169 -8.88809 9.80201e-10
510 1 7.86097 4.71722 17.2782 -8.90292 1.61612e-09
511 1 9.43338 3.14464 15.7165 -8.88817 9.78382e-10
512 1 11.0058 4.71706 17.2777 -8.90284 1.61349e-09
513 1 12.5783 3.14464 15.7165 -8.88817 9.78579e-10
514 1 14.1507 4.71722 17.2782 -8.90292 1.61648e-09
515 1 15.7231 3.14478 15.7169 -8.88809 9.80623e-10
516 1 17.2951 4.71764 17.2789 -8.90324 1.61582e-09
517 1 18.8679 3.14491 15.7171 -8.88818 9.81227e-10
518 1 20.4402 4.71755 17.279 -8.90302 1.61639e-09
519 1 22.0128 6.28974 15.7171 -8.88817 9.84121e-10
520 1 1.5714 7.86227 17.2788 -8.9031 1.62016e-09
521 1 3.14366 6.28967 15.7169 -8.88809 9.84175e-10
522 1 4.71608 7.86211 17.2782 -8.90292 1.62226e-09
523 1 6.28823 6.28936 15.7161 -8.8877 9.85552e-10
524 1 7.85991 7.86105 17.2759 -8.90267 1.62598e-09
525 1 9.43315 6.28897 15.7149 -8.88787 9.81669e-10
526 1 11.0058 7.86102 17.2737 -8.90497 1.61806e-09
527 1 12.5785 6.28897 15.7149 -8.88787 9.81917e-10
528 1 14.1517 7.86105 17.2759 -8.90267 1.62662e-09
529 1 15.7234 6.28936 15.7161 -8.8877 9.86104e-10
530 1 17.2955 7.86211 17.2782 -8.90292 1.62276e-09
531 1 18.868 6.28967 15.7169 -8.88809 9.84538e-10
532 1 20.4402 7.86227 17.2788 -8.9031 1.62034e-09
533 1 22.0128 9.43454 15.7169 -8.8882 9.85122e-10
534 1 1.57136 11.007 17.2787 -8.90309 1.62109e-09
535 1 3.14352 9.4345 15.7165 -8.88817 9.85014e-10
536 1 4.71592 11.007 17.2777 -8.90284 1.62263e-09
537 1 6.28785 9.43427 15.7149 -8.88787 9.85202e-10
538 1 7.85988 11.007 17.2737 -8.90497 1.6236e-09
539 1 9.43256 9.43369 15.7118 -8.88714 9.80004e-10
540 1 11.0058 11.007 17.2662 -8.91709 1.62211e-09
541 1 12.5791 9.43369 15.7118 -8.88714 9.80243e-10
542 1 14.1517 11.007 17.2737 -8.90497 1.62418e-09
543 1 15.7238 9.43427 15.7149 -8.88787 9.85784e-10
544 1 17.2957 11.007 17.2777 -8.90284 1.62316e-09
545 1 18.8681 9.4345 15.7165 -8.88817 9.85408e-10
546 1 20.4403 11.007 17.2787 -8.90309 1.62128e-09
547 1 22.0128 12.5794 15.7169 -8.8882 9.85122e-10
548 1 1.5714 14.1516 17.2788 -8.9031 1.62016e-09
549 1 3.14352 12.5794 15.7165 -8.88817 9.85014e-10
550 1 4.71608 14.1518 17.2782 -8.90292 1.62226e-09
551 1 6.28785 12.5796 15.7149 -8.88787 9.85202e-10
552 1 7.85991 14.1529 17.2759 -8.90267 1.62598e-09
553 1 9.43256 12.5802 15.7118 -8.88714 9.80004e-10
554 1 11.0058 14.1529 17.2737 -8.90497 1.61806e-09
555 1 12.5791 12.5802 15.7118 -8.88714 9.80243e-10
556 1 14.1517 14.1529 17.2759 -8.90267 1.62662e-09
557 1 15.7238 12.5796 15.7149 -8.88787 9.85784e-10
558 1 17.2955 14.1518 17.2782 -8.90292 1.62276e-09
559 1 18.8681 12.5794 15.7165 -8.88817 9.85408e-10
560 1 20.4402 14.1516 17.2788 -8.9031 1.62034e-09
561 1 22.0128 15.7242 15.7171 -8.88817 9.84121e-10
562 1 1.57146 17.2964 17.279 -8.90302 1.61625e-09
563 1 3.14366 15.7242 15.7169 -8.88809 9.84175e-10
564 1 4.71651 17.2963 17.2789 -8.90324 1.61548e-09
565 1 6.28823 15.7245 15.7161 -8.8877 9.85552e-10
566 1 7.86097 17.2967 17.2782 -8.90292 1.61612e-09
567 1 9.43315 15.7249 15.7149 -8.88787 9.81669e-10
568 1 11.0058 17.2968 17.2777 -8.90284 1.61349e-09
569 1 12.5785 15.7249 15.7149 -8.88787 9.81917e-10
570 1 14.1507 17.2967 17.2782 -8.90292 1.61648e-09
571 1 15.7234 15.7245 15.7161 -8.8877 9.86104e-10
572 1 17.2951 17.2963 17.2789 -8.90324 1.61582e-09
573 1 18.868 15.7242 15.7169 -8.88809 9.84538e-10
574 1 20.4402 17.2964 17.279 -8.90302 1.61639e-09
575 1 22.0128 18.869 15.7172 -8.88819 9.81538e-10
576 1 1.57141 20.4413 17.279 -8.90297 1.61282e-09
577 1 3.14378 18.869 15.7171 -8.88818 9.8092e-10
578 1 4.71641 20.4413 17.279 -8.90302 1.61166e-09
579 1 6.28855 18.8691 15.7169 -8.88809 9.80201e-10
580 1 7.86113 20.4414 17.2788 -8.9031 1.60982e-09
581 1 9.43338 18.8693 15.7165 -8.88817 9.78382e-10
582 1 11.0058 20.4414 17.2787 -8.90309 1.60856e-09
583 1 12.5783 18.8693 15.7165 -8.88817 9.78579e-10