ITEM: TIMESTEP
18
ITEM: NUMBER OF ATOMS
736
ITEM: BOX BOUNDS pp pp pp
0.0000000000000000e+00 2.2013900999999997e+01
0.0000000000000000e+00 2.2013900999999997e+01
0.0000000000000000e+00 5.3462330999999999e+01
ITEM: ATOMS id type x y z c_pot c_ke
1 1 1.26997e-16 1.18116e-16 0.00731871 -7.37611 0.00552816
2 1 1.57242 1.57242 1.57343 -8.70529 0.000116737
3 1 3.14484 1.21386e-16 0.00731871 -7.37611 0.00552816
4 1 4.71726 1.57242 1.57343 -8.70529 0.000116737
5 1 6.28969 1.25201e-16 0.00731871 -7.37611 0.00552816
6 1 7.86211 1.57242 1.57343 -8.70529 0.000116737
7 1 9.43453 1.25992e-16 0.00731871 -7.37611 0.00552816
8 1 11.007 1.57242 1.57343 -8.70529 0.000116737
9 1 12.5794 1.27048e-16 0.00731871 -7.37611 0.00552816
10 1 14.1518 1.57242 1.57343 -8.70529 0.000116737
11 1 15.7242 1.25846e-16 0.00731871 -7.37611 0.00552816
12 1 17.2966 1.57242 1.57343 -8.70529 0.000116737
13 1 18.8691 1.19305e-16 0.00731871 -7.37611 0.00552816
14 1 20.4415 1.57242 1.57343 -8.70529 0.000116737
15 1 1.446e-16 3.14484 0.00731871 -7.37611 0.00552816
16 1 1.57242 4.71726 1.57343 -8.70529 0.000116737
17 1 3.14484 3.14484 0.00731871 -7.37611 0.00552816
18 1 4.71726 4.71726 1.57343 -8.70529 0.000116737
19 1 6.28969 3.14484 0.00731871 -7.37611 0.00552816
20 1 7.86211 4.71726 1.57343 -8.70529 0.000116737
21 1 9.43453 3.14484 0.00731871 -7.37611 0.00552816
22 1 11.007 4.71726 1.57343 -8.70529 0.000116737
23 1 12.5794 3.14484 0.00731871 -7.37611 0.00552816
24 1 14.1518 4.71726 1.57343 -8.70529 0.000116737
25 1 15.7242 3.14484 0.00731871 -7.37611 0.00552816
26 1 17.2966 4.71726 1.57343 -8.70529 0.000116737
27 1 18.8691 3.14484 0.00731871 -7.37611 0.00552816
28 1 20.4415 4.71726 1.57343 -8.70529 0.000116737
29 1 1.79494e-16 6.28969 0.00731871 -7.37611 0.00552816
30 1 1.57242 7.86211 1.57343 -8.70529 0.000116737
31 1 3.14484 6.28969 0.00731871 -7.37611 0.00552816
32 1 4.71726 7.86211 1.57343 -8.70529 0.000116737
33 1 6.28969 6.28969 0.00731871 -7.37611 0.00552816
34 1 7.86211 7.86211 1.57343 -8.70529 0.000116737
35 1 9.43453 6.28969 0.00731871 -7.37611 0.00552816
36 1 11.007 7.86211 1.57343 -8.70529 0.000116737
37 1 12.5794 6.28969 0.00731871 -7.37611 0.00552816
38 1 14.1518 7.86211 1.57343 -8.70529 0.000116737
39 1 15.7242 6.28969 0.00731871 -7.37611 0.00552816
40 1 17.2966 7.86211 1.57343 -8.70529 0.000116737
41 1 18.8691 6.28969 0.00731871 -7.37611 0.00552816
42 1 20.4415 7.86211 1.57343 -8.70529 0.000116737
43 1 2.09893e-16 9.43453 0.00731871 -7.37611 0.00552816
44 1 1.57242 11.007 1.57343 -8.70529 0.000116737
45 1 3.14484 9.43453 0.00731871 -7.37611 0.00552816
46 1 4.71726 11.007 1.57343 -8.70529 0.000116737
47 1 6.28969 9.43453 0.00731871 -7.37611 0.00552816
48 1 7.86211 11.007 1.57343 -8.70529 0.000116737
49 1 9.43453 9.43453 0.00731871 -7.37611 0.00552816
50 1 11.007 11.007 1.57343 -8.70529 0.000116737
51 1 12.5794 9.43453 0.00731871 -7.37611 0.00552816
52 1 14.1518 11.007 1.57343 -8.70529 0.000116737
53 1 15.7242 9.43453 0.00731871 -7.37611 0.00552816
54 1 17.2966 11.007 1.57343 -8.70529 0.000116737
55 1 18.8691 9.43453 0.00731871 -7.37611 0.00552816
56 1 20.4415 11.007 1.57343 -8.70529 0.000116737
57 1 2.1381e-16 12.5794 0.00731871 -7.37611 0.00552816
58 1 1.57242 14.1518 1.57343 -8.70529 0.000116737
59 1 3.14484 12.5794 0.00731871 -7.37611 0.00552816
60 1 4.71726 14.1518 1.57343 -8.70529 0.000116737
61 1 6.28969 12.5794 0.00731871 -7.37611 0.00552816
62 1 7.86211 14.1518 1.57343 -8.70529 0.000116737
63 1 9.43453 12.5794 0.00731871 -7.37611 0.00552816
64 1 11.007 14.1518 1.57343 -8.70529 0.000116737
65 1 12.5794 12.5794 0.00731871 -7.37611 0.00552816
66 1 14.1518 14.1518 1.57343 -8.70529 0.000116737
67 1 15.7242 12.5794 0.00731871 -7.37611 0.00552816
68 1 17.2966 14.1518 1.57343 -8.70529 0.000116737
69 1 18.8691 12.5794 0.00731871 -7.37611 0.00552816
70 1 20.4415 14.1518 1.57343 -8.70529 0.000116737
71 1 1.80066e-16 15.7242 0.00731871 -7.37611 0.00552816
72 1 1.57242 17.2966 1.57343 -8.70529 0.000116737
73 1 3.14484 15.7242 0.00731871 -7.37611 0.00552816
74 1 4.71726 17.2966 1.57343 -8.70529 0.000116737
75 1 6.28969 15.7242 0.00731871 -7.37611 0.00552816
76 1 7.86211 17.2966 1.57343 -8.70529 0.000116737
77 1 9.43453 15.7242 0.00731871 -7.37611 0.00552816
78 1 11.007 17.2966 1.57343 -8.70529 0.000116737
79 1 12.5794 15.7242 0.00731871 -7.37611 0.00552816
80 1 14.1518 17.2966 1.57343 -8.70529 0.000116737
81 1 15.7242 15.7242 0.00731871 -7.37611 0.00552816
82 1 17.2966 17.2966 1.57343 -8.70529 0.000116737
83 1 18.8691 15.7242 0.00731871 -7.37611 0.00552816
84 1 20.4415 17.2966 1.57343 -8.70529 0.000116737
85 1 1.45794e-16 18.8691 0.00731871 -7.37611 0.00552816
86 1 1.57242 20.4415 1.57343 -8.70529 0.000116737
87 1 3.14484 18.8691 0.00731871 -7.37611 0.00552816
88 1 4.71726 20.4415 1.57343 -8.70529 0.000116737
89 1 6.28969 18.8691 0.00731871 -7.37611 0.00552816
90 1 7.86211 20.4415 1.57343 -8.70529 0.000116737
91 1 9.43453 18.8691 0.00731871 -7.37611 0.00552816
92 1 11.007 20.4415 1.57343 -8.70529 0.000116737
93 1 12.5794 18.8691 0.00731871 -7.37611 0.00552816
94 1 14.1518 20.4415 1.57343 -8.70529 0.000116737
95 1 15.7242 18.8691 0.00731871 -7.37611 0.00552816
96 1 17.2966 20.4415 1.57343 -8.70529 0.000116737
97 1 18.8691 18.8691 0.00731871 -7.37611 0.00552816
98 1 20.4415 20.4415 1.57343 -8.70529 0.000116737
99 1 6.2956e-16 2.21927e-16 3.13835 -8.92286 0.00399813
100 1 1.57242 1.57242 4.71713 -8.90109 3.47858e-06
101 1 3.14484 2.41514e-16 3.13835 -8.92286 0.00399813
102 1 4.71726 1.57242 4.71713 -8.90109 3.47858e-06
103 1 6.28969 2.46916e-16 3.13835 -8.92286 0.00399813
104 1 7.86211 1.57242 4.71713 -8.90109 3.47858e-06
105 1 9.43453 2.66611e-16 3.13835 -8.92286 0.00399813
106 1 11.007 1.57242 4.71713 -8.90109 3.47858e-06
107 1 12.5794 2.603e-16 3.13835 -8.92286 0.00399813
108 1 14.1518 1.57242 4.71713 -8.90109 3.47858e-06
109 1 15.7242 2.51454e-16 3.13835 -8.92286 0.00399813
110 1 17.2966 1.57242 4.71713 -8.90109 3.47858e-06
111 1 18.8691 2.18407e-16 3.13835 -8.92286 0.00399813
112 1 20.4415 1.57242 4.71713 -8.90109 3.47858e-06
113 1 1.18571e-15 3.14484 3.13835 -8.92286 0.00399813
114 1 1.57242 4.71726 4.71713 -8.90109 3.47858e-06
115 1 3.14484 3.14484 3.13835 -8.92286 0.00399813
116 1 4.71726 4.71726 4.71713 -8.90109 3.47858e-06
117 1 6.28969 3.14484 3.13835 -8.92286 0.00399813
118 1 7.86211 4.71726 4.71713 -8.90109 3.47858e-06
119 1 9.43453 3.14484 3.13835 -8.92286 0.00399813
120 1 11.007 4.71726 4.71713 -8.90109 3.47858e-06
121 1 12.5794 3.14484 3.13835 -8.92286 0.00399813
122 1 14.1518 4.71726 4.71713 -8.90109 3.47858e-06
123 1 15.7242 3.14484 3.13835 -8.92286 0.00399813
124 1 17.2966 4.71726 4.71713 -8.90109 3.47858e-06
125 1 18.8691 3.14484 3.13835 -8.92286 0.00399813
126 1 20.4415 4.71726 4.71713 -8.90109 3.47858e-06
127 1 2.53174e-15 6.28969 3.13835 -8.92286 0.00399813
128 1 1.57242 7.86211 4.71713 -8.90109 3.47858e-06
129 1 3.14484 6.28969 3.13835 -8.92286 0.00399813
130 1 4.71726 7.86211 4.71713 -8.90109 3.47858e-06
131 1 6.28969 6.28969 3.13835 -8.92286 0.00399813
132 1 7.86211 7.86211 4.71713 -8.90109 3.47858e-06
133 1 9.43453 6.28969 3.13835 -8.92286 0.00399813
134 1 11.007 7.86211 4.71713 -8.90109 3.47858e-06
135 1 12.5794 6.28969 3.13835 -8.92286 0.00399813
136 1 14.1518 7.86211 4.71713 -8.90109 3.47858e-06
137 1 15.7242 6.28969 3.13835 -8.92286 0.00399813
138 1 17.2966 7.86211 4.71713 -8.90109 3.47858e-06
139 1 18.8691 6.28969 3.13835 -8.92286 0.00399813
140 1 20.4415 7.86211 4.71713 -8.90109 3.47858e-06
141 1 3.70393e-15 9.43453 3.13835 -8.92286 0.00399813
142 1 1.57242 11.007 4.71713 -8.90109 3.47858e-06
143 1 3.14484 9.43453 3.13835 -8.92286 0.00399813
144 1 4.71726 11.007 4.71713 -8.90109 3.47858e-06
145 1 6.28969 9.43453 3.13835 -8.92286 0.00399813
146 1 7.86211 11.007 4.71713 -8.90109 3.47858e-06
147 1 9.43453 9.43453 3.13835 -8.92286 0.00399813
148 1 11.007 11.007 4.71713 -8.90109 3.47858e-06
149 1 12.5794 9.43453 3.13835 -8.92286 0.00399813
150 1 14.1518 11.007 4.71713 -8.90109 3.47858e-06
151 1 15.7242 9.43453 3.13835 -8.92286 0.00399813
152 1 17.2966 11.007 4.71713 -8.90109 3.47858e-06
153 1 18.8691 9.43453 3.13835 -8.92286 0.00399813
154 1 20.4415 11.007 4.71713 -8.90109 3.47858e-06
155 1 3.70717e-15 12.5794 3.13835 -8.92286 0.00399813
156 1 1.57242 14.1518 4.71713 -8.90109 3.47858e-06
157 1 3.14484 12.5794 3.13835 -8.92286 0.00399813
158 1 4.71726 14.1518 4.71713 -8.90109 3.47858e-06
159 1 6.28969 12.5794 3.13835 -8.92286 0.00399813
160 1 7.86211 14.1518 4.71713 -8.90109 3.47858e-06
161 1 9.43453 12.5794 3.13835 -8.92286 0.00399813
162 1 11.007 14.1518 4.71713 -8.90109 3.47858e-06
163 1 12.5794 12.5794 3.13835 -8.92286 0.00399813
164 1 14.1518 14.1518 4.71713 -8.90109 3.47858e-06
165 1 15.7242 12.5794 3.13835 -8.92286 0.00399813
166 1 17.2966 14.1518 4.71713 -8.90109 3.47858e-06
167 1 18.8691 12.5794 3.13835 -8.92286 0.00399813
168 1 20.4415 14.1518 4.71713 -8.90109 3.47858e-06
169 1 2.53334e-15 15.7242 3.13835 -8.92286 0.00399813
170 1 1.57242 17.2966 4.71713 -8.90109 3.47858e-06
171 1 3.14484 15.7242 3.13835 -8.92286 0.00399813
172 1 4.71726 17.2966 4.71713 -8.90109 3.47858e-06
173 1 6.28969 15.7242 3.13835 -8.92286 0.00399813
174 1 7.86211 17.2966 4.71713 -8.90109 3.47858e-06
175 1 9.43453 15.7242 3.13835 -8.92286 0.00399813
176 1 11.007 17.2966 4.71713 -8.90109 3.47858e-06
177 1 12.5794 15.7242 3.13835 -8.92286 0.00399813
178 1 14.1518 17.2966 4.71713 -8.90109 3.47858e-06
179 1 15.7242 15.7242 3.13835 -8.92286 0.00399813
180 1 17.2966 17.2966 4.71713 -8.90109 3.47858e-06
181 1 18.8691 15.7242 3.13835 -8.92286 0.00399813
182 1 20.4415 17.2966 4.71713 -8.90109 3.47858e-06
183 1 1.19648e-15 18.8691 3.13835 -8.92286 0.00399813
184 1 1.57242 20.4415 4.71713 -8.90109 3.47858e-06
185 1 3.14484 18.8691 3.13835 -8.92286 0.00399813
186 1 4.71726 20.4415 4.71713 -8.90109 3.47858e-06
187 1 6.28969 18.8691 3.13835 -8.92286 0.00399813
188 1 7.86211 20.4415 4.71713 -8.90109 3.47858e-06
189 1 9.43453 18.8691 3.13835 -8.92286 0.00399813
190 1 11.007 20.4415 4.71713 -8.90109 3.47858e-06
191 1 12.5794 18.8691 3.13835 -8.92286 0.00399813
192 1 14.1518 20.4415 4.71713 -8.90109 3.47858e-06
193 1 15.7242 18.8691 3.13835 -8.92286 0.00399813
194 1 17.2966 20.4415 4.71713 -8.90109 3.47858e-06
195 1 18.8691 18.8691 3.13835 -8.92286 0.00399813
196 1 20.4415 20.4415 4.71713 -8.90109 3.47858e-06
197 1 1.65518e-14 2.6675e-16 6.28956 -8.89687 6.24007e-06
198 1 1.57242 1.57242 7.86206 -8.90059 9.29666e-07
199 1 3.14484 2.61507e-16 6.28956 -8.89687 6.24007e-06
200 1 4.71726 1.57242 7.86206 -8.90059 9.29666e-07
201 1 6.28969 2.27974e-16 6.28956 -8.89687 6.24007e-06
202 1 7.86211 1.57242 7.86206 -8.90059 9.29666e-07
203 1 9.43453 3.15261e-16 6.28956 -8.89687 6.24007e-06
204 1 11.007 1.57242 7.86206 -8.90059 9.29666e-07
205 1 12.5794 2.60568e-16 6.28956 -8.89687 6.24007e-06
206 1 14.1518 1.57242 7.86206 -8.90059 9.29666e-07
207 1 15.7242 2.21614e-16 6.28956 -8.89687 6.24007e-06
208 1 17.2966 1.57242 7.86206 -8.90059 9.29666e-07
209 1 18.8691 2.49198e-16 6.28956 -8.89687 6.24007e-06
210 1 20.4415 1.57242 7.86206 -8.90059 9.29666e-07
211 1 4.48327e-14 3.14484 6.28956 -8.89687 6.24007e-06
212 1 1.57242 4.71726 7.86206 -8.90059 9.29666e-07
213 1 3.14484 3.14484 6.28956 -8.89687 6.24007e-06
214 1 4.71726 4.71726 7.86206 -8.90059 9.29664e-07
215 1 6.28969 3.14484 6.28956 -8.89687 6.24007e-06
216 1 7.86211 4.71726 7.86206 -8.90059 9.29662e-07
217 1 9.43453 3.14484 6.28956 -8.89687 6.24007e-06
218 1 11.007 4.71726 7.86206 -8.90059 9.29662e-07
219 1 12.5794 3.14484 6.28956 -8.89687 6.24007e-06
220 1 14.1518 4.71726 7.86206 -8.90059 9.29664e-07
221 1 15.7242 3.14484 6.28956 -8.89687 6.24007e-06
222 1 17.2966 4.71726 7.86206 -8.90059 9.29665e-07
223 1 18.8691 3.14484 6.28956 -8.89687 6.24007e-06
224 1 20.4415 4.71726 7.86206 -8.90059 9.29666e-07
225 1 1.13275e-13 6.28969 6.28956 -8.89687 6.24007e-06
226 1 1.57242 7.86211 7.86206 -8.90059 9.29666e-07
227 1 3.14484 6.28969 6.28956 -8.89687 6.24007e-06
228 1 4.71726 7.86211 7.86206 -8.90059 9.29662e-07
229 1 6.28969 6.28969 6.28956 -8.89687 6.24007e-06
230 1 7.86211 7.86211 7.86206 -8.90059 9.29657e-07
231 1 9.43453 6.28969 6.28956 -8.89687 6.24007e-06
232 1 11.007 7.86211 7.86206 -8.90059 9.29656e-07
233 1 12.5794 6.28969 6.28956 -8.89687 6.24007e-06
234 1 14.1518 7.86211 7.86206 -8.90059 9.2966e-07
235 1 15.7242 6.28969 6.28956 -8.89687 6.24007e-06
236 1 17.2966 7.86211 7.86206 -8.90059 9.29665e-07
237 1 18.8691 6.28969 6.28956 -8.89687 6.24007e-06
238 1 20.4415 7.86211 7.86206 -8.90059 9.29666e-07
239 1 1.74978e-13 9.43453 6.28956 -8.89687 6.24007e-06
240 1 1.57242 11.007 7.86206 -8.90059 9.29665e-07
241 1 3.14484 9.43453 6.28956 -8.89687 6.24007e-06
242 1 4.71726 11.007 7.86206 -8.90059 9.2966e-07
243 1 6.28969 9.43453 6.28956 -8.89687 6.24007e-06
244 1 7.86211 11.007 7.86206 -8.90059 9.29653e-07
245 1 9.43453 9.43453 6.28956 -8.89687 6.24007e-06
246 1 11.007 11.007 7.86206 -8.90059 9.29652e-07
247 1 12.5794 9.43453 6.28956 -8.89687 6.24007e-06
248 1 14.1518 11.007 7.86206 -8.90059 9.29659e-07
249 1 15.7242 9.43453 6.28956 -8.89687 6.24007e-06
250 1 17.2966 11.007 7.86206 -8.90059 9.29664e-07
251 1 18.8691 9.43453 6.28956 -8.89687 6.24007e-06
252 1 20.4415 11.007 7.86206 -8.90059 9.29666e-07
253 1 1.7498e-13 12.5794 6.28956 -8.89687 6.24007e-06
254 1 1.57242 14.1518 7.86206 -8.90059 9.29666e-07
255 1 3.14484 12.5794 6.28956 -8.89687 6.24007e-06
256 1 4.71726 14.1518 7.86206 -8.90059 9.29662e-07
257 1 6.28969 12.5794 6.28956 -8.89687 6.24007e-06
258 1 7.86211 14.1518 7.86206 -8.90059 9.29657e-07
259 1 9.43453 12.5794 6.28956 -8.89687 6.24007e-06
260 1 11.007 14.1518 7.86206 -8.90059 9.29656e-07
261 1 12.5794 12.5794 6.28956 -8.89687 6.24007e-06
262 1 14.1518 14.1518 7.86206 -8.90059 9.2966e-07
263 1 15.7242 12.5794 6.28956 -8.89687 6.24007e-06
264 1 17.2966 14.1518 7.86206 -8.90059 9.29665e-07
265 1 18.8691 12.5794 6.28956 -8.89687 6.24007e-06
266 1 20.4415 14.1518 7.86206 -8.90059 9.29666e-07
267 1 1.13297e-13 15.7242 6.28956 -8.89687 6.24007e-06
268 1 1.57242 17.2966 7.86206 -8.90059 9.29666e-07
269 1 3.14484 15.7242 6.28956 -8.89687 6.24007e-06
270 1 4.71726 17.2966 7.86206 -8.90059 9.29664e-07
271 1 6.28969 15.7242 6.28956 -8.89687 6.24007e-06
272 1 7.86211 17.2966 7.86206 -8.90059 9.29662e-07
273 1 9.43453 15.7242 6.28956 -8.89687 6.24007e-06
274 1 11.007 17.2966 7.86206 -8.90059 9.29662e-07
275 1 12.5794 15.7242 6.28956 -8.89687 6.24007e-06
276 1 14.1518 17.2966 7.86206 -8.90059 9.29664e-07
277 1 15.7242 15.7242 6.28956 -8.89687 6.24007e-06
278 1 17.2966 17.2966 7.86206 -8.90059 9.29665e-07
279 1 18.8691 15.7242 6.28956 -8.89687 6.24007e-06
280 1 20.4415 17.2966 7.86206 -8.90059 9.29666e-07
281 1 4.48348e-14 18.8691 6.28956 -8.89687 6.24007e-06
282 1 1.57242 20.4415 7.86206 -8.90059 9.29666e-07
283 1 3.14484 18.8691 6.28956 -8.89687 6.24007e-06
284 1 4.71726 20.4415 7.86206 -8.90059 9.29666e-07
285 1 6.28969 18.8691 6.28956 -8.89687 6.24007e-06
286 1 7.86211 20.4415 7.86206 -8.90059 9.29666e-07
287 1 9.43453 18.8691 6.28956 -8.89687 6.24007e-06
288 1 11.007 20.4415 7.86206 -8.90059 9.29666e-07
289 1 12.5794 18.8691 6.28956 -8.89687 6.24007e-06
290 1 14.1518 20.4415 7.86206 -8.90059 9.29666e-07
291 1 15.7242 18.8691 6.28956 -8.89687 6.24007e-06
292 1 17.2966 20.4415 7.86206 -8.90059 9.29666e-07
293 1 18.8691 18.8691 6.28956 -8.89687 6.24007e-06
294 1 20.4415 20.4415 7.86206 -8.90059 9.29666e-07
295 1 3.26962e-13 2.11577e-16 9.43453 -8.89965 6.72558e-09
296 1 1.57242 1.57242 11.007 -8.89966 6.67399e-19
297 1 3.14484 1.81851e-16 9.43453 -8.89965 6.72556e-09
298 1 4.71726 1.57242 11.007 -8.89966 1.27367e-17
299 1 6.28969 2.96612e-16 9.43453 -8.89965 6.72553e-09
300 1 7.86211 1.57242 11.007 -8.89966 4.35325e-17
301 1 9.43453 1.36184e-16 9.43453 -8.89965 6.7255e-09
302 1 11.007 1.57242 11.007 -8.89966 4.873e-17
303 1 12.5794 2.35428e-16 9.43453 -8.89965 6.72552e-09
304 1 14.1518 1.57242 11.007 -8.89966 1.91753e-17
305 1 15.7242 3.06646e-16 9.43453 -8.89965 6.72555e-09
306 1 17.2966 1.57242 11.007 -8.89966 2.25397e-18
307 1 18.8691 3.00276e-16 9.43453 -8.89965 6.72558e-09
308 1 20.4415 1.57242 11.007 -8.89966 8.42671e-20
309 1 9.27391e-13 3.14484 9.43453 -8.89965 6.72557e-09
310 1 1.57242 4.71726 11.007 -8.89966 1.29388e-17
311 1 3.14484 3.14484 9.43453 -8.89965 6.72542e-09
312 1 4.71726 4.71726 11.007 -8.89966 5.32807e-16
313 1 6.28969 3.14484 9.43453 -8.89965 6.72508e-09
314 1 7.86211 4.71726 11.007 -8.89966 2.14747e-15
315 1 9.43453 3.14484 9.43453 -8.89965 6.72486e-09
316 1 11.007 4.71726 11.007 -8.89966 2.41918e-15
317 1 12.5794 3.14484 9.43453 -8.89965 6.725e-09
318 1 14.1518 4.71726 11.007 -8.89966 8.3186e-16
319 1 15.7242 3.14484 9.43453 -8.89965 6.72533e-09
320 1 17.2966 4.71726 11.007 -8.89966 7.15451e-17
321 1 18.8691 3.14484 9.43453 -8.89965 6.72553e-09
322 1 20.4415 4.71726 11.007 -8.89966 1.46774e-18
323 1 2.41525e-12 6.28969 9.43453 -8.89965 6.72554e-09
324 1 1.57242 7.86211 11.007 -8.89966 5.56162e-17
325 1 3.14484 6.28969 9.43453 -8.89965 6.72504e-09
326 1 4.71726 7.86211 11.007 -8.89966 2.75493e-15
327 1 6.28969 6.28969 9.43453 -8.89965 6.72304e-09
328 1 7.86211 7.86211 11.007 -8.89966 2.09402e-14
329 1 9.43453 6.28969 9.43453 -8.89965 6.72167e-09
330 1 11.007 7.86211 11.007 -8.89966 2.44288e-14
331 1 12.5794 6.28969 9.43453 -8.89965 6.72259e-09
332 1 14.1518 7.86211 11.007 -8.89966 5.86468e-15
333 1 15.7242 6.28969 9.43453 -8.89965 6.72455e-09
334 1 17.2966 7.86211 11.007 -8.89966 3.54351e-16
335 1 18.8691 6.28969 9.43453 -8.89965 6.72541e-09
336 1 20.4415 7.86211 11.007 -8.89966 6.27094e-18
337 1 3.76241e-12 9.43453 9.43453 -8.89965 6.72552e-09
338 1 1.57242 11.007 11.007 -8.89966 8.78884e-17
339 1 3.14484 9.43453 9.43453 -8.89965 6.72467e-09
340 1 4.71726 11.007 11.007 -8.89966 4.60951e-15
341 1 6.28969 9.43453 9.43453 -8.89965 6.7208e-09
342 1 7.86211 11.007 11.007 -8.89966 4.07569e-14
343 1 9.43453 9.43453 9.43453 -8.89965 6.71808e-09
344 1 11.007 11.007 11.007 -8.89966 4.73579e-14
345 1 12.5794 9.43453 9.43453 -8.89965 6.71991e-09
346 1 14.1518 11.007 11.007 -8.89966 1.06165e-14
347 1 15.7242 9.43453 9.43453 -8.89965 6.7237e-09
348 1 17.2966 11.007 11.007 -8.89966 5.8443e-16
349 1 18.8691 9.43453 9.43453 -8.89965 6.72529e-09
350 1 20.4415 11.007 11.007 -8.89966 9.8893e-18
351 1 3.7624e-12 12.5794 9.43453 -8.89965 6.72552e-09
352 1 1.57242 14.1518 11.007 -8.89966 5.56162e-17
353 1 3.14484 12.5794 9.43453 -8.89965 6.72467e-09
354 1 4.71726 14.1518 11.007 -8.89966 2.75493e-15
355 1 6.28969 12.5794 9.43453 -8.89965 6.7208e-09
356 1 7.86211 14.1518 11.007 -8.89966 2.09402e-14
357 1 9.43453 12.5794 9.43453 -8.89965 6.71808e-09
358 1 11.007 14.1518 11.007 -8.89966 2.44288e-14
359 1 12.5794 12.5794 9.43453 -8.89965 6.71991e-09
360 1 14.1518 14.1518 11.007 -8.89966 5.86468e-15
361 1 15.7242 12.5794 9.43453 -8.89965 6.7237e-09
362 1 17.2966 14.1518 11.007 -8.89966 3.54351e-16
363 1 18.8691 12.5794 9.43453 -8.89965 6.72529e-09
364 1 20.4415 14.1518 11.007 -8.89966 6.27094e-18
365 1 2.41532e-12 15.7242 9.43453 -8.89965 6.72554e-09
366 1 1.57242 17.2966 11.007 -8.89966 1.29388e-17
367 1 3.14484 15.7242 9.43453 -8.89965 6.72504e-09
368 1 4.71726 17.2966 11.007 -8.89966 5.32807e-16
369 1 6.28969 15.7242 9.43453 -8.89965 6.72304e-09
370 1 7.86211 17.2966 11.007 -8.89966 2.14747e-15
371 1 9.43453 15.7242 9.43453 -8.89965 6.72167e-09
372 1 11.007 17.2966 11.007 -8.89966 2.41918e-15
373 1 12.5794 15.7242 9.43453 -8.89965 6.72259e-09
374 1 14.1518 17.2966 11.007 -8.89966 8.3186e-16
375 1 15.7242 15.7242 9.43453 -8.89965 6.72455e-09
376 1 17.2966 17.2966 11.007 -8.89966 7.1545e-17
377 1 18.8691 15.7242 9.43453 -8.89965 6.72541e-09
378 1 20.4415 17.2966 11.007 -8.89966 1.46774e-18
379 1 9.2741e-13 18.8691 9.43453 -8.89965 6.72557e-09
380 1 1.57242 20.4415 11.007 -8.89966 6.67412e-19
381 1 3.14484 18.8691 9.43453 -8.89965 6.72542e-09
382 1 4.71726 20.4415 11.007 -8.89966 1.27367e-17
383 1 6.28969 18.8691 9.43453 -8.89965 6.72508e-09
384 1 7.86211 20.4415 11.007 -8.89966 4.35325e-17
385 1 9.43453 18.8691 9.43453 -8.89965 6.72486e-09
386 1 11.007 20.4415 11.007 -8.89966 4.873e-17
387 1 12.5794 18.8691 9.43453 -8.89965 6.725e-09
388 1 14.1518 20.4415 11.007 -8.89966 1.91753e-17
389 1 15.7242 18.8691 9.43453 -8.89965 6.72533e-09
390 1 17.2966 20.4415 11.007 -8.89966 2.25397e-18
391 1 18.8691 18.8691 9.43453 -8.89965 6.72553e-09
392 1 20.4415 20.4415 11.007 -8.89966 8.42662e-20
393 1 5.0377e-12 3.09151e-16 12.5794 -8.89965 6.72566e-09
394 1 3.14484 2.63174e-16 12.5794 -8.89965 6.72603e-09
395 1 6.28969 2.55387e-16 12.5794 -8.89965 6.72685e-09
396 1 9.43453 8.7086e-17 12.5794 -8.89965 6.72735e-09
397 1 12.5794 2.17616e-16 12.5794 -8.89965 6.72701e-09
398 1 15.7242 2.06999e-16 12.5794 -8.89965 6.72624e-09
399 1 18.8691 2.11024e-16 12.5794 -8.89965 6.72575e-09
400 1 2.31892e-11 3.14484 12.5794 -8.89965 6.72587e-09
401 1 3.14484 3.14484 12.5794 -8.89965 6.72773e-09
402 1 6.28969 3.14484 12.5794 -8.89965 6.73258e-09
403 1 9.43453 3.14484 12.5794 -8.89965 6.73544e-09
404 1 12.5794 3.14484 12.5794 -8.89965 6.73343e-09
405 1 15.7242 3.14484 12.5794 -8.89965 6.7289e-09
406 1 18.8691 3.14484 12.5794 -8.89965 6.72632e-09
407 1 7.10074e-11 6.28969 12.5794 -8.89965 6.72644e-09
408 1 3.14484 6.28969 12.5794 -8.89965 6.73283e-09
409 1 6.28969 6.28969 12.5794 -8.89965 6.81734e-09
410 1 9.43453 6.28969 12.5794 -8.89965 6.87203e-09
411 1 12.5794 6.28969 12.5794 -8.89965 6.83362e-09
412 1 15.7242 6.28969 12.5794 -8.89965 6.75389e-09
413 1 18.8691 6.28969 12.5794 -8.89965 6.72805e-09
414 1 1.15782e-10 9.43453 12.5794 -8.89965 6.72696e-09
415 1 3.14484 9.43453 12.5794 -8.89965 6.73751e-09
416 1 6.28969 9.43453 12.5794 -8.89965 6.90884e-09
417 1 9.43453 9.43453 12.5794 -8.89965 7.02757e-09
418 1 12.5794 9.43453 12.5794 -8.89965 6.94275e-09
419 1 15.7242 9.43453 12.5794 -8.89965 6.78145e-09
420 1 18.8691 9.43453 12.5794 -8.89965 6.72968e-09
421 1 1.15782e-10 12.5794 12.5794 -8.89965 6.72696e-09
422 1 3.14484 12.5794 12.5794 -8.89965 6.73751e-09
423 1 6.28969 12.5794 12.5794 -8.89965 6.90884e-09
424 1 9.43453 12.5794 12.5794 -8.89965 7.02757e-09
425 1 12.5794 12.5794 12.5794 -8.89965 6.94275e-09
426 1 15.7242 12.5794 12.5794 -8.89965 6.78145e-09
427 1 18.8691 12.5794 12.5794 -8.89965 6.72968e-09
428 1 7.10075e-11 15.7242 12.5794 -8.89965 6.72644e-09
429 1 3.14484 15.7242 12.5794 -8.89965 6.73283e-09
430 1 6.28969 15.7242 12.5794 -8.89965 6.81734e-09
431 1 9.43453 15.7242 12.5794 -8.89965 6.87203e-09
432 1 12.5794 15.7242 12.5794 -8.89965 6.83362e-09
433 1 15.7242 15.7242 12.5794 -8.89965 6.75389e-09
434 1 18.8691 15.7242 12.5794 -8.89965 6.72805e-09
435 1 2.31893e-11 18.8691 12.5794 -8.89965 6.72587e-09
436 1 3.14484 18.8691 12.5794 -8.89965 6.72773e-09
437 1 6.28969 18.8691 12.5794 -8.89965 6.73258e-09
438 1 9.43453 18.8691 12.5794 -8.89965 6.73544e-09
439 1 12.5794 18.8691 12.5794 -8.89965 6.73343e-09
440 1 15.7242 18.8691 12.5794 -8.89965 6.7289e-09
441 1 18.8691 18.8691 12.5794 -8.89965 6.72632e-09
442 1 1.57242 1.57242 14.1518 -8.90059 9.29676e-07
443 1 4.71726 1.57242 14.1518 -8.90059 9.29719e-07
444 1 7.86211 1.57242 14.1518 -8.90059 9.2977e-07
445 1 11.007 1.57242 14.1518 -8.90059 9.29775e-07
446 1 14.1518 1.57242 14.1518 -8.90059 9.29731e-07
447 1 17.2966 1.57242 14.1518 -8.90059 9.29687e-07
448 1 20.4415 1.57242 14.1518 -8.90059 9.2967e-07
449 1 1.57242 4.71726 14.1518 -8.90059 9.29715e-07
450 1 4.71726 4.71726 14.1518 -8.90059 9.30595e-07
451 1 7.86211 4.71726 14.1518 -8.90059 9.32084e-07
452 1 11.007 4.71726 14.1518 -8.90059 9.32242e-07
453 1 14.1518 4.71726 14.1518 -8.90059 9.30941e-07
454 1 17.2966 4.71726 14.1518 -8.90059 9.29956e-07
455 1 20.4415 4.71726 14.1518 -8.90059 9.29686e-07
456 1 1.57242 7.86211 14.1518 -8.90059 9.29772e-07
457 1 4.71726 7.86211 14.1518 -8.90059 9.32259e-07
458 1 7.86211 7.86211 14.1518 -8.90059 9.42694e-07
459 1 11.007 7.86211 14.1518 -8.90059 9.43601e-07
460 1 14.1518 7.86211 14.1518 -8.90059 9.34647e-07
461 1 17.2966 7.86211 14.1518 -8.90059 9.30475e-07
462 1 20.4415 7.86211 14.1518 -8.90059 9.29709e-07
463 1 1.57242 11.007 14.1518 -8.90059 9.29799e-07
464 1 4.71726 11.007 14.1518 -8.90059 9.3318e-07
465 1 7.86211 11.007 14.1518 -8.90059 9.49067e-07
466 1 11.007 11.007 14.1518 -8.90059 9.50343e-07
467 1 14.1518 11.007 14.1518 -8.90059 9.36842e-07
468 1 17.2966 11.007 14.1518 -8.90059 9.30767e-07
469 1 20.4415 11.007 14.1518 -8.90059 9.29721e-07
470 1 1.57242 14.1518 14.1518 -8.90059 9.29772e-07
471 1 4.71726 14.1518 14.1518 -8.90059 9.32259e-07
472 1 7.86211 14.1518 14.1518 -8.90059 9.42694e-07
473 1 11.007 14.1518 14.1518 -8.90059 9.43601e-07
474 1 14.1518 14.1518 14.1518 -8.90059 9.34647e-07
475 1 17.2966 14.1518 14.1518 -8.90059 9.30475e-07
476 1 20.4415 14.1518 14.1518 -8.90059 9.29709e-07
477 1 1.57242 17.2966 14.1518 -8.90059 9.29715e-07
478 1 4.71726 17.2966 14.1518 -8.90059 9.30595e-07
479 1 7.86211 17.2966 14.1518 -8.90059 9.32084e-07
480 1 11.007 17.2966 14.1518 -8.90059 9.32242e-07
481 1 14.1518 17.2966 14.1518 -8.90059 9.30941e-07
482 1 17.2966 17.2966 14.1518 -8.90059 9.29956e-07
483 1 20.4415 17.2966 14.1518 -8.90059 9.29686e-07
484 1 1.57242 20.4415 14.1518 -8.90059 9.29676e-07
485 1 4.71726 20.4415 14.1518 -8.90059 9.29719e-07
486 1 7.86211 20.4415 14.1518 -8.90059 9.2977e-07
487 1 11.007 20.4415 14.1518 -8.90059 9.29775e-07
488 1 14.1518 20.4415 14.1518 -8.90059 9.29731e-07
489 1 17.2966 20.4415 14.1518 -8.90059 9.29687e-07
490 1 20.4415 20.4415 14.1518 -8.90059 9.2967e-07
491 1 3.97976e-11 2.44892e-16 15.7243 -8.89687 6.24008e-06
492 1 1.57242 1.57242 17.2968 -8.90109 3.47863e-06
493 1 3.14484 3.12805e-16 15.7243 -8.89687 6.24015e-06
494 1 4.71726 1.57242 17.2968 -8.90109 3.47949e-06
495 1 6.28969 1.63644e-16 15.7243 -8.89687 6.24032e-06
496 1 7.86211 1.57242 17.2968 -8.90109 3.48096e-06
497 1 9.43453 7.40138e-17 15.7243 -8.89687 6.24043e-06
498 1 11.007 1.57242 17.2968 -8.90109 3.48106e-06
499 1 12.5794 3.80985e-16 15.7243 -8.89687 6.24035e-06
500 1 14.1518 1.57242 17.2968 -8.90109 3.47984e-06
501 1 15.7242 1.99156e-16 15.7243 -8.89687 6.24019e-06
502 1 17.2966 1.57242 17.2968 -8.90109 3.47886e-06
503 1 18.8691 1.44889e-16 15.7243 -8.89687 6.2401e-06
504 1 20.4415 1.57242 17.2968 -8.90109 3.4786e-06
505 1 1.93765e-10 3.14484 15.7243 -8.89687 6.24012e-06
506 1 1.57242 4.71726 17.2968 -8.90109 3.47937e-06
507 1 3.14484 3.14484 15.7243 -8.89687 6.24074e-06
508 1 4.71726 4.71726 17.2968 -8.90109 3.48887e-06
509 1 6.28969 3.14484 15.7243 -8.89687 6.24391e-06
510 1 7.86211 4.71726 17.2968 -8.90109 3.50773e-06
511 1 9.43453 3.14484 15.7243 -8.89687 6.24592e-06
512 1 11.007 4.71726 17.2968 -8.90109 3.50795e-06
513 1 12.5794 3.14484 15.7243 -8.89687 6.24442e-06
514 1 14.1518 4.71726 17.2968 -8.90109 3.49285e-06
515 1 15.7242 3.14484 15.7243 -8.89687 6.24153e-06
516 1 17.2966 4.71726 17.2968 -8.90109 3.48196e-06
517 1 18.8691 3.14484 15.7243 -8.89687 6.24029e-06
518 1 20.4415 4.71726 17.2968 -8.90109 3.47888e-06
519 1 6.8417e-10 6.28969 15.7243 -8.89687 6.24023e-06
520 1 1.57242 7.86211 17.2968 -8.90109 3.48073e-06
521 1 3.14484 6.28969 15.7243 -8.89687 6.24367e-06
522 1 4.71726 7.86211 17.2968 -8.90109 3.50819e-06
523 1 6.28969 6.28969 15.7243 -8.89688 6.27128e-06
524 1 7.86211 7.86211 17.2968 -8.90133 4.43604e-06
525 1 9.43453 6.28969 15.7243 -8.89687 6.28986e-06
526 1 11.0069 7.86211 17.2968 -8.90134 4.4406e-06
527 1 12.5794 6.28969 15.7243 -8.89687 6.27502e-06
528 1 14.1518 7.86211 17.2968 -8.90115 3.72627e-06
529 1 15.7242 6.28969 15.7243 -8.89687 6.25042e-06
530 1 17.2966 7.86211 17.2968 -8.90109 3.48846e-06
531 1 18.8691 6.28969 15.7243 -8.89687 6.24132e-06
532 1 20.4415 7.86211 17.2968 -8.90109 3.47947e-06
533 1 1.11238e-09 9.43453 15.7243 -8.89687 6.24034e-06
534 1 1.57242 11.007 17.2968 -8.90109 3.48128e-06
535 1 3.14484 9.43453 15.7243 -8.89687 6.24634e-06
536 1 4.71726 11.007 17.2968 -8.90109 3.51557e-06
537 1 6.28969 9.43453 15.7243 -8.89687 6.29875e-06
538 1 7.86211 11.007 17.2968 -8.90145 4.84196e-06
539 1 9.43453 9.43453 15.7243 -8.89685 6.40437e-06
540 1 11.0069 11.007 17.2968 -8.90142 4.77395e-06
541 1 12.5794 9.43453 15.7243 -8.89687 6.32626e-06
542 1 14.1518 11.007 17.2968 -8.90118 3.84098e-06
543 1 15.7242 9.43453 15.7243 -8.89687 6.2592e-06
544 1 17.2966 11.007 17.2968 -8.90109 3.49131e-06
545 1 18.8691 9.43453 15.7243 -8.89687 6.24237e-06
546 1 20.4415 11.007 17.2968 -8.90109 3.47976e-06
547 1 1.11238e-09 12.5794 15.7243 -8.89687 6.24034e-06
548 1 1.57242 14.1518 17.2968 -8.90109 3.48073e-06
549 1 3.14484 12.5794 15.7243 -8.89687 6.24634e-06
550 1 4.71726 14.1518 17.2968 -8.90109 3.50819e-06
551 1 6.28969 12.5794 15.7243 -8.89687 6.29875e-06
552 1 7.86211 14.1518 17.2968 -8.90133 4.43604e-06
553 1 9.43453 12.5794 15.7243 -8.89685 6.40437e-06
554 1 11.0069 14.1518 17.2968 -8.90134 4.4406e-06
555 1 12.5794 12.5794 15.7243 -8.89687 6.32626e-06
556 1 14.1518 14.1518 17.2968 -8.90115 3.72627e-06
557 1 15.7242 12.5794 15.7243 -8.89687 6.2592e-06
558 1 17.2966 14.1518 17.2968 -8.90109 3.48846e-06
559 1 18.8691 12.5794 15.7243 -8.89687 6.24237e-06
560 1 20.4415 14.1518 17.2968 -8.90109 3.47947e-06
561 1 6.8417e-10 15.7242 15.7243 -8.89687 6.24023e-06
562 1 1.57242 17.2966 17.2968 -8.90109 3.47937e-06
563 1 3.14484 15.7242 15.7243 -8.89687 6.24367e-06
564 1 4.71726 17.2966 17.2968 -8.90109 3.48887e-06
565 1 6.28969 15.7242 15.7243 -8.89688 6.27128e-06
566 1 7.86211 17.2966 17.2968 -8.90109 3.50773e-06
567 1 9.43453 15.7242 15.7243 -8.89687 6.28986e-06
568 1 11.007 17.2966 17.2968 -8.90109 3.50795e-06
569 1 12.5794 15.7242 15.7243 -8.89687 6.27502e-06
570 1 14.1518 17.2966 17.2968 -8.90109 3.49285e-06
571 1 15.7242 15.7242 15.7243 -8.89687 6.25042e-06
572 1 17.2966 17.2966 17.2968 -8.90109 3.48196e-06
573 1 18.8691 15.7242 15.7243 -8.89687 6.24132e-06
574 1 20.4415 17.2966 17.2968 -8.90109 3.47888e-06
575 1 1.93765e-10 18.8691 15.7243 -8.89687 6.24012e-06
576 1 1.57242 20.4415 17.2968 -8.90109 3.47863e-06
577 1 3.14484 18.8691 15.7243 -8.89687 6.24074e-06
578 1 4.71726 20.4415 17.2968 -8.90109 3.47949e-06
579 1 6.28969 18.8691 15.7243 -8.89687 6.24391e-06
580 1 7.86211 20.4415 17.2968 -8.90109 3.48096e-06
581 1 9.43453 18.8691 15.7243 -8.89687 6.24592e-06