ITEM: TIMESTEP
195
ITEM: NUMBER OF ATOMS
736
ITEM: BOX BOUNDS pp pp pp
0.0000000000000000e+00 2.2013900999999997e+01
0.0000000000000000e+00 2.2013900999999997e+01
0.0000000000000000e+00 5.3462330999999999e+01
ITEM: ATOMS id type x y z c_pot c_ke
1 1 -0.000535984 1.25822e-15 0.0976062 -7.40188 3.45287e-06
2 1 1.57184 1.5724 1.62438 -8.68379 3.34287e-06
3 1 3.14426 6.12604e-16 0.097578 -7.40187 3.76039e-06
4 1 4.71665 1.5724 1.62432 -8.68379 3.48135e-06
5 1 6.2891 2.95361e-16 0.0975247 -7.40185 3.94018e-06
6 1 7.86151 1.57239 1.62425 -8.68378 3.47802e-06
7 1 9.43398 2.41418e-16 0.0974866 -7.40183 3.86525e-06
8 1 11.0064 1.57239 1.62422 -8.68378 3.3528e-06
9 1 12.5789 1.80276e-17 0.0974922 -7.40183 3.58944e-06
10 1 14.1513 1.57239 1.62426 -8.68378 3.17535e-06
11 1 15.7237 2.76053e-16 0.0975372 -7.40185 3.31319e-06
12 1 17.2961 1.5724 1.62434 -8.68379 3.07284e-06
13 1 18.8686 4.96967e-16 0.097588 -7.40187 3.25034e-06
14 1 20.4409 1.5724 1.62439 -8.68379 3.14997e-06
15 1 -0.00053678 3.1448 0.0975832 -7.40187 3.39382e-06
16 1 1.57183 4.71721 1.62432 -8.68379 3.21394e-06
17 1 3.14426 3.14479 0.0975522 -7.40186 3.69981e-06
18 1 4.71665 4.71721 1.62425 -8.68378 3.35921e-06
19 1 6.28909 3.14478 0.0974927 -7.40183 3.8854e-06
20 1 7.8615 4.7172 1.62416 -8.68377 3.37864e-06
21 1 9.43397 3.14478 0.0974495 -7.40182 3.81938e-06
22 1 11.0064 4.71719 1.62412 -8.68377 3.27562e-06
23 1 12.5789 3.14478 0.0974551 -7.40182 3.5489e-06
24 1 14.1513 4.7172 1.62417 -8.68378 3.10259e-06
25 1 15.7237 3.14478 0.0975053 -7.40184 3.27022e-06
26 1 17.2961 4.71721 1.62426 -8.68378 2.98301e-06
27 1 18.8686 3.14479 0.0975623 -7.40186 3.19907e-06
28 1 20.4409 4.71721 1.62433 -8.68379 3.03511e-06
29 1 -0.000538566 6.28963 0.0975318 -7.40185 3.26757e-06
30 1 1.57183 7.86207 1.62425 -8.68378 3.07587e-06
31 1 3.14425 6.28962 0.0974945 -7.40184 3.57006e-06
32 1 4.71663 7.86206 1.62415 -8.68377 3.22961e-06
33 1 6.28908 6.28961 0.0974204 -7.40181 3.76877e-06
34 1 7.86149 7.86205 1.62404 -8.68377 3.27804e-06
35 1 9.43397 6.2896 0.0973652 -7.40178 3.72298e-06
36 1 11.0064 7.86205 1.62399 -8.68376 3.20347e-06
37 1 12.5789 6.2896 0.0973708 -7.40179 3.46461e-06
38 1 14.1513 7.86205 1.62405 -8.68377 3.03628e-06
39 1 15.7238 6.28961 0.097433 -7.40181 3.18047e-06
40 1 17.2961 7.86206 1.62417 -8.68378 2.89508e-06
41 1 18.8686 6.28962 0.0975046 -7.40184 3.09051e-06
42 1 20.4409 7.86207 1.62426 -8.68378 2.91519e-06
43 1 -0.000539999 9.4345 0.0974906 -7.40183 3.17277e-06
44 1 1.57182 11.007 1.62422 -8.68378 3.02252e-06
45 1 3.14424 9.4345 0.0974482 -7.40182 3.47237e-06
46 1 4.71663 11.007 1.62411 -8.68377 3.18004e-06
47 1 6.28907 9.4345 0.0973621 -7.40178 3.68172e-06
48 1 7.86149 11.007 1.62399 -8.68376 3.24161e-06
49 1 9.43396 9.43449 0.0972967 -7.40176 3.65234e-06
50 1 11.0064 11.007 1.62393 -8.68376 3.17996e-06
51 1 12.5789 9.43449 0.0973023 -7.40176 3.40383e-06
52 1 14.1513 11.007 1.624 -8.68376 3.01548e-06
53 1 15.7238 9.4345 0.0973748 -7.40179 3.11529e-06
54 1 17.2961 11.007 1.62413 -8.68377 2.86452e-06
55 1 18.8686 9.4345 0.0974584 -7.40182 3.01008e-06
56 1 20.4409 11.007 1.62423 -8.68378 2.87013e-06
57 1 -0.000539999 12.5794 0.0974906 -7.40183 3.17277e-06
58 1 1.57183 14.1518 1.62425 -8.68378 3.07587e-06
59 1 3.14424 12.5794 0.0974482 -7.40182 3.47237e-06
60 1 4.71663 14.1518 1.62415 -8.68377 3.22961e-06
61 1 6.28907 12.5794 0.0973621 -7.40178 3.68172e-06
62 1 7.86149 14.1518 1.62404 -8.68377 3.27804e-06
63 1 9.43396 12.5794 0.0972967 -7.40176 3.65234e-06
64 1 11.0064 14.1519 1.62399 -8.68376 3.20347e-06
65 1 12.5789 12.5794 0.0973023 -7.40176 3.40383e-06
66 1 14.1513 14.1518 1.62405 -8.68377 3.03628e-06
67 1 15.7238 12.5794 0.0973748 -7.40179 3.11529e-06
68 1 17.2961 14.1518 1.62417 -8.68378 2.89508e-06
69 1 18.8686 12.5794 0.0974584 -7.40182 3.01008e-06
70 1 20.4409 14.1518 1.62426 -8.68378 2.91519e-06
71 1 -0.000538566 15.7243 0.0975318 -7.40185 3.26757e-06
72 1 1.57183 17.2967 1.62432 -8.68379 3.21394e-06
73 1 3.14425 15.7243 0.0974945 -7.40184 3.57006e-06
74 1 4.71665 17.2967 1.62425 -8.68378 3.35921e-06
75 1 6.28908 15.7243 0.0974204 -7.40181 3.76877e-06
76 1 7.8615 17.2967 1.62416 -8.68377 3.37864e-06
77 1 9.43397 15.7243 0.0973652 -7.40178 3.72298e-06
78 1 11.0064 17.2967 1.62412 -8.68377 3.27562e-06
79 1 12.5789 15.7243 0.0973708 -7.40179 3.46461e-06
80 1 14.1513 17.2967 1.62417 -8.68378 3.10259e-06
81 1 15.7238 15.7243 0.097433 -7.40181 3.18047e-06
82 1 17.2961 17.2967 1.62426 -8.68378 2.98301e-06
83 1 18.8686 15.7243 0.0975046 -7.40184 3.09051e-06
84 1 20.4409 17.2967 1.62433 -8.68379 3.03511e-06
85 1 -0.00053678 18.8691 0.0975832 -7.40187 3.39382e-06
86 1 1.57184 20.4415 1.62438 -8.68379 3.34287e-06
87 1 3.14426 18.8691 0.0975522 -7.40186 3.69981e-06
88 1 4.71665 20.4415 1.62432 -8.68379 3.48135e-06
89 1 6.28909 18.8691 0.0974927 -7.40183 3.8854e-06
90 1 7.86151 20.4415 1.62425 -8.68378 3.47802e-06
91 1 9.43397 18.8691 0.0974495 -7.40182 3.81938e-06
92 1 11.0064 20.4415 1.62422 -8.68378 3.3528e-06
93 1 12.5789 18.8691 0.0974551 -7.40182 3.5489e-06
94 1 14.1513 20.4415 1.62426 -8.68378 3.17535e-06
95 1 15.7237 18.8691 0.0975053 -7.40184 3.27022e-06
96 1 17.2961 20.4415 1.62434 -8.68379 3.07284e-06
97 1 18.8686 18.8691 0.0975623 -7.40186 3.19907e-06
98 1 20.4409 20.4415 1.62439 -8.68379 3.14997e-06
99 1 -0.000601006 1.40749e-15 3.15452 -8.93805 2.89403e-06
100 1 1.57174 1.5724 4.74379 -8.90301 2.35794e-06
101 1 3.14421 4.20882e-16 3.15447 -8.93805 2.99673e-06
102 1 4.71655 1.57239 4.74371 -8.90301 2.38409e-06
103 1 6.28904 -5.22963e-17 3.15439 -8.93806 3.00991e-06
104 1 7.86141 1.57239 4.74362 -8.90301 2.35071e-06
105 1 9.43391 -3.64978e-16 3.15434 -8.93807 2.9529e-06
106 1 11.0063 1.57238 4.74359 -8.90301 2.30413e-06
107 1 12.5788 1.79697e-16 3.15434 -8.93807 2.86326e-06
108 1 14.1512 1.57239 4.74363 -8.90301 2.2525e-06
109 1 15.7237 4.80657e-16 3.15441 -8.93806 2.78165e-06
110 1 17.296 1.57239 4.74373 -8.90301 2.22546e-06
111 1 18.8685 7.59558e-16 3.15449 -8.93805 2.78681e-06
112 1 20.4408 1.5724 4.7438 -8.90301 2.27442e-06
113 1 -0.000601813 3.14481 3.15448 -8.93805 2.82362e-06
114 1 1.57173 4.71721 4.74372 -8.90301 2.2327e-06
115 1 3.1442 3.1448 3.15443 -8.93806 2.92415e-06
116 1 4.71654 4.7172 4.74362 -8.90301 2.26492e-06
117 1 6.28904 3.1448 3.15434 -8.93807 2.94576e-06
118 1 7.86139 4.71718 4.74349 -8.90301 2.25318e-06
119 1 9.43391 3.14479 3.15427 -8.93808 2.90178e-06
120 1 11.0063 4.71718 4.74344 -8.90301 2.22819e-06
121 1 12.5788 3.14479 3.15428 -8.93808 2.82003e-06
122 1 14.1512 4.71718 4.74351 -8.90301 2.1814e-06
123 1 15.7237 3.1448 3.15436 -8.93807 2.73483e-06
124 1 17.296 4.7172 4.74363 -8.90301 2.13831e-06
125 1 18.8685 3.1448 3.15445 -8.93806 2.72775e-06
126 1 20.4408 4.71721 4.74373 -8.90301 2.1631e-06
127 1 -0.000603622 6.28964 3.1544 -8.93806 2.68475e-06
128 1 1.57172 7.86206 4.74363 -8.90301 2.10147e-06
129 1 3.14419 6.28964 3.15434 -8.93807 2.7801e-06
130 1 4.71652 7.86205 4.74349 -8.90301 2.14116e-06
131 1 6.28902 6.28963 3.15423 -8.93808 2.82089e-06
132 1 7.86138 7.86204 4.74333 -8.90301 2.15702e-06
133 1 9.4339 6.28962 3.15413 -8.9381 2.8068e-06
134 1 11.0063 7.86203 4.74326 -8.90302 2.15984e-06
135 1 12.5788 6.28962 3.15414 -8.9381 2.74329e-06
136 1 14.1512 7.86204 4.74334 -8.90301 2.11954e-06
137 1 15.7237 6.28963 3.15424 -8.93808 2.65008e-06
138 1 17.2961 7.86205 4.74351 -8.90301 2.05616e-06
139 1 18.8685 6.28964 3.15436 -8.93807 2.61502e-06
140 1 20.4408 7.86206 4.74363 -8.90301 2.04999e-06
141 1 -0.000605068 9.43451 3.15434 -8.93807 2.59271e-06
142 1 1.57172 11.007 4.74358 -8.90301 2.05197e-06
143 1 3.14418 9.43451 3.15427 -8.93808 2.68362e-06
144 1 4.71651 11.007 4.74344 -8.90301 2.09495e-06
145 1 6.28901 9.4345 3.15413 -8.9381 2.74005e-06
146 1 7.86137 11.007 4.74325 -8.90302 2.12333e-06
147 1 9.4339 9.4345 3.15402 -8.93812 2.75054e-06
148 1 11.0063 11.007 4.74317 -8.90302 2.13883e-06
149 1 12.5788 9.4345 3.15402 -8.93811 2.70215e-06
150 1 14.1512 11.007 4.74327 -8.90302 2.10156e-06
151 1 15.7237 9.4345 3.15415 -8.9381 2.60253e-06
152 1 17.2961 11.007 4.74345 -8.90301 2.02904e-06
153 1 18.8685 9.43451 3.15429 -8.93808 2.54455e-06
154 1 20.4409 11.007 4.74359 -8.90301 2.00881e-06
155 1 -0.000605068 12.5794 3.15434 -8.93807 2.59271e-06
156 1 1.57172 14.1518 4.74363 -8.90301 2.10147e-06
157 1 3.14418 12.5794 3.15427 -8.93808 2.68362e-06
158 1 4.71652 14.1518 4.74349 -8.90301 2.14116e-06
159 1 6.28901 12.5794 3.15413 -8.9381 2.74005e-06
160 1 7.86138 14.1519 4.74333 -8.90301 2.15702e-06
161 1 9.4339 12.5794 3.15402 -8.93812 2.75054e-06
162 1 11.0063 14.1519 4.74326 -8.90302 2.15984e-06
163 1 12.5788 12.5794 3.15402 -8.93811 2.70215e-06
164 1 14.1512 14.1519 4.74334 -8.90301 2.11954e-06
165 1 15.7237 12.5794 3.15415 -8.9381 2.60253e-06
166 1 17.2961 14.1518 4.74351 -8.90301 2.05616e-06
167 1 18.8685 12.5794 3.15429 -8.93808 2.54455e-06
168 1 20.4408 14.1518 4.74363 -8.90301 2.04999e-06
169 1 -0.000603622 15.7243 3.1544 -8.93806 2.68475e-06
170 1 1.57173 17.2967 4.74372 -8.90301 2.2327e-06
171 1 3.14419 15.7243 3.15434 -8.93807 2.7801e-06
172 1 4.71654 17.2967 4.74362 -8.90301 2.26492e-06
173 1 6.28902 15.7243 3.15423 -8.93808 2.82089e-06
174 1 7.86139 17.2967 4.74349 -8.90301 2.25318e-06
175 1 9.4339 15.7243 3.15413 -8.9381 2.8068e-06
176 1 11.0063 17.2967 4.74344 -8.90301 2.22819e-06
177 1 12.5788 15.7243 3.15414 -8.9381 2.74329e-06
178 1 14.1512 17.2967 4.74351 -8.90301 2.1814e-06
179 1 15.7237 15.7243 3.15424 -8.93808 2.65008e-06
180 1 17.296 17.2967 4.74363 -8.90301 2.13831e-06
181 1 18.8685 15.7243 3.15436 -8.93807 2.61502e-06
182 1 20.4408 17.2967 4.74373 -8.90301 2.1631e-06
183 1 -0.000601813 18.8691 3.15448 -8.93805 2.82362e-06
184 1 1.57174 20.4415 4.74379 -8.90301 2.35794e-06
185 1 3.1442 18.8691 3.15443 -8.93806 2.92415e-06
186 1 4.71655 20.4415 4.74371 -8.90301 2.38409e-06
187 1 6.28904 18.8691 3.15434 -8.93807 2.94576e-06
188 1 7.86141 20.4415 4.74362 -8.90301 2.35071e-06
189 1 9.43391 18.8691 3.15427 -8.93808 2.90178e-06
190 1 11.0063 20.4415 4.74359 -8.90301 2.30413e-06
191 1 12.5788 18.8691 3.15428 -8.93808 2.82003e-06
192 1 14.1512 20.4415 4.74363 -8.90301 2.2525e-06
193 1 15.7237 18.8691 3.15436 -8.93807 2.73483e-06
194 1 17.296 20.4415 4.74373 -8.90301 2.22546e-06
195 1 18.8685 18.8691 3.15445 -8.93806 2.72775e-06
196 1 20.4408 20.4415 4.7438 -8.90301 2.27442e-06
197 1 -0.000745328 1.20511e-15 6.30558 -8.88811 1.6182e-06
198 1 1.57155 1.57238 7.87479 -8.90467 9.95826e-07
199 1 3.14404 -2.13053e-16 6.30552 -8.88811 1.68322e-06
200 1 4.71634 1.57237 7.87468 -8.90467 1.01986e-06
201 1 6.28887 -9.00652e-16 6.30541 -8.88812 1.67605e-06
202 1 7.8612 1.57235 7.87454 -8.90467 9.89452e-07
203 1 9.43376 -8.32031e-16 6.30533 -8.88812 1.63444e-06
204 1 11.0061 1.57235 7.87449 -8.90467 9.53687e-07
205 1 12.5787 1.87241e-16 6.30534 -8.88812 1.58616e-06
206 1 14.151 1.57235 7.87456 -8.90467 9.10428e-07
207 1 15.7235 5.51065e-16 6.30543 -8.88812 1.53682e-06
208 1 17.2959 1.57237 7.87469 -8.90467 8.78934e-07
209 1 18.8684 -2.06713e-16 6.30554 -8.88811 1.54079e-06
210 1 20.4407 1.57238 7.8748 -8.90467 9.17962e-07
211 1 -0.000746397 3.14479 6.30553 -8.88811 1.54848e-06
212 1 1.57153 4.71717 7.87468 -8.90467 8.78008e-07
213 1 3.14403 3.14478 6.30546 -8.88811 1.6108e-06
214 1 4.7163 4.71714 7.87452 -8.90466 9.07126e-07
215 1 6.28886 3.14476 6.30533 -8.88812 1.61204e-06
216 1 7.86117 4.7171 7.87432 -8.90467 8.9958e-07
217 1 9.43375 3.14474 6.30523 -8.88812 1.58402e-06
218 1 11.0061 4.71708 7.87423 -8.90467 8.88386e-07
219 1 12.5787 3.14474 6.30524 -8.88812 1.54446e-06
220 1 14.1511 4.7171 7.87433 -8.90467 8.52407e-07
221 1 15.7236 3.14476 6.30535 -8.88812 1.4919e-06
222 1 17.2959 4.71714 7.87454 -8.90466 8.04433e-07
223 1 18.8684 3.14478 6.30548 -8.88811 1.48318e-06
224 1 20.4407 4.71717 7.87469 -8.90467 8.16663e-07
225 1 -0.000748778 6.28962 6.30542 -8.88812 1.41311e-06
226 1 1.57151 7.86203 7.87455 -8.90467 7.59318e-07
227 1 3.14401 6.2896 6.30534 -8.88812 1.46878e-06
228 1 4.71626 7.862 7.87432 -8.90467 7.94382e-07
229 1 6.28883 6.28957 6.30514 -8.88812 1.48905e-06
230 1 7.86112 7.86196 7.87401 -8.90469 8.16095e-07
231 1 9.43373 6.28955 6.30499 -8.88813 1.49233e-06
232 1 11.0061 7.86194 7.87387 -8.90471 8.36857e-07
233 1 12.5787 6.28955 6.305 -8.88813 1.47317e-06
234 1 14.1511 7.86196 7.87402 -8.90469 8.10858e-07
235 1 15.7236 6.28957 6.30516 -8.88812 1.41362e-06
236 1 17.296 7.862 7.87433 -8.90467 7.4223e-07
237 1 18.8684 6.2896 6.30535 -8.88812 1.37591e-06
238 1 20.4407 7.86203 7.87455 -8.90467 7.19848e-07
239 1 -0.00075067 9.4345 6.30534 -8.88812 1.32576e-06
240 1 1.5715 11.007 7.87448 -8.90467 7.16553e-07
241 1 3.14399 9.43449 6.30523 -8.88812 1.3756e-06
242 1 4.71624 11.007 7.87422 -8.90467 7.54163e-07
243 1 6.2888 9.43448 6.30499 -8.88813 1.41136e-06
244 1 7.8611 11.007 7.87386 -8.90471 7.89214e-07
245 1 9.43372 9.43447 6.30479 -8.88815 1.44051e-06
246 1 11.0061 11.007 7.87369 -8.90475 8.24646e-07
247 1 12.5787 9.43447 6.30479 -8.88815 1.4384e-06
248 1 14.1511 11.007 7.87388 -8.90471 8.03306e-07
249 1 15.7236 9.43448 6.305 -8.88813 1.37339e-06
250 1 17.296 11.007 7.87424 -8.90467 7.25391e-07
251 1 18.8684 9.43449 6.30524 -8.88812 1.31193e-06
252 1 20.4407 11.007 7.87449 -8.90467 6.87221e-07
253 1 -0.00075067 12.5794 6.30534 -8.88812 1.32576e-06
254 1 1.57151 14.1519 7.87455 -8.90467 7.59318e-07
255 1 3.14399 12.5794 6.30523 -8.88812 1.3756e-06
256 1 4.71626 14.1519 7.87432 -8.90467 7.94382e-07
257 1 6.2888 12.5794 6.30499 -8.88813 1.41136e-06
258 1 7.86112 14.1519 7.87401 -8.90469 8.16095e-07
259 1 9.43372 12.5794 6.30479 -8.88815 1.44051e-06
260 1 11.0061 14.152 7.87387 -8.90471 8.36857e-07
261 1 12.5787 12.5794 6.30479 -8.88815 1.4384e-06
262 1 14.1511 14.1519 7.87402 -8.90469 8.10858e-07
263 1 15.7236 12.5794 6.305 -8.88813 1.37339e-06
264 1 17.296 14.1519 7.87433 -8.90467 7.4223e-07
265 1 18.8684 12.5794 6.30524 -8.88812 1.31193e-06
266 1 20.4407 14.1519 7.87455 -8.90467 7.19848e-07
267 1 -0.000748778 15.7243 6.30542 -8.88812 1.41311e-06
268 1 1.57153 17.2967 7.87468 -8.90467 8.78008e-07
269 1 3.14401 15.7243 6.30534 -8.88812 1.46878e-06
270 1 4.7163 17.2968 7.87452 -8.90466 9.07126e-07
271 1 6.28883 15.7243 6.30514 -8.88812 1.48905e-06
272 1 7.86117 17.2968 7.87432 -8.90467 8.9958e-07
273 1 9.43373 15.7243 6.30499 -8.88813 1.49233e-06
274 1 11.0061 17.2968 7.87423 -8.90467 8.88386e-07
275 1 12.5787 15.7243 6.305 -8.88813 1.47317e-06
276 1 14.1511 17.2968 7.87433 -8.90467 8.52407e-07
277 1 15.7236 15.7243 6.30516 -8.88812 1.41362e-06
278 1 17.2959 17.2968 7.87454 -8.90466 8.04433e-07
279 1 18.8684 15.7243 6.30535 -8.88812 1.37591e-06
280 1 20.4407 17.2967 7.87469 -8.90467 8.16663e-07
281 1 -0.000746397 18.8691 6.30553 -8.88811 1.54848e-06
282 1 1.57155 20.4415 7.87479 -8.90467 9.95826e-07
283 1 3.14403 18.8691 6.30546 -8.88811 1.6108e-06
284 1 4.71634 20.4415 7.87468 -8.90467 1.01986e-06
285 1 6.28886 18.8691 6.30533 -8.88812 1.61204e-06
286 1 7.8612 20.4415 7.87454 -8.90467 9.89452e-07
287 1 9.43375 18.8692 6.30523 -8.88812 1.58402e-06
288 1 11.0061 20.4416 7.87449 -8.90467 9.53687e-07
289 1 12.5787 18.8692 6.30524 -8.88812 1.54446e-06
290 1 14.151 20.4415 7.87456 -8.90467 9.10428e-07
291 1 15.7236 18.8691 6.30535 -8.88812 1.4919e-06
292 1 17.2959 20.4415 7.87469 -8.90467 8.78934e-07
293 1 18.8684 18.8691 6.30548 -8.88811 1.48318e-06
294 1 20.4407 20.4415 7.8748 -8.90467 9.17962e-07
295 1 -0.000943018 1.85274e-15 9.44317 -8.89866 4.37208e-07
296 1 1.57132 1.57237 11.0113 -8.9001 1.55581e-07
297 1 3.14382 9.31066e-17 9.4431 -8.89865 4.93312e-07
298 1 4.7161 1.57234 11.0112 -8.90009 1.51126e-07
299 1 6.28864 7.43351e-16 9.44294 -8.89865 4.71844e-07
300 1 7.86096 1.57231 11.011 -8.90009 9.50364e-08
301 1 9.43354 5.10336e-16 9.44283 -8.89865 4.28517e-07
302 1 11.0059 1.57229 11.0109 -8.90009 6.80912e-08
303 1 12.5785 -3.82375e-16 9.44283 -8.89865 3.9501e-07
304 1 14.1508 1.57231 11.011 -8.90009 5.35871e-08
305 1 15.7234 5.38115e-16 9.44296 -8.89865 3.57387e-07
306 1 17.2957 1.57234 11.0112 -8.90009 4.02125e-08
307 1 18.8682 -8.31589e-16 9.44311 -8.89865 3.62323e-07
308 1 20.4405 1.57237 11.0113 -8.9001 8.51176e-08
309 1 -0.000944596 3.14476 9.4431 -8.89865 3.78453e-07
310 1 1.57129 4.71715 11.0112 -8.90009 7.67522e-08
311 1 3.1438 3.14474 9.44301 -8.89865 4.30178e-07
312 1 4.71601 4.71707 11.0109 -8.90006 7.6039e-08
313 1 6.28861 3.14469 9.44281 -8.89864 4.17669e-07
314 1 7.86087 4.71696 11.0106 -8.90007 4.86247e-08
315 1 9.43353 3.14465 9.44265 -8.89865 3.90573e-07
316 1 11.0059 4.71692 11.0104 -8.90008 5.66638e-08
317 1 12.5785 3.14465 9.44266 -8.89865 3.68927e-07
318 1 14.1509 4.71696 11.0106 -8.90007 5.66314e-08
319 1 15.7234 3.14469 9.44283 -8.89864 3.28877e-07
320 1 17.2958 4.71707 11.0109 -8.90006 2.34144e-08
321 1 18.8682 3.14474 9.44303 -8.89865 3.18802e-07
322 1 20.4405 4.71715 11.0112 -8.90009 3.10694e-08
323 1 -0.000948071 6.28958 9.44295 -8.89865 2.73239e-07
324 1 1.57125 7.86201 11.011 -8.90009 1.73828e-08
325 1 3.14375 6.28955 9.44281 -8.89864 3.13938e-07
326 1 4.7159 7.86193 11.0106 -8.90007 2.03671e-08
327 1 6.28853 6.28947 9.44247 -8.89864 3.21613e-07
328 1 7.86075 7.8618 11.0099 -8.90011 3.0063e-08
329 1 9.43348 6.28941 9.44218 -8.89865 3.32227e-07
330 1 11.0059 7.86175 11.0096 -8.90015 8.43442e-08
331 1 12.5785 6.28941 9.44219 -8.89865 3.38708e-07
332 1 14.151 7.86181 11.0099 -8.90011 1.04091e-07
333 1 15.7235 6.28947 9.44249 -8.89864 2.9384e-07
334 1 17.2959 7.86193 11.0106 -8.90007 4.5976e-08
335 1 18.8683 6.28955 9.44283 -8.89864 2.49413e-07
336 1 20.4405 7.86201 11.011 -8.90009 5.07528e-09
337 1 -0.000950801 9.43448 9.44283 -8.89865 2.15461e-07
338 1 1.57123 11.007 11.0109 -8.90009 4.82165e-09
339 1 3.1437 9.43447 9.44264 -8.89865 2.46343e-07
340 1 4.71585 11.007 11.0104 -8.90008 9.19646e-09
341 1 6.28846 9.43443 9.44217 -8.89865 2.70431e-07
342 1 7.86069 11.007 11.0096 -8.90015 3.60031e-08
343 1 9.43344 9.43439 9.44173 -8.89872 3.12575e-07
344 1 11.0059 11.007 11.0091 -8.90037 1.11693e-07
345 1 12.5786 9.43439 9.44174 -8.89872 3.42772e-07
346 1 14.1511 11.007 11.0096 -8.90015 1.40442e-07
347 1 15.7235 9.43443 9.44219 -8.89865 2.94424e-07
348 1 17.2959 11.007 11.0104 -8.90008 7.11899e-08
349 1 18.8683 9.43447 9.44266 -8.89865 2.21734e-07
350 1 20.4405 11.007 11.0109 -8.90009 8.09994e-09
351 1 -0.000950801 12.5794 9.44283 -8.89865 2.15461e-07
352 1 1.57125 14.1519 11.011 -8.90009 1.73828e-08
353 1 3.1437 12.5794 9.44264 -8.89865 2.46343e-07
354 1 4.7159 14.152 11.0106 -8.90007 2.03671e-08
355 1 6.28846 12.5795 9.44217 -8.89865 2.70431e-07
356 1 7.86075 14.1521 11.0099 -8.90011 3.0063e-08
357 1 9.43344 12.5795 9.44173 -8.89872 3.12575e-07
358 1 11.0059 14.1521 11.0096 -8.90015 8.43442e-08
359 1 12.5786 12.5795 9.44174 -8.89872 3.42772e-07
360 1 14.151 14.1521 11.0099 -8.90011 1.04091e-07
361 1 15.7235 12.5795 9.44219 -8.89865 2.94424e-07
362 1 17.2959 14.152 11.0106 -8.90007 4.5976e-08
363 1 18.8683 12.5794 9.44266 -8.89865 2.21734e-07
364 1 20.4405 14.1519 11.011 -8.90009 5.07528e-09
365 1 -0.000948071 15.7243 9.44295 -8.89865 2.73239e-07
366 1 1.57129 17.2968 11.0112 -8.90009 7.67522e-08
367 1 3.14375 15.7243 9.44281 -8.89864 3.13938e-07
368 1 4.71601 17.2968 11.0109 -8.90006 7.6039e-08
369 1 6.28853 15.7244 9.44247 -8.89864 3.21613e-07
370 1 7.86087 17.2969 11.0106 -8.90007 4.86247e-08
371 1 9.43348 15.7245 9.44218 -8.89865 3.32227e-07
372 1 11.0059 17.297 11.0104 -8.90008 5.66638e-08
373 1 12.5785 15.7245 9.44219 -8.89865 3.38708e-07
374 1 14.1509 17.2969 11.0106 -8.90007 5.66314e-08
375 1 15.7235 15.7244 9.44249 -8.89864 2.9384e-07
376 1 17.2958 17.2968 11.0109 -8.90006 2.34144e-08
377 1 18.8683 15.7243 9.44283 -8.89864 2.49413e-07
378 1 20.4405 17.2968 11.0112 -8.90009 3.10694e-08
379 1 -0.000944596 18.8691 9.4431 -8.89865 3.78453e-07
380 1 1.57132 20.4415 11.0113 -8.9001 1.55581e-07
381 1 3.1438 18.8692 9.44301 -8.89865 4.30178e-07
382 1 4.7161 20.4416 11.0112 -8.90009 1.51126e-07
383 1 6.28861 18.8692 9.44281 -8.89864 4.17669e-07
384 1 7.86096 20.4416 11.011 -8.90009 9.50364e-08
385 1 9.43353 18.8692 9.44265 -8.89865 3.90573e-07
386 1 11.0059 20.4416 11.0109 -8.90009 6.80912e-08
387 1 12.5785 18.8692 9.44266 -8.89865 3.68927e-07
388 1 14.1508 20.4416 11.011 -8.90009 5.35871e-08
389 1 15.7234 18.8692 9.44283 -8.89864 3.28877e-07
390 1 17.2957 20.4416 11.0112 -8.90009 4.02125e-08
391 1 18.8682 18.8692 9.44303 -8.89865 3.18802e-07
392 1 20.4405 20.4415 11.0113 -8.9001 8.51176e-08
393 1 -0.00116631 -1.26776e-15 12.5796 -8.89868 1.42664e-07
394 1 3.14361 -4.09822e-16 12.5795 -8.89867 1.62408e-07
395 1 6.28843 7.94464e-17 12.5793 -8.89867 8.18211e-08
396 1 9.43332 -4.90067e-16 12.5791 -8.89868 1.81395e-08
397 1 12.5783 -6.06433e-17 12.5791 -8.89868 2.32527e-08
398 1 15.7231 8.59331e-16 12.5793 -8.89867 3.48581e-08
399 1 18.868 1.45178e-16 12.5795 -8.89867 6.64046e-08
400 1 22.0127 3.14478 12.5795 -8.89867 1.21717e-07
401 1 3.14357 3.14474 12.5794 -8.89866 1.33637e-07
402 1 6.28836 3.14464 12.5791 -8.89864 6.44146e-08
403 1 9.43328 3.14455 12.5788 -8.89865 2.39035e-08
404 1 12.5783 3.14456 12.5788 -8.89865 4.87603e-08
405 1 15.7232 3.14464 12.5791 -8.89864 5.94937e-08
406 1 18.868 3.14474 12.5794 -8.89866 6.90798e-08
407 1 22.0127 6.28959 12.5793 -8.89867 1.14801e-07
408 1 3.14346 6.28952 12.5791 -8.89864 1.06979e-07
409 1 6.28816 6.28933 12.5785 -8.89854 6.35995e-08
410 1 9.43317 6.28918 12.5779 -8.8986 7.78576e-08
411 1 12.5784 6.28918 12.5779 -8.8986 1.50532e-07
412 1 15.7234 6.28934 12.5785 -8.89854 1.60612e-07
413 1 18.8681 6.28953 12.5791 -8.89864 1.18438e-07
414 1 22.0127 9.43448 12.5791 -8.89868 1.49113e-07
415 1 3.14338 9.43445 12.5788 -8.89865 1.23454e-07
416 1 6.288 9.43434 12.5779 -8.8986 1.01077e-07
417 1 9.43304 9.43421 12.5768 -8.89878 1.62275e-07
418 1 12.5785 9.43421 12.5768 -8.89879 2.74819e-07
419 1 15.7235 9.43434 12.5779 -8.8986 2.84684e-07
420 1 18.8682 9.43445 12.5788 -8.89865 2.00327e-07
421 1 22.0127 12.5794 12.5791 -8.89868 1.49113e-07
422 1 3.14338 12.5795 12.5788 -8.89865 1.23454e-07
423 1 6.288 12.5796 12.5779 -8.8986 1.01077e-07
424 1 9.43304 12.5797 12.5768 -8.89878 1.62275e-07
425 1 12.5785 12.5797 12.5768 -8.89879 2.74819e-07
426 1 15.7235 12.5796 12.5779 -8.8986 2.84684e-07
427 1 18.8682 12.5795 12.5788 -8.89865 2.00327e-07
428 1 22.0127 15.7243 12.5793 -8.89867 1.14801e-07
429 1 3.14346 15.7244 12.5791 -8.89864 1.06979e-07
430 1 6.28816 15.7246 12.5785 -8.89854 6.35995e-08
431 1 9.43317 15.7247 12.5779 -8.8986 7.78576e-08
432 1 12.5784 15.7247 12.5779 -8.8986 1.50532e-07
433 1 15.7234 15.7246 12.5785 -8.89854 1.60612e-07
434 1 18.8681 15.7244 12.5791 -8.89864 1.18438e-07
435 1 22.0127 18.8691 12.5795 -8.89867 1.21717e-07
436 1 3.14357 18.8692 12.5794 -8.89866 1.33637e-07
437 1 6.28836 18.8693 12.5791 -8.89864 6.44146e-08
438 1 9.43328 18.8693 12.5788 -8.89865 2.39035e-08
439 1 12.5783 18.8693 12.5788 -8.89865 4.87603e-08
440 1 15.7232 18.8693 12.5791 -8.89864 5.94937e-08
441 1 18.868 18.8692 12.5794 -8.89866 6.90798e-08
442 1 1.57114 1.57242 14.1479 -8.9047 4.96864e-07
443 1 4.71594 1.57237 14.1478 -8.90468 4.21263e-07
444 1 7.86077 1.5723 14.1475 -8.9047 3.02065e-07
445 1 11.0057 1.57227 14.1474 -8.9047 2.93569e-07
446 1 14.1506 1.5723 14.1476 -8.9047 3.4961e-07
447 1 17.2954 1.57237 14.1478 -8.90468 3.86981e-07
448 1 20.4402 1.57242 14.1479 -8.9047 4.48345e-07
449 1 1.57109 4.71722 14.1478 -8.90468 5.23429e-07
450 1 4.71581 4.71708 14.1475 -8.90465 4.52731e-07
451 1 7.8606 4.71685 14.1469 -8.90465 3.76041e-07
452 1 11.0057 4.71676 14.1466 -8.90466 4.24166e-07
453 1 14.1507 4.71686 14.1469 -8.90465 5.09897e-07
454 1 17.2955 4.71709 14.1475 -8.90465 5.17453e-07
455 1 20.4402 4.71722 14.1478 -8.90468 5.15711e-07
456 1 1.57102 7.86204 14.1475 -8.9047 6.17988e-07
457 1 4.71557 7.86188 14.1469 -8.90465 5.51722e-07
458 1 7.86022 7.8615 14.1455 -8.9044 5.32389e-07
459 1 11.0057 7.86138 14.1447 -8.90466 6.58527e-07
460 1 14.1511 7.86151 14.1455 -8.9044 7.86005e-07
461 1 17.2958 7.86188 14.1469 -8.90465 7.50885e-07
462 1 20.4403 7.86204 14.1476 -8.9047 6.66141e-07
463 1 1.57098 11.007 14.1474 -8.90469 6.81921e-07
464 1 4.71547 11.007 14.1466 -8.90466 6.16966e-07
465 1 7.86009 11.007 14.1447 -8.90466 6.24033e-07
466 1 11.0057 11.007 14.1432 -8.90674 7.86655e-07
467 1 14.1512 11.007 14.1447 -8.90466 9.31165e-07
468 1 17.2958 11.007 14.1466 -8.90466 8.78868e-07
469 1 20.4403 11.007 14.1474 -8.9047 7.56414e-07
470 1 1.57102 14.1519 14.1475 -8.9047 6.17988e-07
471 1 4.71557 14.152 14.1469 -8.90465 5.51722e-07
472 1 7.86022 14.1524 14.1455 -8.9044 5.32389e-07
473 1 11.0057 14.1525 14.1447 -8.90466 6.58527e-07
474 1 14.1511 14.1524 14.1455 -8.9044 7.86005e-07
475 1 17.2958 14.152 14.1469 -8.90465 7.50885e-07
476 1 20.4403 14.1519 14.1476 -8.9047 6.66141e-07
477 1 1.57109 17.2967 14.1478 -8.90468 5.23429e-07
478 1 4.71581 17.2968 14.1475 -8.90465 4.52731e-07
479 1 7.8606 17.297 14.1469 -8.90465 3.76041e-07
480 1 11.0057 17.2971 14.1466 -8.90466 4.24166e-07
481 1 14.1507 17.297 14.1469 -8.90465 5.09897e-07
482 1 17.2955 17.2968 14.1475 -8.90465 5.17453e-07
483 1 20.4402 17.2967 14.1478 -8.90468 5.15711e-07
484 1 1.57114 20.4415 14.1479 -8.9047 4.96864e-07
485 1 4.71594 20.4415 14.1478 -8.90468 4.21263e-07
486 1 7.86077 20.4416 14.1475 -8.9047 3.02065e-07
487 1 11.0057 20.4416 14.1474 -8.9047 2.93569e-07
488 1 14.1506 20.4416 14.1476 -8.9047 3.4961e-07
489 1 17.2954 20.4415 14.1478 -8.90468 3.86981e-07
490 1 20.4402 20.4415 14.1479 -8.9047 4.48345e-07
491 1 22.0125 -4.01918e-16 15.7172 -8.88818 1.06851e-06
492 1 1.57109 1.57255 17.279 -8.90297 1.94489e-06
493 1 3.14355 2.22202e-15 15.7172 -8.88819 1.05802e-06
494 1 4.71609 1.5726 17.2789 -8.90303 1.84425e-06
495 1 6.28837 1.51464e-15 15.717 -8.88817 9.01872e-07
496 1 7.86081 1.57254 17.2788 -8.9031 1.67194e-06
497 1 9.43317 1.02121e-16 15.7169 -8.8882 8.03644e-07
498 1 11.0055 1.5725 17.2787 -8.90309 1.66178e-06
499 1 12.578 -4.126e-16 15.7169 -8.8882 8.52235e-07
500 1 14.1502 1.57254 17.2788 -8.9031 1.74966e-06
501 1 15.7228 6.17947e-17 15.7171 -8.88817 9.17201e-07
502 1 17.2949 1.5726 17.279 -8.90302 1.79453e-06
503 1 18.8676 1.99665e-15 15.7172 -8.88819 9.77006e-07
504 1 20.4399 1.57255 17.279 -8.90297 1.8714e-06
505 1 22.0125 3.14492 15.7172 -8.88819 1.12458e-06
506 1 1.57113 4.71755 17.279 -8.90303 2.15559e-06
507 1 3.14353 3.14491 15.7171 -8.88818 1.10388e-06
508 1 4.71617 4.71764 17.2789 -8.90324 2.07677e-06
509 1 6.2883 3.14478 15.7169 -8.88809 9.68119e-07
510 1 7.86064 4.71722 17.2782 -8.90292 1.98201e-06
511 1 9.43313 3.14464 15.7165 -8.88817 9.05694e-07
512 1 11.0055 4.71706 17.2777 -8.90284 2.05909e-06
513 1 12.578 3.14464 15.7165 -8.88817 9.8696e-07
514 1 14.1503 4.71722 17.2783 -8.90292 2.19729e-06
515 1 15.7229 3.14478 15.7169 -8.88809 1.051e-06
516 1 17.2948 4.71765 17.2789 -8.90324 2.16987e-06
517 1 18.8676 3.14491 15.7171 -8.88818 1.07105e-06
518 1 20.4398 4.71755 17.279 -8.90303 2.13987e-06
519 1 22.0125 6.28974 15.7171 -8.88817 1.31875e-06
520 1 1.57106 7.86227 17.2788 -8.9031 2.52157e-06
521 1 3.1434 6.28967 15.7169 -8.88809 1.27224e-06
522 1 4.71574 7.86211 17.2782 -8.90292 2.47558e-06
523 1 6.28798 6.28936 15.7161 -8.8877 1.18481e-06
524 1 7.85957 7.86105 17.2759 -8.90267 2.48796e-06
525 1 9.43289 6.28897 15.7149 -8.88787 1.21072e-06
526 1 11.0055 7.86102 17.2738 -8.90497 2.71186e-06
527 1 12.5782 6.28897 15.7149 -8.88787 1.37693e-06
528 1 14.1514 7.86105 17.276 -8.90267 2.93713e-06
529 1 15.7232 6.28936 15.7161 -8.8877 1.44537e-06
530 1 17.2952 7.86211 17.2783 -8.90292 2.79067e-06
531 1 18.8677 6.28968 15.7169 -8.88809 1.36199e-06
532 1 20.4399 7.86227 17.2788 -8.9031 2.59091e-06
533 1 22.0125 9.43454 15.7169 -8.8882 1.54019e-06
534 1 1.57102 11.007 17.2787 -8.90309 2.72013e-06
535 1 3.14325 9.4345 15.7165 -8.88817 1.46875e-06
536 1 4.71558 11.007 17.2777 -8.90284 2.68653e-06
537 1 6.28758 9.43427 15.7149 -8.88787 1.4208e-06
538 1 7.85954 11.007 17.2737 -8.90497 2.75412e-06
539 1 9.4323 9.43369 15.7118 -8.88714 1.52986e-06
540 1 11.0055 11.007 17.2662 -8.91709 3.04677e-06
541 1 12.5788 9.43369 15.7118 -8.88714 1.76435e-06
542 1 14.1514 11.007 17.2738 -8.90497 3.27792e-06
543 1 15.7235 9.43427 15.715 -8.88788 1.8305e-06
544 1 17.2954 11.007 17.2777 -8.90284 3.10536e-06
545 1 18.8679 9.4345 15.7165 -8.88817 1.66667e-06
546 1 20.4399 11.007 17.2787 -8.90309 2.83102e-06
547 1 22.0125 12.5794 15.7169 -8.8882 1.54019e-06
548 1 1.57106 14.1516 17.2788 -8.9031 2.52157e-06
549 1 3.14325 12.5794 15.7165 -8.88817 1.46875e-06
550 1 4.71574 14.1518 17.2782 -8.90292 2.47558e-06
551 1 6.28758 12.5796 15.7149 -8.88787 1.4208e-06
552 1 7.85957 14.1529 17.2759 -8.90267 2.48796e-06
553 1 9.4323 12.5802 15.7118 -8.88714 1.52986e-06
554 1 11.0055 14.1529 17.2738 -8.90497 2.71186e-06
555 1 12.5788 12.5802 15.7118 -8.88714 1.76435e-06
556 1 14.1514 14.1528 17.276 -8.90267 2.93713e-06
557 1 15.7235 12.5796 15.715 -8.88788 1.8305e-06
558 1 17.2952 14.1518 17.2783 -8.90292 2.79067e-06
559 1 18.8679 12.5794 15.7165 -8.88817 1.66667e-06
560 1 20.4399 14.1516 17.2788 -8.9031 2.59091e-06
561 1 22.0125 15.7242 15.7171 -8.88817 1.31875e-06
562 1 1.57113 17.2964 17.279 -8.90303 2.15559e-06
563 1 3.1434 15.7242 15.7169 -8.88809 1.27224e-06
564 1 4.71617 17.2963 17.2789 -8.90324 2.07677e-06
565 1 6.28798 15.7245 15.7161 -8.8877 1.18481e-06
566 1 7.86064 17.2967 17.2782 -8.90292 1.98201e-06
567 1 9.43289 15.7249 15.7149 -8.88787 1.21072e-06
568 1 11.0055 17.2968 17.2777 -8.90284 2.05909e-06
569 1 12.5782 15.7249 15.7149 -8.88787 1.37693e-06
570 1 14.1503 17.2967 17.2783 -8.90292 2.19729e-06
571 1 15.7232 15.7245 15.7161 -8.8877 1.44537e-06
572 1 17.2948 17.2963 17.2789 -8.90324 2.16987e-06
573 1 18.8677 15.7242 15.7169 -8.88809 1.36199e-06
574 1 20.4398 17.2964 17.279 -8.90303 2.13987e-06
575 1 22.0125 18.869 15.7172 -8.88819 1.12458e-06
576 1 1.57109 20.4413 17.279 -8.90297 1.94489e-06
577 1 3.14353 18.869 15.7171 -8.88818 1.10388e-06
578 1 4.71609 20.4413 17.2789 -8.90303 1.84425e-06
579 1 6.2883 18.8691 15.7169 -8.88809 9.68119e-07
580 1 7.86081 20.4414 17.2788 -8.9031 1.67194e-06
581 1 9.43313 18.8693 15.7165 -8.88817 9.05694e-07
582 1 11.0055 20.4414 17.2787 -8.90309 1.66178e-06
583 1 12.578 18.8693 15.7165 -8.88817 9.8696e-07