ITEM: TIMESTEP
207
ITEM: NUMBER OF ATOMS
736
ITEM: BOX BOUNDS pp pp pp
0.0000000000000000e+00 2.2013900999999997e+01
0.0000000000000000e+00 2.2013900999999997e+01
0.0000000000000000e+00 5.3462330999999999e+01
ITEM: ATOMS id type x y z c_pot c_ke
1 1 -0.000639428 -6.74149e-19 0.0976211 -7.40188 1.43249e-07
2 1 1.57174 1.5724 1.6244 -8.68379 1.33337e-07
3 1 3.14415 -2.6343e-16 0.0975935 -7.40187 1.50661e-07
4 1 4.71655 1.5724 1.62434 -8.68379 1.36976e-07
5 1 6.28899 -1.64709e-18 0.0975371 -7.40185 1.55745e-07
6 1 7.86141 1.57239 1.62426 -8.68378 1.3776e-07
7 1 9.43387 2.95165e-16 0.0974943 -7.40183 1.54809e-07
8 1 11.0063 1.57239 1.62423 -8.68378 1.35394e-07
9 1 12.5788 8.31933e-16 0.0974973 -7.40183 1.48533e-07
10 1 14.1512 1.57239 1.62426 -8.68378 1.31312e-07
11 1 15.7236 5.71202e-16 0.0975438 -7.40185 1.41519e-07
12 1 17.296 1.5724 1.62434 -8.68379 1.28449e-07
13 1 18.8685 5.96847e-16 0.0975989 -7.40187 1.39127e-07
14 1 20.4408 1.5724 1.6244 -8.68379 1.29368e-07
15 1 -0.000639798 3.14479 0.0975963 -7.40187 1.42044e-07
16 1 1.57173 4.71721 1.62434 -8.68379 1.3092e-07
17 1 3.14415 3.14479 0.097566 -7.40186 1.49423e-07
18 1 4.71654 4.71721 1.62426 -8.68378 1.34636e-07
19 1 6.28898 3.14478 0.0975033 -7.40184 1.54584e-07
20 1 7.8614 4.7172 1.62416 -8.68377 1.35736e-07
21 1 9.43386 3.14478 0.0974554 -7.40182 1.53778e-07
22 1 11.0063 4.71719 1.62412 -8.68377 1.33693e-07
23 1 12.5788 3.14478 0.0974584 -7.40182 1.47588e-07
24 1 14.1512 4.7172 1.62417 -8.68377 1.29694e-07
25 1 15.7236 3.14478 0.09751 -7.40184 1.40549e-07
26 1 17.296 4.71721 1.62427 -8.68378 1.26608e-07
27 1 18.8685 3.14479 0.0975714 -7.40186 1.38041e-07
28 1 20.4408 4.71721 1.62434 -8.68379 1.27171e-07
29 1 -0.000640629 6.28962 0.0975408 -7.40185 1.39433e-07
30 1 1.57173 7.86207 1.62426 -8.68378 1.28224e-07
31 1 3.14414 6.28962 0.0975042 -7.40184 1.46738e-07
32 1 4.71653 7.86206 1.62416 -8.68377 1.32035e-07
33 1 6.28897 6.28961 0.0974269 -7.40181 1.52072e-07
34 1 7.86139 7.86205 1.62404 -8.68377 1.33534e-07
35 1 9.43386 6.2896 0.097367 -7.40178 1.51559e-07
36 1 11.0063 7.86205 1.62399 -8.68376 1.31899e-07
37 1 12.5788 6.2896 0.0973699 -7.40178 1.45561e-07
38 1 14.1512 7.86205 1.62405 -8.68377 1.28007e-07
39 1 15.7237 6.28961 0.0974336 -7.40181 1.38467e-07
40 1 17.296 7.86206 1.62417 -8.68378 1.24642e-07
41 1 18.8685 6.28962 0.0975096 -7.40184 1.35698e-07
42 1 20.4408 7.86207 1.62426 -8.68378 1.24755e-07
43 1 -0.000641295 9.4345 0.0974964 -7.40183 1.37435e-07
44 1 1.57173 11.007 1.62422 -8.68378 1.27138e-07
45 1 3.14413 9.4345 0.0974547 -7.40182 1.44679e-07
46 1 4.71653 11.007 1.62412 -8.68377 1.30991e-07
47 1 6.28896 9.43449 0.0973653 -7.40178 1.50154e-07
48 1 7.86139 11.007 1.62399 -8.68376 1.32669e-07
49 1 9.43385 9.43449 0.0972952 -7.40176 1.49877e-07
50 1 11.0063 11.007 1.62393 -8.68376 1.31218e-07
51 1 12.5788 9.43449 0.0972982 -7.40176 1.44034e-07
52 1 14.1512 11.007 1.62399 -8.68376 1.27375e-07
53 1 15.7237 9.43449 0.097372 -7.40179 1.36894e-07
54 1 17.296 11.007 1.62413 -8.68377 1.23884e-07
55 1 18.8685 9.4345 0.09746 -7.40182 1.33915e-07
56 1 20.4408 11.007 1.62423 -8.68378 1.23795e-07
57 1 -0.000641295 12.5794 0.0974964 -7.40183 1.37435e-07
58 1 1.57173 14.1518 1.62426 -8.68378 1.28224e-07
59 1 3.14413 12.5794 0.0974547 -7.40182 1.44679e-07
60 1 4.71653 14.1518 1.62416 -8.68377 1.32035e-07
61 1 6.28896 12.5794 0.0973653 -7.40178 1.50154e-07
62 1 7.86139 14.1518 1.62404 -8.68377 1.33534e-07
63 1 9.43385 12.5794 0.0972952 -7.40176 1.49877e-07
64 1 11.0063 14.1519 1.62399 -8.68376 1.31899e-07
65 1 12.5788 12.5794 0.0972982 -7.40176 1.44034e-07
66 1 14.1512 14.1518 1.62405 -8.68377 1.28007e-07
67 1 15.7237 12.5794 0.097372 -7.40179 1.36894e-07
68 1 17.296 14.1518 1.62417 -8.68378 1.24642e-07
69 1 18.8685 12.5794 0.09746 -7.40182 1.33915e-07
70 1 20.4408 14.1518 1.62426 -8.68378 1.24755e-07
71 1 -0.000640629 15.7243 0.0975408 -7.40185 1.39433e-07
72 1 1.57173 17.2967 1.62434 -8.68379 1.3092e-07
73 1 3.14414 15.7243 0.0975042 -7.40184 1.46738e-07
74 1 4.71654 17.2967 1.62426 -8.68378 1.34636e-07
75 1 6.28897 15.7243 0.0974269 -7.40181 1.52072e-07
76 1 7.8614 17.2967 1.62416 -8.68377 1.35736e-07
77 1 9.43386 15.7243 0.097367 -7.40178 1.51559e-07
78 1 11.0063 17.2967 1.62412 -8.68377 1.33693e-07
79 1 12.5788 15.7243 0.0973699 -7.40178 1.45561e-07
80 1 14.1512 17.2967 1.62417 -8.68377 1.29694e-07
81 1 15.7237 15.7243 0.0974336 -7.40181 1.38467e-07
82 1 17.296 17.2967 1.62427 -8.68378 1.26608e-07
83 1 18.8685 15.7243 0.0975096 -7.40184 1.35698e-07
84 1 20.4408 17.2967 1.62434 -8.68379 1.27171e-07
85 1 -0.000639798 18.8691 0.0975963 -7.40187 1.42044e-07
86 1 1.57174 20.4415 1.6244 -8.68379 1.33337e-07
87 1 3.14415 18.8691 0.097566 -7.40186 1.49423e-07
88 1 4.71655 20.4415 1.62434 -8.68379 1.36976e-07
89 1 6.28898 18.8691 0.0975033 -7.40184 1.54584e-07
90 1 7.86141 20.4415 1.62426 -8.68378 1.3776e-07
91 1 9.43386 18.8691 0.0974554 -7.40182 1.53778e-07
92 1 11.0063 20.4415 1.62423 -8.68378 1.35394e-07
93 1 12.5788 18.8691 0.0974584 -7.40182 1.47588e-07
94 1 14.1512 20.4415 1.62426 -8.68378 1.31312e-07
95 1 15.7236 18.8691 0.09751 -7.40184 1.40549e-07
96 1 17.296 20.4415 1.62434 -8.68379 1.28449e-07
97 1 18.8685 18.8691 0.0975714 -7.40186 1.38041e-07
98 1 20.4408 20.4415 1.6244 -8.68379 1.29368e-07
99 1 -0.000693895 3.16114e-16 3.15453 -8.93805 1.13925e-07
100 1 1.57165 1.5724 4.74381 -8.90301 8.88459e-08
101 1 3.14411 -5.30614e-17 3.15449 -8.93805 1.16058e-07
102 1 4.71647 1.57239 4.74373 -8.90301 8.94816e-08
103 1 6.28895 4.68273e-16 3.15441 -8.93806 1.16888e-07
104 1 7.86132 1.57239 4.74363 -8.90301 8.92381e-08
105 1 9.43382 9.23342e-16 3.15434 -8.93807 1.16215e-07
106 1 11.0062 1.57238 4.74359 -8.90301 8.86317e-08
107 1 12.5787 1.03041e-15 3.15435 -8.93807 1.14511e-07
108 1 14.1511 1.57239 4.74364 -8.90301 8.77602e-08
109 1 15.7236 8.03465e-16 3.15442 -8.93806 1.12651e-07
110 1 17.2959 1.57239 4.74374 -8.90301 8.71066e-08
111 1 18.8684 1.13711e-15 3.1545 -8.93805 1.12251e-07
112 1 20.4408 1.5724 4.74381 -8.90301 8.75988e-08
113 1 -0.000694255 3.14481 3.15449 -8.93805 1.12651e-07
114 1 1.57165 4.71721 4.74373 -8.90301 8.66397e-08
115 1 3.14411 3.1448 3.15445 -8.93806 1.14743e-07
116 1 4.71645 4.7172 4.74363 -8.90301 8.73436e-08
117 1 6.28894 3.14479 3.15435 -8.93807 1.15685e-07
118 1 7.86131 4.71718 4.7435 -8.90301 8.73901e-08
119 1 9.43381 3.14479 3.15428 -8.93808 1.15194e-07
120 1 11.0062 4.71718 4.74344 -8.90301 8.70821e-08
121 1 12.5787 3.14479 3.15428 -8.93808 1.13608e-07
122 1 14.1511 4.71718 4.74351 -8.90301 8.62901e-08
123 1 15.7236 3.14479 3.15436 -8.93807 1.11708e-07
124 1 17.296 4.7172 4.74364 -8.90301 8.5433e-08
125 1 18.8684 3.1448 3.15446 -8.93806 1.11141e-07
126 1 20.4408 4.71721 4.74374 -8.90301 8.55969e-08
127 1 -0.000695063 6.28964 3.15441 -8.93806 1.10052e-07
128 1 1.57164 7.86206 4.74363 -8.90301 8.42207e-08
129 1 3.1441 6.28963 3.15435 -8.93807 1.12049e-07
130 1 4.71644 7.86205 4.7435 -8.90301 8.50083e-08
131 1 6.28893 6.28962 3.15423 -8.93808 1.13244e-07
132 1 7.8613 7.86204 4.74333 -8.90301 8.54212e-08
133 1 9.43381 6.28962 3.15413 -8.9381 1.13168e-07
134 1 11.0062 7.86203 4.74325 -8.90302 8.54923e-08
135 1 12.5787 6.28962 3.15414 -8.9381 1.11848e-07
136 1 14.1511 7.86204 4.74334 -8.90301 8.48044e-08
137 1 15.7236 6.28962 3.15424 -8.93808 1.09861e-07
138 1 17.296 7.86205 4.74351 -8.90301 8.36927e-08
139 1 18.8684 6.28963 3.15436 -8.93807 1.08917e-07
140 1 20.4408 7.86206 4.74364 -8.90301 8.34399e-08
141 1 -0.000695707 9.43451 3.15435 -8.93807 1.08231e-07
142 1 1.57164 11.007 4.74359 -8.90301 8.32626e-08
143 1 3.14409 9.43451 3.15428 -8.93808 1.1015e-07
144 1 4.71643 11.007 4.74344 -8.90301 8.40872e-08
145 1 6.28892 9.4345 3.15413 -8.9381 1.11548e-07
146 1 7.86129 11.007 4.74325 -8.90302 8.46651e-08
147 1 9.4338 9.4345 3.15401 -8.93812 1.1181e-07
148 1 11.0062 11.007 4.74317 -8.90302 8.49074e-08
149 1 12.5787 9.4345 3.15402 -8.93812 1.10708e-07
150 1 14.1511 11.007 4.74326 -8.90302 8.4267e-08
151 1 15.7236 9.4345 3.15414 -8.9381 1.08651e-07
152 1 17.296 11.007 4.74345 -8.90301 8.30413e-08
153 1 18.8684 9.43451 3.15429 -8.93808 1.07403e-07
154 1 20.4408 11.007 4.74359 -8.90301 8.26007e-08
155 1 -0.000695707 12.5794 3.15435 -8.93807 1.08231e-07
156 1 1.57164 14.1518 4.74363 -8.90301 8.42207e-08
157 1 3.14409 12.5794 3.15428 -8.93808 1.1015e-07
158 1 4.71644 14.1518 4.7435 -8.90301 8.50083e-08
159 1 6.28892 12.5794 3.15413 -8.9381 1.11548e-07
160 1 7.8613 14.1519 4.74333 -8.90301 8.54212e-08
161 1 9.4338 12.5794 3.15401 -8.93812 1.1181e-07
162 1 11.0062 14.1519 4.74325 -8.90302 8.54923e-08
163 1 12.5787 12.5794 3.15402 -8.93812 1.10708e-07
164 1 14.1511 14.1519 4.74334 -8.90301 8.48044e-08
165 1 15.7236 12.5794 3.15414 -8.9381 1.08651e-07
166 1 17.296 14.1518 4.74351 -8.90301 8.36927e-08
167 1 18.8684 12.5794 3.15429 -8.93808 1.07403e-07
168 1 20.4408 14.1518 4.74364 -8.90301 8.34399e-08
169 1 -0.000695063 15.7243 3.15441 -8.93806 1.10052e-07
170 1 1.57165 17.2967 4.74373 -8.90301 8.66397e-08
171 1 3.1441 15.7243 3.15435 -8.93807 1.12049e-07
172 1 4.71645 17.2967 4.74363 -8.90301 8.73436e-08
173 1 6.28893 15.7243 3.15423 -8.93808 1.13244e-07
174 1 7.86131 17.2967 4.7435 -8.90301 8.73901e-08
175 1 9.43381 15.7243 3.15413 -8.9381 1.13168e-07
176 1 11.0062 17.2967 4.74344 -8.90301 8.70821e-08
177 1 12.5787 15.7243 3.15414 -8.9381 1.11848e-07
178 1 14.1511 17.2967 4.74351 -8.90301 8.62901e-08
179 1 15.7236 15.7243 3.15424 -8.93808 1.09861e-07
180 1 17.296 17.2967 4.74364 -8.90301 8.5433e-08
181 1 18.8684 15.7243 3.15436 -8.93807 1.08917e-07
182 1 20.4408 17.2967 4.74374 -8.90301 8.55969e-08
183 1 -0.000694255 18.8691 3.15449 -8.93805 1.12651e-07
184 1 1.57165 20.4415 4.74381 -8.90301 8.88459e-08
185 1 3.14411 18.8691 3.15445 -8.93806 1.14743e-07
186 1 4.71647 20.4415 4.74373 -8.90301 8.94816e-08
187 1 6.28894 18.8691 3.15435 -8.93807 1.15685e-07
188 1 7.86132 20.4415 4.74363 -8.90301 8.92381e-08
189 1 9.43381 18.8691 3.15428 -8.93808 1.15194e-07
190 1 11.0062 20.4415 4.74359 -8.90301 8.86317e-08
191 1 12.5787 18.8691 3.15428 -8.93808 1.13608e-07
192 1 14.1511 20.4415 4.74364 -8.90301 8.77602e-08
193 1 15.7236 18.8691 3.15436 -8.93807 1.11708e-07
194 1 17.2959 20.4415 4.74374 -8.90301 8.71066e-08
195 1 18.8684 18.8691 3.15446 -8.93806 1.11141e-07
196 1 20.4408 20.4415 4.74381 -8.90301 8.75988e-08
197 1 -0.00081225 8.26989e-16 6.30559 -8.88811 5.75377e-08
198 1 1.5715 1.57238 7.8748 -8.90467 3.15466e-08
199 1 3.14398 -2.77537e-16 6.30554 -8.88811 5.85908e-08
200 1 4.71629 1.57237 7.87469 -8.90467 3.20381e-08
201 1 6.2888 -2.77986e-16 6.30542 -8.88812 5.87461e-08
202 1 7.86115 1.57235 7.87455 -8.90467 3.18056e-08
203 1 9.43369 2.34854e-16 6.30534 -8.88812 5.83254e-08
204 1 11.0061 1.57235 7.87449 -8.90467 3.13979e-08
205 1 12.5786 6.8268e-16 6.30534 -8.88812 5.76394e-08
206 1 14.151 1.57235 7.87456 -8.90467 3.07619e-08
207 1 15.7235 1.00636e-15 6.30543 -8.88812 5.6769e-08
208 1 17.2958 1.57237 7.8747 -8.90467 3.01617e-08
209 1 18.8683 8.31331e-16 6.30554 -8.88811 5.6569e-08
210 1 20.4406 1.57238 7.87481 -8.90467 3.0506e-08
211 1 -0.000812702 3.14479 6.30554 -8.88811 5.63732e-08
212 1 1.57148 4.71717 7.87469 -8.90467 2.96831e-08
213 1 3.14397 3.14478 6.30548 -8.88811 5.73827e-08
214 1 4.71625 4.71714 7.87453 -8.90466 3.02301e-08
215 1 6.28879 3.14476 6.30534 -8.88812 5.76448e-08
216 1 7.86112 4.7171 7.87432 -8.90467 3.02864e-08
217 1 9.43368 3.14474 6.30524 -8.88812 5.74036e-08
218 1 11.0061 4.71708 7.87423 -8.90467 3.01918e-08
219 1 12.5786 3.14474 6.30524 -8.88812 5.68365e-08
220 1 14.151 4.7171 7.87433 -8.90467 2.96541e-08
221 1 15.7235 3.14476 6.30535 -8.88812 5.59307e-08
222 1 17.2959 4.71714 7.87454 -8.90466 2.88548e-08
223 1 18.8683 3.14478 6.30549 -8.88811 5.55677e-08
224 1 20.4406 4.71717 7.8747 -8.90467 2.88618e-08
225 1 -0.000813702 6.28962 6.30543 -8.88812 5.403e-08
226 1 1.57146 7.86203 7.87455 -8.90467 2.77091e-08
227 1 3.14394 6.2896 6.30534 -8.88812 5.49356e-08
228 1 4.71621 7.862 7.87432 -8.90467 2.83216e-08
229 1 6.28876 6.28957 6.30515 -8.88812 5.54382e-08
230 1 7.86107 7.86196 7.87401 -8.90469 2.87444e-08
231 1 9.43366 6.28955 6.30499 -8.88813 5.56067e-08
232 1 11.0061 7.86194 7.87386 -8.90471 2.9051e-08
233 1 12.5786 6.28955 6.30499 -8.88813 5.53138e-08
234 1 14.1511 7.86196 7.87401 -8.90469 2.86453e-08
235 1 15.7235 6.28957 6.30516 -8.88812 5.43325e-08
236 1 17.2959 7.862 7.87433 -8.90467 2.75996e-08
237 1 18.8683 6.2896 6.30535 -8.88812 5.36007e-08
238 1 20.4407 7.86203 7.87456 -8.90467 2.71742e-08
239 1 -0.00081449 9.4345 6.30534 -8.88812 5.2423e-08
240 1 1.57146 11.007 7.87449 -8.90467 2.6955e-08
241 1 3.14393 9.43449 6.30523 -8.88812 5.32407e-08
242 1 4.71619 11.007 7.87423 -8.90467 2.75961e-08
243 1 6.28874 9.43448 6.30499 -8.88813 5.39383e-08
244 1 7.86105 11.007 7.87386 -8.90471 2.81855e-08
245 1 9.43365 9.43447 6.30478 -8.88815 5.44417e-08
246 1 11.0061 11.007 7.87368 -8.90475 2.86742e-08
247 1 12.5786 9.43447 6.30478 -8.88815 5.43743e-08
248 1 14.1511 11.007 7.87387 -8.90471 2.83286e-08
249 1 15.7235 9.43448 6.305 -8.88813 5.33348e-08
250 1 17.2959 11.007 7.87423 -8.90467 2.71727e-08
251 1 18.8683 9.43449 6.30524 -8.88812 5.23033e-08
252 1 20.4407 11.007 7.87449 -8.90467 2.65513e-08
253 1 -0.00081449 12.5794 6.30534 -8.88812 5.2423e-08
254 1 1.57146 14.1519 7.87455 -8.90467 2.77091e-08
255 1 3.14393 12.5794 6.30523 -8.88812 5.32407e-08
256 1 4.71621 14.1519 7.87432 -8.90467 2.83216e-08
257 1 6.28874 12.5794 6.30499 -8.88813 5.39383e-08
258 1 7.86107 14.1519 7.87401 -8.90469 2.87444e-08
259 1 9.43365 12.5794 6.30478 -8.88815 5.44417e-08
260 1 11.0061 14.152 7.87386 -8.90471 2.9051e-08
261 1 12.5786 12.5794 6.30478 -8.88815 5.43743e-08
262 1 14.1511 14.1519 7.87401 -8.90469 2.86453e-08
263 1 15.7235 12.5794 6.305 -8.88813 5.33348e-08
264 1 17.2959 14.1519 7.87433 -8.90467 2.75996e-08
265 1 18.8683 12.5794 6.30524 -8.88812 5.23033e-08
266 1 20.4407 14.1519 7.87456 -8.90467 2.71742e-08
267 1 -0.000813702 15.7243 6.30543 -8.88812 5.403e-08
268 1 1.57148 17.2967 7.87469 -8.90467 2.96831e-08
269 1 3.14394 15.7243 6.30534 -8.88812 5.49356e-08
270 1 4.71625 17.2968 7.87453 -8.90466 3.02301e-08
271 1 6.28876 15.7243 6.30515 -8.88812 5.54382e-08
272 1 7.86112 17.2968 7.87432 -8.90467 3.02864e-08
273 1 9.43366 15.7244 6.30499 -8.88813 5.56067e-08
274 1 11.0061 17.2968 7.87423 -8.90467 3.01918e-08
275 1 12.5786 15.7244 6.30499 -8.88813 5.53138e-08
276 1 14.151 17.2968 7.87433 -8.90467 2.96541e-08
277 1 15.7235 15.7243 6.30516 -8.88812 5.43325e-08
278 1 17.2959 17.2968 7.87454 -8.90466 2.88548e-08
279 1 18.8683 15.7243 6.30535 -8.88812 5.36007e-08
280 1 20.4406 17.2967 7.8747 -8.90467 2.88618e-08
281 1 -0.000812702 18.8691 6.30554 -8.88811 5.63732e-08
282 1 1.5715 20.4415 7.8748 -8.90467 3.15466e-08
283 1 3.14397 18.8691 6.30548 -8.88811 5.73827e-08
284 1 4.71629 20.4415 7.87469 -8.90467 3.20381e-08
285 1 6.28879 18.8691 6.30534 -8.88812 5.76448e-08
286 1 7.86115 20.4415 7.87455 -8.90467 3.18056e-08
287 1 9.43368 18.8692 6.30524 -8.88812 5.74036e-08
288 1 11.0061 20.4416 7.87449 -8.90467 3.13979e-08
289 1 12.5786 18.8692 6.30524 -8.88812 5.68365e-08
290 1 14.151 20.4415 7.87456 -8.90467 3.07619e-08
291 1 15.7235 18.8691 6.30535 -8.88812 5.59307e-08
292 1 17.2958 20.4415 7.8747 -8.90467 3.01617e-08
293 1 18.8683 18.8691 6.30549 -8.88811 5.55677e-08
294 1 20.4406 20.4415 7.87481 -8.90467 3.0506e-08
295 1 -0.000972562 5.91142e-17 9.44318 -8.89866 1.09329e-08
296 1 1.57131 1.57237 11.0113 -8.9001 1.72423e-09
297 1 3.14379 -3.97774e-16 9.44311 -8.89865 1.17373e-08
298 1 4.71609 1.57234 11.0112 -8.90009 1.67082e-09
299 1 6.28861 6.78559e-17 9.44295 -8.89865 1.16064e-08
300 1 7.86095 1.57231 11.011 -8.90009 9.79275e-10
301 1 9.43351 -1.58467e-17 9.44283 -8.89865 1.11325e-08
302 1 11.0059 1.57229 11.0109 -8.90009 6.70066e-10
303 1 12.5784 -4.02342e-17 9.44283 -8.89865 1.07038e-08
304 1 14.1508 1.57231 11.011 -8.90009 5.5603e-10
305 1 15.7233 1.81682e-16 9.44296 -8.89865 1.01344e-08
306 1 17.2957 1.57234 11.0112 -8.90009 4.08386e-10
307 1 18.8682 4.26046e-16 9.44312 -8.89865 1.00477e-08
308 1 20.4405 1.57237 11.0113 -8.9001 9.00694e-10
309 1 -0.000973216 3.14476 9.44312 -8.89865 1.01035e-08
310 1 1.57128 4.71715 11.0112 -8.90009 8.52358e-10
311 1 3.14377 3.14474 9.44302 -8.89865 1.08496e-08
312 1 4.716 4.71707 11.0109 -8.90006 8.38779e-10
313 1 6.28858 3.14469 9.44282 -8.89864 1.08268e-08
314 1 7.86087 4.71696 11.0106 -8.90007 4.83158e-10
315 1 9.4335 3.14465 9.44265 -8.89865 1.05514e-08
316 1 11.0059 4.71692 11.0104 -8.90008 5.80232e-10
317 1 12.5785 3.14465 9.44265 -8.89865 1.02674e-08
318 1 14.1509 4.71696 11.0106 -8.90007 6.35757e-10
319 1 15.7234 3.14469 9.44283 -8.89864 9.67171e-09
320 1 17.2958 4.71707 11.0109 -8.90006 2.65194e-10
321 1 18.8682 3.14474 9.44303 -8.89865 9.40565e-09
322 1 20.4405 4.71715 11.0112 -8.90009 3.25435e-10
323 1 -0.000974632 6.28958 9.44296 -8.89865 8.55542e-09
324 1 1.57124 7.86201 11.011 -8.90009 1.96242e-10
325 1 3.14372 6.28955 9.44282 -8.89864 9.15777e-09
326 1 4.7159 7.86193 11.0106 -8.90007 2.21093e-10
327 1 6.2885 6.28947 9.44248 -8.89864 9.37643e-09
328 1 7.86074 7.8618 11.0099 -8.90011 2.9635e-10
329 1 9.43345 6.28941 9.44218 -8.89865 9.55778e-09
330 1 11.0059 7.86175 11.0096 -8.90015 9.21707e-10
331 1 12.5785 6.28941 9.44218 -8.89865 9.61253e-09
332 1 14.151 7.8618 11.0099 -8.90011 1.20153e-09
333 1 15.7235 6.28947 9.44249 -8.89864 8.96547e-09
334 1 17.2959 7.86193 11.0106 -8.90007 5.55658e-10
335 1 18.8682 6.28955 9.44283 -8.89864 8.29452e-09
336 1 20.4405 7.86201 11.011 -8.90009 6.19184e-11
337 1 -0.000975724 9.43448 9.44283 -8.89865 7.6255e-09
338 1 1.57123 11.007 11.0109 -8.90009 5.76564e-11
339 1 3.14368 9.43447 9.44265 -8.89865 8.10361e-09
340 1 4.71585 11.007 11.0104 -8.90008 9.71432e-11
341 1 6.28844 9.43443 9.44217 -8.89865 8.51914e-09
342 1 7.86069 11.007 11.0096 -8.90015 3.70062e-10
343 1 9.43342 9.43439 9.44172 -8.89872 9.07865e-09
344 1 11.0059 11.007 11.0091 -8.90037 1.23593e-09
345 1 12.5785 9.43439 9.44172 -8.89872 9.41254e-09
346 1 14.1511 11.007 11.0096 -8.90015 1.61363e-09
347 1 15.7235 9.43443 9.44218 -8.89865 8.7287e-09
348 1 17.2959 11.007 11.0104 -8.90008 8.46903e-10
349 1 18.8683 9.43447 9.44266 -8.89865 7.72759e-09
350 1 20.4405 11.007 11.0109 -8.90009 1.03928e-10
351 1 -0.000975724 12.5794 9.44283 -8.89865 7.6255e-09
352 1 1.57124 14.1519 11.011 -8.90009 1.96242e-10
353 1 3.14368 12.5794 9.44265 -8.89865 8.10361e-09
354 1 4.7159 14.152 11.0106 -8.90007 2.21093e-10
355 1 6.28844 12.5795 9.44217 -8.89865 8.51914e-09
356 1 7.86074 14.1521 11.0099 -8.90011 2.9635e-10
357 1 9.43342 12.5795 9.44172 -8.89872 9.07865e-09
358 1 11.0059 14.1521 11.0096 -8.90015 9.21707e-10
359 1 12.5785 12.5795 9.44172 -8.89872 9.41254e-09
360 1 14.151 14.1521 11.0099 -8.90011 1.20153e-09
361 1 15.7235 12.5795 9.44218 -8.89865 8.7287e-09
362 1 17.2959 14.152 11.0106 -8.90007 5.55658e-10
363 1 18.8683 12.5794 9.44266 -8.89865 7.72759e-09
364 1 20.4405 14.1519 11.011 -8.90009 6.19184e-11
365 1 -0.000974632 15.7243 9.44296 -8.89865 8.55542e-09
366 1 1.57128 17.2968 11.0112 -8.90009 8.52358e-10
367 1 3.14372 15.7243 9.44282 -8.89864 9.15777e-09
368 1 4.716 17.2968 11.0109 -8.90006 8.38779e-10
369 1 6.2885 15.7244 9.44248 -8.89864 9.37643e-09
370 1 7.86087 17.2969 11.0106 -8.90007 4.83158e-10
371 1 9.43345 15.7245 9.44218 -8.89865 9.55778e-09
372 1 11.0059 17.297 11.0104 -8.90008 5.80232e-10
373 1 12.5785 15.7245 9.44218 -8.89865 9.61253e-09
374 1 14.1509 17.2969 11.0106 -8.90007 6.35757e-10
375 1 15.7235 15.7244 9.44249 -8.89864 8.96547e-09
376 1 17.2958 17.2968 11.0109 -8.90006 2.65194e-10
377 1 18.8682 15.7243 9.44283 -8.89864 8.29452e-09
378 1 20.4405 17.2968 11.0112 -8.90009 3.25435e-10
379 1 -0.000973216 18.8691 9.44312 -8.89865 1.01035e-08
380 1 1.57131 20.4415 11.0113 -8.9001 1.72423e-09
381 1 3.14377 18.8692 9.44302 -8.89865 1.08496e-08
382 1 4.71609 20.4416 11.0112 -8.90009 1.67082e-09
383 1 6.28858 18.8692 9.44282 -8.89864 1.08268e-08
384 1 7.86095 20.4416 11.011 -8.90009 9.79275e-10
385 1 9.4335 18.8692 9.44265 -8.89865 1.05514e-08
386 1 11.0059 20.4416 11.0109 -8.90009 6.70066e-10
387 1 12.5785 18.8692 9.44265 -8.89865 1.02674e-08
388 1 14.1508 20.4416 11.011 -8.90009 5.5603e-10
389 1 15.7234 18.8692 9.44283 -8.89864 9.67171e-09
390 1 17.2957 20.4416 11.0112 -8.90009 4.08386e-10
391 1 18.8682 18.8692 9.44303 -8.89865 9.40565e-09
392 1 20.4405 20.4415 11.0113 -8.9001 9.00694e-10
393 1 -0.00115163 4.20921e-17 12.5796 -8.89868 4.81774e-09
394 1 3.14363 -9.04301e-17 12.5795 -8.89867 4.85015e-09
395 1 6.28844 7.03831e-16 12.5793 -8.89867 3.67705e-09
396 1 9.43333 4.56337e-16 12.5791 -8.89868 2.83195e-09
397 1 12.5783 7.04651e-16 12.5791 -8.89868 3.0609e-09
398 1 15.7232 1.01348e-15 12.5793 -8.89867 3.49269e-09
399 1 18.868 -2.52929e-16 12.5795 -8.89867 4.00474e-09
400 1 22.0127 3.14478 12.5795 -8.89867 4.84798e-09
401 1 3.14359 3.14474 12.5794 -8.89866 4.78754e-09
402 1 6.28837 3.14464 12.5791 -8.89864 3.74419e-09
403 1 9.4333 3.14455 12.5788 -8.89865 3.16003e-09
404 1 12.5783 3.14455 12.5788 -8.89865 3.61206e-09
405 1 15.7232 3.14464 12.5791 -8.89864 4.04093e-09
406 1 18.868 3.14474 12.5794 -8.89866 4.30773e-09
407 1 22.0127 6.28959 12.5793 -8.89867 5.32805e-09
408 1 3.14348 6.28952 12.5791 -8.89864 5.03928e-09
409 1 6.28818 6.28933 12.5785 -8.89854 4.29192e-09
410 1 9.43319 6.28917 12.5779 -8.8986 4.31657e-09
411 1 12.5784 6.28918 12.5779 -8.8986 5.29839e-09
412 1 15.7234 6.28933 12.5785 -8.89854 5.73558e-09
413 1 18.8681 6.28952 12.5791 -8.89864 5.4264e-09
414 1 22.0127 9.43448 12.5791 -8.89868 6.12235e-09
415 1 3.1434 9.43445 12.5788 -8.89865 5.62972e-09
416 1 6.28802 9.43434 12.5779 -8.8986 5.11316e-09
417 1 9.43306 9.43421 12.5768 -8.89878 5.65385e-09
418 1 12.5785 9.43421 12.5768 -8.89878 7.05617e-09
419 1 15.7236 9.43434 12.5779 -8.8986 7.49995e-09
420 1 18.8682 9.43445 12.5788 -8.89865 6.7443e-09
421 1 22.0127 12.5794 12.5791 -8.89868 6.12235e-09
422 1 3.1434 12.5795 12.5788 -8.89865 5.62972e-09
423 1 6.28802 12.5796 12.5779 -8.8986 5.11316e-09
424 1 9.43306 12.5797 12.5768 -8.89878 5.65385e-09
425 1 12.5785 12.5797 12.5768 -8.89878 7.05617e-09
426 1 15.7236 12.5796 12.5779 -8.8986 7.49995e-09
427 1 18.8682 12.5795 12.5788 -8.89865 6.7443e-09
428 1 22.0127 15.7243 12.5793 -8.89867 5.32805e-09
429 1 3.14348 15.7244 12.5791 -8.89864 5.03928e-09
430 1 6.28818 15.7246 12.5785 -8.89854 4.29192e-09
431 1 9.43319 15.7247 12.5779 -8.8986 4.31657e-09
432 1 12.5784 15.7247 12.5779 -8.8986 5.29839e-09
433 1 15.7234 15.7246 12.5785 -8.89854 5.73558e-09
434 1 18.8681 15.7244 12.5791 -8.89864 5.4264e-09
435 1 22.0127 18.8691 12.5795 -8.89867 4.84798e-09
436 1 3.14359 18.8692 12.5794 -8.89866 4.78754e-09
437 1 6.28837 18.8693 12.5791 -8.89864 3.74419e-09
438 1 9.4333 18.8693 12.5788 -8.89865 3.16003e-09
439 1 12.5783 18.8693 12.5788 -8.89865 3.61206e-09
440 1 15.7232 18.8693 12.5791 -8.89864 4.04093e-09
441 1 18.868 18.8692 12.5794 -8.89866 4.30773e-09
442 1 1.57118 1.57242 14.1479 -8.9047 2.11615e-08
443 1 4.71598 1.57237 14.1478 -8.90468 1.98079e-08
444 1 7.8608 1.5723 14.1475 -8.9047 1.80547e-08
445 1 11.0057 1.57227 14.1474 -8.9047 1.80171e-08
446 1 14.1506 1.5723 14.1475 -8.9047 1.91873e-08
447 1 17.2954 1.57237 14.1478 -8.90468 2.01397e-08
448 1 20.4402 1.57242 14.1479 -8.9047 2.09234e-08
449 1 1.57113 4.71722 14.1478 -8.90468 2.25048e-08
450 1 4.71584 4.71708 14.1475 -8.90465 2.12189e-08
451 1 7.86064 4.71685 14.1469 -8.90465 1.99337e-08
452 1 11.0057 4.71676 14.1466 -8.90466 2.05078e-08
453 1 14.1508 4.71685 14.1469 -8.90465 2.20234e-08
454 1 17.2956 4.71709 14.1475 -8.90465 2.26707e-08
455 1 20.4403 4.71722 14.1478 -8.90468 2.27327e-08
456 1 1.57106 7.86204 14.1475 -8.9047 2.47713e-08
457 1 4.71561 7.86188 14.1469 -8.90465 2.35384e-08
458 1 7.86026 7.8615 14.1455 -8.9044 2.28983e-08
459 1 11.0057 7.86138 14.1447 -8.90466 2.4284e-08
460 1 14.1512 7.8615 14.1455 -8.9044 2.62753e-08
461 1 17.2958 7.86188 14.1469 -8.90465 2.6453e-08
462 1 20.4404 7.86204 14.1475 -8.9047 2.56159e-08
463 1 1.57103 11.007 14.1474 -8.9047 2.59893e-08
464 1 4.71552 11.007 14.1466 -8.90466 2.4763e-08
465 1 7.86013 11.007 14.1447 -8.90466 2.43906e-08
466 1 11.0057 11.007 14.1432 -8.90674 2.61426e-08
467 1 14.1513 11.007 14.1447 -8.90466 2.83105e-08
468 1 17.2959 11.007 14.1466 -8.90466 2.83389e-08
469 1 20.4404 11.007 14.1474 -8.9047 2.7117e-08
470 1 1.57106 14.1519 14.1475 -8.9047 2.47713e-08
471 1 4.71561 14.152 14.1469 -8.90465 2.35384e-08
472 1 7.86026 14.1524 14.1455 -8.9044 2.28983e-08
473 1 11.0057 14.1525 14.1447 -8.90466 2.4284e-08
474 1 14.1512 14.1524 14.1455 -8.9044 2.62753e-08
475 1 17.2958 14.152 14.1469 -8.90465 2.6453e-08
476 1 20.4404 14.1519 14.1475 -8.9047 2.56159e-08
477 1 1.57113 17.2967 14.1478 -8.90468 2.25048e-08
478 1 4.71584 17.2968 14.1475 -8.90465 2.12189e-08
479 1 7.86064 17.297 14.1469 -8.90465 1.99337e-08
480 1 11.0057 17.2971 14.1466 -8.90466 2.05078e-08
481 1 14.1508 17.297 14.1469 -8.90465 2.20234e-08
482 1 17.2956 17.2968 14.1475 -8.90465 2.26707e-08
483 1 20.4403 17.2967 14.1478 -8.90468 2.27327e-08
484 1 1.57118 20.4415 14.1479 -8.9047 2.11615e-08
485 1 4.71598 20.4415 14.1478 -8.90468 1.98079e-08
486 1 7.8608 20.4416 14.1475 -8.9047 1.80547e-08
487 1 11.0057 20.4416 14.1474 -8.9047 1.80171e-08
488 1 14.1506 20.4416 14.1475 -8.9047 1.91873e-08
489 1 17.2954 20.4415 14.1478 -8.90468 2.01397e-08
490 1 20.4402 20.4415 14.1479 -8.9047 2.09234e-08
491 1 22.0126 4.9971e-16 15.7172 -8.88818 4.61425e-08
492 1 1.57116 1.57255 17.279 -8.90297 8.02006e-08
493 1 3.14361 7.63633e-16 15.7172 -8.88819 4.55416e-08
494 1 4.71616 1.5726 17.279 -8.90303 7.85965e-08
495 1 6.28842 4.89215e-16 15.7171 -8.88817 4.32389e-08
496 1 7.86088 1.57254 17.2788 -8.9031 7.62307e-08
497 1 9.43323 4.35588e-16 15.7169 -8.8882 4.18797e-08
498 1 11.0056 1.5725 17.2787 -8.90309 7.60994e-08
499 1 12.578 8.574e-16 15.7169 -8.8882 4.27832e-08
500 1 14.1502 1.57254 17.2788 -8.9031 7.76696e-08
501 1 15.7228 7.4761e-16 15.7171 -8.88817 4.42064e-08
502 1 17.295 1.5726 17.279 -8.90302 7.87549e-08
503 1 18.8677 8.45987e-16 15.7172 -8.88819 4.52564e-08
504 1 20.44 1.57255 17.279 -8.90297 7.96978e-08
505 1 22.0126 3.14492 15.7172 -8.88819 4.77325e-08
506 1 1.57121 4.71755 17.279 -8.90303 8.50443e-08
507 1 3.14359 3.14491 15.7171 -8.88818 4.70148e-08
508 1 4.71625 4.71764 17.2789 -8.90324 8.37262e-08
509 1 6.28836 3.14478 15.7169 -8.88809 4.49672e-08
510 1 7.86072 4.71722 17.2782 -8.90292 8.2357e-08
511 1 9.43318 3.14464 15.7165 -8.88817 4.39953e-08
512 1 11.0056 4.71706 17.2777 -8.90284 8.31279e-08
513 1 12.5781 3.14464 15.7165 -8.88817 4.52587e-08
514 1 14.1504 4.71722 17.2782 -8.90292 8.53185e-08
515 1 15.7229 3.14478 15.7169 -8.88809 4.66928e-08
516 1 17.2949 4.71765 17.2789 -8.90324 8.54652e-08
517 1 18.8677 3.14491 15.7171 -8.88818 4.72751e-08
518 1 20.4399 4.71755 17.279 -8.90302 8.51941e-08
519 1 22.0126 6.28974 15.7171 -8.88817 5.19845e-08
520 1 1.57115 7.86227 17.2788 -8.9031 9.20841e-08
521 1 3.14346 6.28967 15.7169 -8.88809 5.10091e-08
522 1 4.71583 7.86211 17.2782 -8.90292 9.13106e-08
523 1 6.28804 6.28936 15.7161 -8.8877 4.95942e-08
524 1 7.85965 7.86105 17.2759 -8.90267 9.12729e-08
525 1 9.43295 6.28897 15.7149 -8.88787 4.95318e-08
526 1 11.0056 7.86102 17.2737 -8.90497 9.35189e-08
527 1 12.5783 6.28897 15.7149 -8.88787 5.17097e-08
528 1 14.1515 7.86105 17.2759 -8.90267 9.68227e-08
529 1 15.7232 6.28936 15.7161 -8.8877 5.33016e-08
530 1 17.2953 7.86211 17.2782 -8.90292 9.54728e-08
531 1 18.8678 6.28968 15.7169 -8.88809 5.26388e-08
532 1 20.44 7.86227 17.2788 -8.9031 9.31687e-08
533 1 22.0126 9.43454 15.7169 -8.8882 5.59989e-08
534 1 1.57111 11.007 17.2787 -8.90309 9.5533e-08
535 1 3.14332 9.4345 15.7165 -8.88817 5.47633e-08
536 1 4.71566 11.007 17.2777 -8.90284 9.49166e-08
537 1 6.28765 9.43427 15.7149 -8.88787 5.3776e-08
538 1 7.85962 11.007 17.2737 -8.90497 9.54075e-08
539 1 9.43237 9.43369 15.7118 -8.88714 5.4583e-08
540 1 11.0056 11.007 17.2662 -8.91709 9.87534e-08
541 1 12.5789 9.43369 15.7118 -8.88714 5.74233e-08
542 1 14.1515 11.007 17.2738 -8.90497 1.01672e-07
543 1 15.7236 9.43427 15.7149 -8.88788 5.9014e-08
544 1 17.2954 11.007 17.2777 -8.90284 1.00143e-07
545 1 18.8679 9.4345 15.7165 -8.88817 5.75469e-08
546 1 20.44 11.007 17.2787 -8.90309 9.70578e-08
547 1 22.0126 12.5794 15.7169 -8.8882 5.59989e-08
548 1 1.57115 14.1516 17.2788 -8.9031 9.20841e-08
549 1 3.14332 12.5794 15.7165 -8.88817 5.47633e-08
550 1 4.71583 14.1518 17.2782 -8.90292 9.13106e-08
551 1 6.28765 12.5796 15.7149 -8.88787 5.3776e-08
552 1 7.85965 14.1529 17.2759 -8.90267 9.12729e-08
553 1 9.43237 12.5802 15.7118 -8.88714 5.4583e-08
554 1 11.0056 14.1529 17.2737 -8.90497 9.35189e-08
555 1 12.5789 12.5802 15.7118 -8.88714 5.74233e-08
556 1 14.1515 14.1529 17.2759 -8.90267 9.68227e-08
557 1 15.7236 12.5796 15.7149 -8.88788 5.9014e-08
558 1 17.2953 14.1518 17.2782 -8.90292 9.54728e-08
559 1 18.8679 12.5794 15.7165 -8.88817 5.75469e-08
560 1 20.44 14.1516 17.2788 -8.9031 9.31687e-08
561 1 22.0126 15.7242 15.7171 -8.88817 5.19845e-08
562 1 1.57121 17.2964 17.279 -8.90303 8.50443e-08
563 1 3.14346 15.7242 15.7169 -8.88809 5.10091e-08
564 1 4.71625 17.2963 17.2789 -8.90324 8.37262e-08
565 1 6.28804 15.7245 15.7161 -8.8877 4.95942e-08
566 1 7.86072 17.2967 17.2782 -8.90292 8.2357e-08
567 1 9.43295 15.7249 15.7149 -8.88787 4.95318e-08
568 1 11.0056 17.2968 17.2777 -8.90284 8.31279e-08
569 1 12.5783 15.7249 15.7149 -8.88787 5.17097e-08
570 1 14.1504 17.2967 17.2782 -8.90292 8.53185e-08
571 1 15.7232 15.7245 15.7161 -8.8877 5.33016e-08
572 1 17.2949 17.2963 17.2789 -8.90324 8.54652e-08
573 1 18.8678 15.7242 15.7169 -8.88809 5.26388e-08
574 1 20.4399 17.2964 17.279 -8.90302 8.51941e-08
575 1 22.0126 18.869 15.7172 -8.88819 4.77325e-08
576 1 1.57116 20.4413 17.279 -8.90297 8.02006e-08
577 1 3.14359 18.869 15.7171 -8.88818 4.70148e-08
578 1 4.71616 20.4413 17.279 -8.90303 7.85965e-08
579 1 6.28836 18.8691 15.7169 -8.88809 4.49672e-08
580 1 7.86088 20.4414 17.2788 -8.9031 7.62307e-08
581 1 9.43318 18.8693 15.7165 -8.88817 4.39953e-08
582 1 11.0056 20.4414 17.2787 -8.90309 7.60994e-08
583 1 12.5781 18.8693 15.7165 -8.88817 4.52587e-08