ITEM: TIMESTEP
188
ITEM: NUMBER OF ATOMS
736
ITEM: BOX BOUNDS pp pp pp
0.0000000000000000e+00 2.2013900999999997e+01
0.0000000000000000e+00 2.2013900999999997e+01
0.0000000000000000e+00 5.3462330999999999e+01
ITEM: ATOMS id type x y z c_pot c_ke
1 1 -0.000412862 6.17502e-16 0.0975761 -7.40187 2.65086e-06
2 1 1.57196 1.5724 1.62435 -8.68379 2.72184e-06
3 1 3.14439 4.32521e-16 0.0975471 -7.40186 3.00799e-06
4 1 4.71678 1.5724 1.62429 -8.68379 2.86046e-06
5 1 6.28923 2.75289e-17 0.0975002 -7.40184 3.17203e-06
6 1 7.86164 1.57239 1.62423 -8.68378 2.79958e-06
7 1 9.43411 2.72073e-16 0.0974707 -7.40183 3.03187e-06
8 1 11.0065 1.57239 1.62421 -8.68378 2.6103e-06
9 1 12.579 5.62428e-16 0.0974808 -7.40183 2.68732e-06
10 1 14.1514 1.57239 1.62425 -8.68378 2.39098e-06
11 1 15.7239 9.48525e-16 0.0975228 -7.40185 2.38796e-06
12 1 17.2962 1.5724 1.62432 -8.68379 2.30117e-06
13 1 18.8687 5.59053e-16 0.0975652 -7.40187 2.36935e-06
14 1 20.4411 1.5724 1.62436 -8.68379 2.45516e-06
15 1 -0.00041444 3.1448 0.0975566 -7.40186 2.56897e-06
16 1 1.57195 4.71722 1.6243 -8.68379 2.52747e-06
17 1 3.14439 3.1448 0.0975249 -7.40185 2.92499e-06
18 1 4.71677 4.71721 1.62422 -8.68378 2.68064e-06
19 1 6.28922 3.14479 0.0974717 -7.40183 3.09993e-06
20 1 7.86163 4.7172 1.62414 -8.68378 2.6612e-06
21 1 9.43411 3.14478 0.0974372 -7.40182 2.97497e-06
22 1 11.0065 4.7172 1.62412 -8.68377 2.51066e-06
23 1 12.579 3.14478 0.0974473 -7.40182 2.63842e-06
24 1 14.1514 4.7172 1.62417 -8.68378 2.29637e-06
25 1 15.7239 3.14479 0.0974944 -7.40184 2.33337e-06
26 1 17.2962 4.71721 1.62425 -8.68378 2.17328e-06
27 1 18.8687 3.1448 0.0975431 -7.40186 2.29991e-06
28 1 20.4411 4.71722 1.62431 -8.68379 2.28296e-06
29 1 -0.000417987 6.28963 0.0975131 -7.40185 2.39543e-06
30 1 1.57194 7.86207 1.62423 -8.68378 2.32615e-06
31 1 3.14437 6.28963 0.0974749 -7.40183 2.7488e-06
32 1 4.71676 7.86206 1.62414 -8.68378 2.49788e-06
33 1 6.28921 6.28962 0.0974073 -7.40181 2.94868e-06
34 1 7.86162 7.86206 1.62404 -8.68377 2.53233e-06
35 1 9.4341 6.28961 0.097361 -7.40179 2.85861e-06
36 1 11.0065 7.86205 1.624 -8.68376 2.43251e-06
37 1 12.579 6.28961 0.0973713 -7.40179 2.5405e-06
38 1 14.1514 7.86206 1.62406 -8.68377 2.22518e-06
39 1 15.7239 6.28962 0.0974304 -7.40181 2.22248e-06
40 1 17.2963 7.86206 1.62417 -8.68378 2.05906e-06
41 1 18.8687 6.28963 0.0974934 -7.40184 2.15502e-06
42 1 20.4411 7.86207 1.62425 -8.68378 2.11095e-06
43 1 -0.000420831 9.43451 0.0974783 -7.40183 2.26673e-06
44 1 1.57194 11.007 1.62421 -8.68378 2.25121e-06
45 1 3.14437 9.4345 0.0974349 -7.40182 2.61782e-06
46 1 4.71675 11.007 1.62411 -8.68377 2.43135e-06
47 1 6.2892 9.4345 0.0973554 -7.40179 2.83817e-06
48 1 7.86161 11.007 1.62399 -8.68376 2.4906e-06
49 1 9.43409 9.4345 0.097299 -7.40176 2.7768e-06
50 1 11.0065 11.007 1.62395 -8.68376 2.4142e-06
51 1 12.579 9.4345 0.0973094 -7.40177 2.47392e-06
52 1 14.1514 11.007 1.62401 -8.68377 2.21019e-06
53 1 15.7239 9.4345 0.0973787 -7.40179 2.14533e-06
54 1 17.2963 11.007 1.62414 -8.68377 2.02437e-06
55 1 18.8687 9.4345 0.0974536 -7.40182 2.04993e-06
56 1 20.4411 11.007 1.62422 -8.68378 2.04963e-06
57 1 -0.000420831 12.5794 0.0974783 -7.40183 2.26673e-06
58 1 1.57194 14.1518 1.62423 -8.68378 2.32615e-06
59 1 3.14437 12.5794 0.0974349 -7.40182 2.61782e-06
60 1 4.71676 14.1518 1.62414 -8.68378 2.49788e-06
61 1 6.2892 12.5794 0.0973554 -7.40179 2.83817e-06
62 1 7.86162 14.1518 1.62404 -8.68377 2.53233e-06
63 1 9.43409 12.5794 0.097299 -7.40176 2.7768e-06
64 1 11.0065 14.1518 1.624 -8.68376 2.43251e-06
65 1 12.579 12.5794 0.0973094 -7.40177 2.47392e-06
66 1 14.1514 14.1518 1.62406 -8.68377 2.22518e-06
67 1 15.7239 12.5794 0.0973787 -7.40179 2.14533e-06
68 1 17.2963 14.1518 1.62417 -8.68378 2.05906e-06
69 1 18.8687 12.5794 0.0974536 -7.40182 2.04993e-06
70 1 20.4411 14.1518 1.62425 -8.68378 2.11095e-06
71 1 -0.000417987 15.7243 0.0975131 -7.40185 2.39543e-06
72 1 1.57195 17.2967 1.6243 -8.68379 2.52747e-06
73 1 3.14437 15.7243 0.0974749 -7.40183 2.7488e-06
74 1 4.71677 17.2967 1.62422 -8.68378 2.68064e-06
75 1 6.28921 15.7243 0.0974073 -7.40181 2.94868e-06
76 1 7.86163 17.2967 1.62414 -8.68378 2.6612e-06
77 1 9.4341 15.7243 0.097361 -7.40179 2.85861e-06
78 1 11.0065 17.2967 1.62412 -8.68377 2.51066e-06
79 1 12.579 15.7243 0.0973713 -7.40179 2.5405e-06
80 1 14.1514 17.2967 1.62417 -8.68378 2.29637e-06
81 1 15.7239 15.7243 0.0974304 -7.40181 2.22248e-06
82 1 17.2962 17.2967 1.62425 -8.68378 2.17328e-06
83 1 18.8687 15.7243 0.0974934 -7.40184 2.15502e-06
84 1 20.4411 17.2967 1.62431 -8.68379 2.28296e-06
85 1 -0.00041444 18.8691 0.0975566 -7.40186 2.56897e-06
86 1 1.57196 20.4415 1.62435 -8.68379 2.72184e-06
87 1 3.14439 18.8691 0.0975249 -7.40185 2.92499e-06
88 1 4.71678 20.4415 1.62429 -8.68379 2.86046e-06
89 1 6.28922 18.8691 0.0974717 -7.40183 3.09993e-06
90 1 7.86164 20.4415 1.62423 -8.68378 2.79958e-06
91 1 9.43411 18.8691 0.0974372 -7.40182 2.97497e-06
92 1 11.0065 20.4415 1.62421 -8.68378 2.6103e-06
93 1 12.579 18.8691 0.0974473 -7.40182 2.63842e-06
94 1 14.1514 20.4415 1.62425 -8.68378 2.39098e-06
95 1 15.7239 18.8691 0.0974944 -7.40184 2.33337e-06
96 1 17.2962 20.4415 1.62432 -8.68379 2.30117e-06
97 1 18.8687 18.8691 0.0975431 -7.40186 2.29991e-06
98 1 20.4411 20.4415 1.62436 -8.68379 2.45516e-06
99 1 -0.000487639 5.78206e-16 3.15448 -8.93805 2.40442e-06
100 1 1.57184 1.5724 4.74376 -8.90301 2.09059e-06
101 1 3.14432 3.3319e-16 3.15444 -8.93806 2.54273e-06
102 1 4.71666 1.57239 4.74369 -8.90301 2.11544e-06
103 1 6.28916 5.72407e-17 3.15437 -8.93806 2.52004e-06
104 1 7.86151 1.57239 4.7436 -8.90301 2.03387e-06
105 1 9.43403 1.79232e-16 3.15432 -8.93807 2.40466e-06
106 1 11.0064 1.57238 4.74358 -8.90301 1.94137e-06
107 1 12.5789 1.2055e-16 3.15433 -8.93807 2.26847e-06
108 1 14.1513 1.57239 4.74363 -8.90301 1.85575e-06
109 1 15.7238 -1.62405e-16 3.1544 -8.93806 2.1695e-06
110 1 17.2961 1.57239 4.74372 -8.90301 1.83047e-06
111 1 18.8686 4.51676e-17 3.15446 -8.93805 2.21707e-06
112 1 20.4409 1.5724 4.74378 -8.90301 1.94132e-06
113 1 -0.000489319 3.14481 3.15445 -8.93805 2.29416e-06
114 1 1.57183 4.71721 4.7437 -8.90301 1.88946e-06
115 1 3.14432 3.1448 3.1544 -8.93806 2.42988e-06
116 1 4.71664 4.7172 4.7436 -8.90301 1.92748e-06
117 1 6.28915 3.1448 3.15432 -8.93807 2.4232e-06
118 1 7.8615 4.71719 4.74348 -8.90301 1.88743e-06
119 1 9.43402 3.14479 3.15426 -8.93808 2.33156e-06
120 1 11.0064 4.71718 4.74344 -8.90301 1.83547e-06
121 1 12.5789 3.14479 3.15428 -8.93808 2.20894e-06
122 1 14.1513 4.71719 4.74351 -8.90301 1.75709e-06
123 1 15.7238 3.1448 3.15435 -8.93807 2.10196e-06
124 1 17.2961 4.7172 4.74363 -8.90301 1.69912e-06
125 1 18.8686 3.1448 3.15443 -8.93806 2.12655e-06
126 1 20.4409 4.71721 4.74371 -8.90301 1.76433e-06
127 1 -0.000493089 6.28964 3.15438 -8.93806 2.08265e-06
128 1 1.57182 7.86207 4.74361 -8.90301 1.68693e-06
129 1 3.14431 6.28964 3.15432 -8.93807 2.21187e-06
130 1 4.71662 7.86205 4.74348 -8.90301 1.74153e-06
131 1 6.28914 6.28963 3.15421 -8.93808 2.24224e-06
132 1 7.86148 7.86204 4.74333 -8.90301 1.75548e-06
133 1 9.43402 6.28962 3.15413 -8.9381 2.206e-06
134 1 11.0064 7.86204 4.74327 -8.90302 1.75681e-06
135 1 12.5789 6.28962 3.15415 -8.93809 2.11533e-06
136 1 14.1513 7.86204 4.74335 -8.90301 1.68853e-06
137 1 15.7238 6.28963 3.15424 -8.93808 1.9901e-06
138 1 17.2962 7.86206 4.74351 -8.90301 1.58844e-06
139 1 18.8686 6.28964 3.15435 -8.93807 1.96127e-06
140 1 20.4409 7.86207 4.74362 -8.90301 1.59398e-06
141 1 -0.000496105 9.43451 3.15433 -8.93807 1.94922e-06
142 1 1.57182 11.007 4.74357 -8.90301 1.61404e-06
143 1 3.1443 9.43451 3.15426 -8.93808 2.07263e-06
144 1 4.71661 11.007 4.74343 -8.90301 1.67607e-06
145 1 6.28913 9.4345 3.15413 -8.9381 2.13381e-06
146 1 7.86147 11.007 4.74326 -8.90302 1.71488e-06
147 1 9.43401 9.4345 3.15402 -8.93811 2.14404e-06
148 1 11.0064 11.007 4.74319 -8.90302 1.74089e-06
149 1 12.5789 9.4345 3.15404 -8.93811 2.08041e-06
150 1 14.1513 11.007 4.74328 -8.90302 1.67744e-06
151 1 15.7238 9.4345 3.15416 -8.93809 1.94023e-06
152 1 17.2962 11.007 4.74346 -8.90301 1.55808e-06
153 1 18.8686 9.43451 3.15428 -8.93807 1.86681e-06
154 1 20.4409 11.007 4.74359 -8.90301 1.53611e-06
155 1 -0.000496105 12.5794 3.15433 -8.93807 1.94922e-06
156 1 1.57182 14.1518 4.74361 -8.90301 1.68693e-06
157 1 3.1443 12.5794 3.15426 -8.93808 2.07263e-06
158 1 4.71662 14.1518 4.74348 -8.90301 1.74153e-06
159 1 6.28913 12.5794 3.15413 -8.9381 2.13381e-06
160 1 7.86148 14.1519 4.74333 -8.90301 1.75548e-06
161 1 9.43401 12.5794 3.15402 -8.93811 2.14404e-06
162 1 11.0064 14.1519 4.74327 -8.90302 1.75681e-06
163 1 12.5789 12.5794 3.15404 -8.93811 2.08041e-06
164 1 14.1513 14.1519 4.74335 -8.90301 1.68853e-06
165 1 15.7238 12.5794 3.15416 -8.93809 1.94023e-06
166 1 17.2962 14.1518 4.74351 -8.90301 1.58844e-06
167 1 18.8686 12.5794 3.15428 -8.93807 1.86681e-06
168 1 20.4409 14.1518 4.74362 -8.90301 1.59398e-06
169 1 -0.000493089 15.7243 3.15438 -8.93806 2.08265e-06
170 1 1.57183 17.2967 4.7437 -8.90301 1.88946e-06
171 1 3.14431 15.7243 3.15432 -8.93807 2.21187e-06
172 1 4.71664 17.2967 4.7436 -8.90301 1.92748e-06
173 1 6.28914 15.7243 3.15421 -8.93808 2.24224e-06
174 1 7.8615 17.2967 4.74348 -8.90301 1.88743e-06
175 1 9.43402 15.7243 3.15413 -8.9381 2.206e-06
176 1 11.0064 17.2967 4.74344 -8.90301 1.83547e-06
177 1 12.5789 15.7243 3.15415 -8.93809 2.11533e-06
178 1 14.1513 17.2967 4.74351 -8.90301 1.75709e-06
179 1 15.7238 15.7243 3.15424 -8.93808 1.9901e-06
180 1 17.2961 17.2967 4.74363 -8.90301 1.69912e-06
181 1 18.8686 15.7243 3.15435 -8.93807 1.96127e-06
182 1 20.4409 17.2967 4.74371 -8.90301 1.76433e-06
183 1 -0.000489319 18.8691 3.15445 -8.93805 2.29416e-06
184 1 1.57184 20.4415 4.74376 -8.90301 2.09059e-06
185 1 3.14432 18.8691 3.1544 -8.93806 2.42988e-06
186 1 4.71666 20.4415 4.74369 -8.90301 2.11544e-06
187 1 6.28915 18.8691 3.15432 -8.93807 2.4232e-06
188 1 7.86151 20.4415 4.7436 -8.90301 2.03387e-06
189 1 9.43402 18.8691 3.15426 -8.93808 2.33156e-06
190 1 11.0064 20.4415 4.74358 -8.90301 1.94137e-06
191 1 12.5789 18.8691 3.15428 -8.93808 2.20894e-06
192 1 14.1513 20.4415 4.74363 -8.90301 1.85575e-06
193 1 15.7238 18.8691 3.15435 -8.93807 2.10196e-06
194 1 17.2961 20.4415 4.74372 -8.90301 1.83047e-06
195 1 18.8686 18.8691 3.15443 -8.93806 2.12655e-06
196 1 20.4409 20.4415 4.74378 -8.90301 1.94132e-06
197 1 -0.000659424 6.18945e-16 6.30555 -8.88811 1.55966e-06
198 1 1.57161 1.57238 7.87476 -8.90467 1.1201e-06
199 1 3.14413 1.98226e-16 6.30549 -8.88811 1.66951e-06
200 1 4.71641 1.57237 7.87465 -8.90467 1.15144e-06
201 1 6.28896 -4.19778e-16 6.30539 -8.88812 1.6331e-06
202 1 7.86127 1.57235 7.87453 -8.90467 1.07521e-06
203 1 9.43385 -5.68327e-16 6.30532 -8.88812 1.53945e-06
204 1 11.0062 1.57235 7.87448 -8.90467 9.95952e-07
205 1 12.5787 -2.63798e-16 6.30533 -8.88812 1.44618e-06
206 1 14.1511 1.57235 7.87455 -8.90467 9.1222e-07
207 1 15.7236 2.50491e-16 6.30542 -8.88812 1.36768e-06
208 1 17.296 1.57237 7.87468 -8.90467 8.66998e-07
209 1 18.8685 7.21026e-16 6.30552 -8.88811 1.40077e-06
210 1 20.4407 1.57238 7.87477 -8.90467 9.64502e-07
211 1 -0.000661814 3.14479 6.3055 -8.88811 1.44107e-06
212 1 1.57159 4.71718 7.87466 -8.90467 9.08188e-07
213 1 3.14412 3.14478 6.30544 -8.88811 1.5467e-06
214 1 4.71637 4.71714 7.8745 -8.90466 9.51215e-07
215 1 6.28895 3.14476 6.30531 -8.88812 1.52726e-06
216 1 7.86123 4.7171 7.87431 -8.90467 9.2257e-07
217 1 9.43384 3.14474 6.30522 -8.88812 1.46044e-06
218 1 11.0062 4.71708 7.87424 -8.90467 8.94497e-07
219 1 12.5788 3.14474 6.30524 -8.88812 1.38396e-06
220 1 14.1511 4.7171 7.87434 -8.90467 8.24875e-07
221 1 15.7236 3.14476 6.30535 -8.88812 1.29793e-06
222 1 17.296 4.71714 7.87454 -8.90466 7.43401e-07
223 1 18.8685 3.14478 6.30546 -8.88811 1.30529e-06
224 1 20.4408 4.71718 7.87468 -8.90467 7.85053e-07
225 1 -0.000667155 6.28962 6.30541 -8.88812 1.21776e-06
226 1 1.57157 7.86204 7.87453 -8.90467 7.03739e-07
227 1 3.14409 6.28961 6.30532 -8.88812 1.31261e-06
228 1 4.71632 7.862 7.87431 -8.90467 7.6076e-07
229 1 6.28891 6.28958 6.30514 -8.88812 1.33224e-06
230 1 7.86119 7.86196 7.87401 -8.90469 7.94251e-07
231 1 9.43382 6.28955 6.30499 -8.88813 1.32825e-06
232 1 11.0062 7.86194 7.87388 -8.90471 8.34185e-07
233 1 12.5788 6.28955 6.30501 -8.88813 1.2917e-06
234 1 14.1512 7.86196 7.87404 -8.90469 7.84445e-07
235 1 15.7237 6.28958 6.30517 -8.88812 1.18895e-06
236 1 17.296 7.862 7.87434 -8.90467 6.56501e-07
237 1 18.8685 6.28961 6.30534 -8.88812 1.13658e-06
238 1 20.4408 7.86204 7.87455 -8.90467 6.24588e-07
239 1 -0.000671415 9.4345 6.30533 -8.88812 1.08174e-06
240 1 1.57156 11.007 7.87448 -8.90467 6.34068e-07
241 1 3.14407 9.43449 6.30522 -8.88812 1.16676e-06
242 1 4.7163 11.007 7.87422 -8.90467 6.9718e-07
243 1 6.28889 9.43448 6.30499 -8.88813 1.21875e-06
244 1 7.86116 11.007 7.87387 -8.90471 7.59394e-07
245 1 9.4338 9.43447 6.3048 -8.88815 1.26769e-06
246 1 11.0062 11.007 7.87371 -8.90475 8.31069e-07
247 1 12.5788 9.43447 6.30481 -8.88815 1.26525e-06
248 1 14.1512 11.007 7.8739 -8.90471 7.90799e-07
249 1 15.7237 9.43448 6.30502 -8.88813 1.1491e-06
250 1 17.296 11.007 7.87426 -8.90467 6.41623e-07
251 1 18.8685 9.43449 6.30525 -8.88812 1.04685e-06
252 1 20.4408 11.007 7.87449 -8.90467 5.75644e-07
253 1 -0.000671415 12.5794 6.30533 -8.88812 1.08174e-06
254 1 1.57157 14.1519 7.87453 -8.90467 7.03739e-07
255 1 3.14407 12.5794 6.30522 -8.88812 1.16676e-06
256 1 4.71632 14.1519 7.87431 -8.90467 7.6076e-07
257 1 6.28889 12.5794 6.30499 -8.88813 1.21875e-06
258 1 7.86119 14.1519 7.87401 -8.90469 7.94251e-07
259 1 9.4338 12.5794 6.3048 -8.88815 1.26769e-06
260 1 11.0062 14.152 7.87388 -8.90471 8.34185e-07
261 1 12.5788 12.5794 6.30481 -8.88815 1.26525e-06
262 1 14.1512 14.1519 7.87404 -8.90469 7.84445e-07
263 1 15.7237 12.5794 6.30502 -8.88813 1.1491e-06
264 1 17.296 14.1519 7.87434 -8.90467 6.56501e-07
265 1 18.8685 12.5794 6.30525 -8.88812 1.04685e-06
266 1 20.4408 14.1519 7.87455 -8.90467 6.24588e-07
267 1 -0.000667155 15.7243 6.30541 -8.88812 1.21776e-06
268 1 1.57159 17.2967 7.87466 -8.90467 9.08188e-07
269 1 3.14409 15.7243 6.30532 -8.88812 1.31261e-06
270 1 4.71637 17.2968 7.8745 -8.90466 9.51215e-07
271 1 6.28891 15.7243 6.30514 -8.88812 1.33224e-06
272 1 7.86123 17.2968 7.87431 -8.90467 9.2257e-07
273 1 9.43382 15.7243 6.30499 -8.88813 1.32825e-06
274 1 11.0062 17.2968 7.87424 -8.90467 8.94497e-07
275 1 12.5788 15.7243 6.30501 -8.88813 1.2917e-06
276 1 14.1511 17.2968 7.87434 -8.90467 8.24875e-07
277 1 15.7237 15.7243 6.30517 -8.88812 1.18895e-06
278 1 17.296 17.2968 7.87454 -8.90466 7.43401e-07
279 1 18.8685 15.7243 6.30534 -8.88812 1.13658e-06
280 1 20.4408 17.2967 7.87468 -8.90467 7.85053e-07
281 1 -0.000661814 18.8691 6.3055 -8.88811 1.44107e-06
282 1 1.57161 20.4415 7.87476 -8.90467 1.1201e-06
283 1 3.14412 18.8691 6.30544 -8.88811 1.5467e-06
284 1 4.71641 20.4415 7.87465 -8.90467 1.15144e-06
285 1 6.28895 18.8691 6.30531 -8.88812 1.52726e-06
286 1 7.86127 20.4415 7.87453 -8.90467 1.07521e-06
287 1 9.43384 18.8692 6.30522 -8.88812 1.46044e-06
288 1 11.0062 20.4416 7.87448 -8.90467 9.95952e-07
289 1 12.5788 18.8692 6.30524 -8.88812 1.38396e-06
290 1 14.1511 20.4415 7.87455 -8.90467 9.1222e-07
291 1 15.7236 18.8691 6.30535 -8.88812 1.29793e-06
292 1 17.296 20.4415 7.87468 -8.90467 8.66998e-07
293 1 18.8685 18.8691 6.30546 -8.88811 1.30529e-06
294 1 20.4407 20.4415 7.87477 -8.90467 9.64502e-07
295 1 -0.000899423 2.37929e-16 9.44314 -8.89866 6.34223e-07
296 1 1.57134 1.57238 11.0113 -8.9001 3.72666e-07
297 1 3.14387 1.197e-16 9.44307 -8.89865 7.43508e-07
298 1 4.71612 1.57235 11.0111 -8.90009 3.63726e-07
299 1 6.28869 -4.68092e-16 9.44292 -8.89865 6.85716e-07
300 1 7.86098 1.57231 11.011 -8.90009 2.4287e-07
301 1 9.43359 -2.28193e-16 9.44282 -8.89865 5.87289e-07
302 1 11.0059 1.57229 11.0109 -8.90009 1.78609e-07
303 1 12.5785 -7.25316e-16 9.44283 -8.89865 5.12775e-07
304 1 14.1509 1.57231 11.011 -8.90009 1.33738e-07
305 1 15.7234 -2.27327e-16 9.44296 -8.89865 4.39534e-07
306 1 17.2957 1.57235 11.0112 -8.90009 1.02279e-07
307 1 18.8682 6.91703e-16 9.4431 -8.89865 4.67284e-07
308 1 20.4405 1.57238 11.0113 -8.9001 2.11662e-07
309 1 -0.000903108 3.14477 9.44308 -8.89865 5.16308e-07
310 1 1.5713 4.71715 11.0111 -8.90009 1.85023e-07
311 1 3.14384 3.14474 9.44299 -8.89865 6.16983e-07
312 1 4.71603 4.71707 11.0109 -8.90006 1.85199e-07
313 1 6.28866 3.14469 9.44279 -8.89864 5.78649e-07
314 1 7.86089 4.71696 11.0106 -8.90007 1.2938e-07
315 1 9.43357 3.14466 9.44264 -8.89865 5.15512e-07
316 1 11.0059 4.71692 11.0104 -8.90008 1.46097e-07
317 1 12.5785 3.14466 9.44266 -8.89865 4.66922e-07
318 1 14.1509 4.71697 11.0106 -8.90007 1.3428e-07
319 1 15.7234 3.1447 9.44283 -8.89864 3.87569e-07
320 1 17.2958 4.71707 11.0109 -8.90006 5.49594e-08
321 1 18.8683 3.14474 9.44302 -8.89865 3.81864e-07
322 1 20.4405 4.71715 11.0112 -8.90009 7.86369e-08
323 1 -0.000911294 6.28959 9.44294 -8.89865 3.11462e-07
324 1 1.57125 7.86201 11.011 -8.90009 4.26703e-08
325 1 3.14378 6.28955 9.4428 -8.89864 3.89852e-07
326 1 4.71591 7.86193 11.0106 -8.90007 5.22987e-08
327 1 6.28857 6.28948 9.44247 -8.89864 3.96168e-07
328 1 7.86076 7.86181 11.0099 -8.90011 8.26263e-08
329 1 9.43353 6.28941 9.44219 -8.89865 4.16519e-07
330 1 11.0059 7.86175 11.0096 -8.90015 2.09059e-07
331 1 12.5786 6.28941 9.4422 -8.89865 4.30603e-07
332 1 14.151 7.86181 11.0099 -8.90011 2.43733e-07
333 1 15.7235 6.28948 9.4425 -8.89864 3.38618e-07
334 1 17.2959 7.86193 11.0106 -8.90007 1.0263e-07
335 1 18.8683 6.28956 9.44283 -8.89864 2.54834e-07
336 1 20.4405 7.86201 11.011 -8.90009 1.17679e-08
337 1 -0.000917782 9.43448 9.44283 -8.89865 2.06922e-07
338 1 1.57123 11.007 11.0109 -8.90009 1.19657e-08
339 1 3.14374 9.43447 9.44264 -8.89865 2.64895e-07
340 1 4.71586 11.007 11.0104 -8.90008 2.53048e-08
341 1 6.2885 9.43443 9.44218 -8.89865 3.08201e-07
342 1 7.8607 11.007 11.0096 -8.90015 9.60318e-08
343 1 9.43348 9.43439 9.44174 -8.89872 3.99817e-07
344 1 11.0059 11.007 11.0091 -8.90037 2.74313e-07
345 1 12.5786 9.43439 9.44176 -8.89872 4.68027e-07
346 1 14.1511 11.007 11.0096 -8.90015 3.30638e-07
347 1 15.7236 9.43443 9.44222 -8.89865 3.66453e-07
348 1 17.2959 11.007 11.0104 -8.90008 1.61209e-07
349 1 18.8683 9.43447 9.44267 -8.89865 2.17054e-07
350 1 20.4405 11.007 11.0109 -8.90009 1.69715e-08
351 1 -0.000917782 12.5794 9.44283 -8.89865 2.06922e-07
352 1 1.57125 14.1519 11.011 -8.90009 4.26703e-08
353 1 3.14374 12.5794 9.44264 -8.89865 2.64895e-07
354 1 4.71591 14.152 11.0106 -8.90007 5.22987e-08
355 1 6.2885 12.5795 9.44218 -8.89865 3.08201e-07
356 1 7.86076 14.1521 11.0099 -8.90011 8.26263e-08
357 1 9.43348 12.5795 9.44174 -8.89872 3.99817e-07
358 1 11.0059 14.1521 11.0096 -8.90015 2.09059e-07
359 1 12.5786 12.5795 9.44176 -8.89872 4.68027e-07
360 1 14.151 14.1521 11.0099 -8.90011 2.43733e-07
361 1 15.7236 12.5795 9.44222 -8.89865 3.66453e-07
362 1 17.2959 14.152 11.0106 -8.90007 1.0263e-07
363 1 18.8683 12.5794 9.44267 -8.89865 2.17054e-07
364 1 20.4405 14.1519 11.011 -8.90009 1.17679e-08
365 1 -0.000911294 15.7243 9.44294 -8.89865 3.11462e-07
366 1 1.5713 17.2968 11.0111 -8.90009 1.85023e-07
367 1 3.14378 15.7243 9.4428 -8.89864 3.89852e-07
368 1 4.71603 17.2968 11.0109 -8.90006 1.85199e-07
369 1 6.28857 15.7244 9.44247 -8.89864 3.96168e-07
370 1 7.86089 17.2969 11.0106 -8.90007 1.2938e-07
371 1 9.43353 15.7245 9.44219 -8.89865 4.16519e-07
372 1 11.0059 17.297 11.0104 -8.90008 1.46097e-07
373 1 12.5786 15.7245 9.4422 -8.89865 4.30603e-07
374 1 14.1509 17.2969 11.0106 -8.90007 1.3428e-07
375 1 15.7235 15.7244 9.4425 -8.89864 3.38618e-07
376 1 17.2958 17.2968 11.0109 -8.90006 5.49594e-08
377 1 18.8683 15.7243 9.44283 -8.89864 2.54834e-07
378 1 20.4405 17.2967 11.0112 -8.90009 7.86369e-08
379 1 -0.000903108 18.8691 9.44308 -8.89865 5.16308e-07
380 1 1.57134 20.4415 11.0113 -8.9001 3.72666e-07
381 1 3.14384 18.8692 9.44299 -8.89865 6.16983e-07
382 1 4.71612 20.4416 11.0111 -8.90009 3.63726e-07
383 1 6.28866 18.8692 9.44279 -8.89864 5.78649e-07
384 1 7.86098 20.4416 11.011 -8.90009 2.4287e-07
385 1 9.43357 18.8692 9.44264 -8.89865 5.15512e-07
386 1 11.0059 20.4416 11.0109 -8.90009 1.78609e-07
387 1 12.5785 18.8692 9.44266 -8.89865 4.66922e-07
388 1 14.1509 20.4416 11.011 -8.90009 1.33738e-07
389 1 15.7234 18.8692 9.44283 -8.89864 3.87569e-07
390 1 17.2957 20.4416 11.0112 -8.90009 1.02279e-07
391 1 18.8683 18.8692 9.44302 -8.89865 3.81864e-07
392 1 20.4405 20.4415 11.0113 -8.9001 2.11662e-07
393 1 -0.00117591 5.72469e-16 12.5795 -8.89868 2.51187e-07
394 1 3.14361 6.12015e-16 12.5794 -8.89868 3.18415e-07
395 1 6.28842 2.08619e-16 12.5793 -8.89867 1.59756e-07
396 1 9.43332 -1.28637e-16 12.5791 -8.89868 2.38867e-08
397 1 12.5783 -1.82218e-16 12.5791 -8.89868 1.00038e-08
398 1 15.7231 2.21943e-16 12.5793 -8.89867 2.07731e-10
399 1 18.8679 2.27853e-16 12.5795 -8.89868 6.24457e-08
400 1 22.0127 3.14478 12.5795 -8.89868 1.68471e-07
401 1 3.14356 3.14474 12.5793 -8.89866 2.18475e-07
402 1 6.28835 3.14464 12.5791 -8.89864 8.59489e-08
403 1 9.43328 3.14456 12.5788 -8.89865 4.62852e-09
404 1 12.5783 3.14456 12.5789 -8.89865 3.796e-08
405 1 15.7232 3.14464 12.5791 -8.89864 2.49039e-08
406 1 18.868 3.14474 12.5794 -8.89866 3.41655e-08
407 1 22.0127 6.28959 12.5793 -8.89867 8.26507e-08
408 1 3.14345 6.28953 12.5791 -8.89864 8.77277e-08
409 1 6.28815 6.28934 12.5785 -8.89854 1.57147e-08
410 1 9.43316 6.28918 12.5779 -8.8986 6.62566e-08
411 1 12.5784 6.28918 12.5779 -8.8986 2.16839e-07
412 1 15.7234 6.28934 12.5785 -8.89854 1.99398e-07
413 1 18.8681 6.28953 12.5791 -8.89864 8.12629e-08
414 1 22.0127 9.43448 12.5791 -8.89868 1.13207e-07
415 1 3.14335 9.43445 12.5788 -8.89865 7.6616e-08
416 1 6.28798 9.43434 12.5779 -8.8986 5.54586e-08
417 1 9.43302 9.43421 12.5768 -8.89878 2.21643e-07
418 1 12.5785 9.43421 12.5768 -8.89879 4.73611e-07
419 1 15.7235 9.43435 12.578 -8.8986 4.53492e-07
420 1 18.8681 9.43445 12.5789 -8.89865 2.27624e-07
421 1 22.0127 12.5794 12.5791 -8.89868 1.13207e-07
422 1 3.14335 12.5795 12.5788 -8.89865 7.6616e-08
423 1 6.28798 12.5796 12.5779 -8.8986 5.54586e-08
424 1 9.43302 12.5797 12.5768 -8.89878 2.21643e-07
425 1 12.5785 12.5797 12.5768 -8.89879 4.73611e-07
426 1 15.7235 12.5796 12.578 -8.8986 4.53492e-07
427 1 18.8681 12.5795 12.5789 -8.89865 2.27624e-07
428 1 22.0127 15.7243 12.5793 -8.89867 8.26507e-08
429 1 3.14345 15.7244 12.5791 -8.89864 8.77277e-08
430 1 6.28815 15.7246 12.5785 -8.89854 1.57147e-08
431 1 9.43316 15.7247 12.5779 -8.8986 6.62566e-08
432 1 12.5784 15.7247 12.5779 -8.8986 2.16839e-07
433 1 15.7234 15.7246 12.5785 -8.89854 1.99398e-07
434 1 18.8681 15.7244 12.5791 -8.89864 8.12629e-08
435 1 22.0127 18.8691 12.5795 -8.89868 1.68471e-07
436 1 3.14356 18.8692 12.5793 -8.89866 2.18475e-07
437 1 6.28835 18.8693 12.5791 -8.89864 8.59489e-08
438 1 9.43328 18.8693 12.5788 -8.89865 4.62852e-09
439 1 12.5783 18.8693 12.5789 -8.89865 3.796e-08
440 1 15.7232 18.8693 12.5791 -8.89864 2.49039e-08
441 1 18.868 18.8692 12.5794 -8.89866 3.41655e-08
442 1 1.5711 1.57242 14.1479 -8.9047 4.79672e-07
443 1 4.71591 1.57237 14.1477 -8.90468 3.55254e-07
444 1 7.86074 1.5723 14.1475 -8.9047 1.18196e-07
445 1 11.0056 1.57227 14.1474 -8.9047 8.6388e-08
446 1 14.1506 1.57231 14.1476 -8.9047 1.51146e-07
447 1 17.2954 1.57238 14.1478 -8.90468 1.83072e-07
448 1 20.4402 1.57242 14.1479 -8.9047 3.27545e-07
449 1 1.57105 4.71722 14.1477 -8.90468 4.13588e-07
450 1 4.71577 4.71709 14.1475 -8.90465 3.00263e-07
451 1 7.86056 4.71686 14.1469 -8.90465 1.64659e-07
452 1 11.0056 4.71677 14.1466 -8.90466 2.73097e-07
453 1 14.1507 4.71686 14.147 -8.90465 4.09813e-07
454 1 17.2955 4.71709 14.1475 -8.90465 3.64234e-07
455 1 20.4402 4.71722 14.1478 -8.90468 3.56399e-07
456 1 1.57096 7.86204 14.1475 -8.9047 4.89926e-07
457 1 4.71552 7.86188 14.1469 -8.90465 3.8715e-07
458 1 7.86017 7.86151 14.1455 -8.9044 3.91396e-07
459 1 11.0056 7.86138 14.1448 -8.90466 6.98921e-07
460 1 14.1511 7.86151 14.1456 -8.9044 9.40081e-07
461 1 17.2957 7.86188 14.147 -8.90465 7.84677e-07
462 1 20.4403 7.86205 14.1476 -8.9047 5.67984e-07
463 1 1.57092 11.007 14.1474 -8.90469 5.80569e-07
464 1 4.71542 11.007 14.1466 -8.90466 4.81476e-07
465 1 7.86004 11.007 14.1447 -8.90466 5.52962e-07
466 1 11.0056 11.007 14.1433 -8.90675 9.55394e-07
467 1 14.1512 11.007 14.1448 -8.90466 1.2424e-06
468 1 17.2958 11.007 14.1467 -8.90466 1.03894e-06
469 1 20.4403 11.007 14.1474 -8.9047 7.24014e-07
470 1 1.57096 14.1519 14.1475 -8.9047 4.89926e-07
471 1 4.71552 14.152 14.1469 -8.90465 3.8715e-07
472 1 7.86017 14.1524 14.1455 -8.9044 3.91396e-07
473 1 11.0056 14.1525 14.1448 -8.90466 6.98921e-07
474 1 14.1511 14.1524 14.1456 -8.9044 9.40081e-07
475 1 17.2957 14.152 14.147 -8.90465 7.84677e-07
476 1 20.4403 14.1519 14.1476 -8.9047 5.67984e-07
477 1 1.57105 17.2967 14.1477 -8.90468 4.13588e-07
478 1 4.71577 17.2968 14.1475 -8.90465 3.00263e-07
479 1 7.86056 17.297 14.1469 -8.90465 1.64659e-07
480 1 11.0056 17.2971 14.1466 -8.90466 2.73097e-07
481 1 14.1507 17.297 14.147 -8.90465 4.09813e-07
482 1 17.2955 17.2968 14.1475 -8.90465 3.64234e-07
483 1 20.4402 17.2967 14.1478 -8.90468 3.56399e-07
484 1 1.5711 20.4415 14.1479 -8.9047 4.79672e-07
485 1 4.71591 20.4415 14.1477 -8.90468 3.55254e-07
486 1 7.86074 20.4416 14.1475 -8.9047 1.18196e-07
487 1 11.0056 20.4416 14.1474 -8.9047 8.6388e-08
488 1 14.1506 20.4416 14.1476 -8.9047 1.51146e-07
489 1 17.2954 20.4415 14.1478 -8.90468 1.83072e-07
490 1 20.4402 20.4415 14.1479 -8.9047 3.27545e-07
491 1 22.0125 4.15661e-16 15.7172 -8.88818 8.57013e-07
492 1 1.571 1.57255 17.2789 -8.90297 1.59468e-06
493 1 3.14349 4.50725e-16 15.7171 -8.88819 8.84267e-07
494 1 4.716 1.5726 17.2789 -8.90303 1.40129e-06
495 1 6.28831 1.76619e-16 15.717 -8.88817 5.71902e-07
496 1 7.86072 1.57254 17.2788 -8.9031 1.03557e-06
497 1 9.43312 4.07874e-16 15.7169 -8.8882 3.64011e-07
498 1 11.0054 1.5725 17.2787 -8.90309 1.00647e-06
499 1 12.5779 -1.72261e-17 15.7169 -8.8882 4.29934e-07
500 1 14.1501 1.57254 17.2788 -8.9031 1.14068e-06
501 1 15.7227 -3.08979e-17 15.7171 -8.88817 5.02418e-07
502 1 17.2948 1.5726 17.279 -8.90303 1.18644e-06
503 1 18.8675 2.13812e-17 15.7172 -8.88819 6.13089e-07
504 1 20.4398 1.57255 17.2789 -8.90297 1.37837e-06
505 1 22.0125 3.14493 15.7172 -8.88819 8.68995e-07
506 1 1.57103 4.71755 17.2789 -8.90303 1.78749e-06
507 1 3.14347 3.14491 15.7171 -8.88818 8.73355e-07
508 1 4.71608 4.71764 17.2789 -8.90324 1.64296e-06
509 1 6.28824 3.14478 15.7168 -8.88809 6.068e-07
510 1 7.86054 4.71722 17.2782 -8.90292 1.45345e-06
511 1 9.43307 3.14464 15.7165 -8.88817 4.85894e-07
512 1 11.0054 4.71706 17.2777 -8.90284 1.64575e-06
513 1 12.578 3.14464 15.7165 -8.88817 6.32963e-07
514 1 14.1502 4.71723 17.2783 -8.90292 1.9014e-06
515 1 15.7228 3.14479 15.7169 -8.88809 7.00645e-07
516 1 17.2947 4.71765 17.2789 -8.90324 1.77532e-06
517 1 18.8675 3.14491 15.7171 -8.88818 7.14933e-07
518 1 20.4397 4.71755 17.279 -8.90303 1.70624e-06
519 1 22.0124 6.28974 15.717 -8.88817 1.07497e-06
520 1 1.57095 7.86227 17.2788 -8.9031 2.30367e-06
521 1 3.14332 6.28968 15.7168 -8.88809 1.01672e-06
522 1 4.71563 7.86211 17.2782 -8.90292 2.22816e-06
523 1 6.2879 6.28936 15.7161 -8.8877 8.60531e-07
524 1 7.85946 7.86105 17.2759 -8.90267 2.29449e-06
525 1 9.43282 6.28897 15.7149 -8.88787 9.60806e-07
526 1 11.0054 7.86102 17.2738 -8.90497 2.86537e-06
527 1 12.5782 6.28898 15.715 -8.88788 1.32487e-06
528 1 14.1513 7.86106 17.276 -8.90267 3.32943e-06
529 1 15.7231 6.28936 15.7162 -8.8877 1.3931e-06
530 1 17.2951 7.86212 17.2783 -8.90292 2.91565e-06
531 1 18.8677 6.28968 15.7169 -8.88809 1.1544e-06
532 1 20.4398 7.86227 17.2788 -8.9031 2.43163e-06
533 1 22.0124 9.43454 15.7169 -8.8882 1.41676e-06
534 1 1.5709 11.007 17.2787 -8.90309 2.63102e-06
535 1 3.14316 9.4345 15.7165 -8.88817 1.29611e-06
536 1 4.71546 11.007 17.2777 -8.90284 2.58432e-06
537 1 6.2875 9.43427 15.7149 -8.88787 1.23735e-06
538 1 7.85942 11.007 17.2738 -8.90497 2.78603e-06
539 1 9.43222 9.43369 15.7118 -8.88714 1.54989e-06
540 1 11.0053 11.007 17.2663 -8.91709 3.54286e-06
541 1 12.5787 9.43369 15.7119 -8.88714 2.09881e-06
542 1 14.1513 11.007 17.2738 -8.90497 4.05217e-06
543 1 15.7235 9.43428 15.715 -8.88788 2.15924e-06
544 1 17.2952 11.007 17.2778 -8.90284 3.54444e-06
545 1 18.8678 9.4345 15.7166 -8.88817 1.70713e-06
546 1 20.4398 11.007 17.2787 -8.90309 2.86501e-06
547 1 22.0124 12.5794 15.7169 -8.8882 1.41676e-06
548 1 1.57095 14.1516 17.2788 -8.9031 2.30367e-06
549 1 3.14316 12.5794 15.7165 -8.88817 1.29611e-06
550 1 4.71563 14.1518 17.2782 -8.90292 2.22816e-06
551 1 6.2875 12.5796 15.7149 -8.88787 1.23735e-06
552 1 7.85946 14.1529 17.2759 -8.90267 2.29449e-06
553 1 9.43222 12.5802 15.7118 -8.88714 1.54989e-06
554 1 11.0054 14.1529 17.2738 -8.90497 2.86537e-06
555 1 12.5787 12.5802 15.7119 -8.88714 2.09881e-06
556 1 14.1513 14.1528 17.276 -8.90267 3.32943e-06
557 1 15.7235 12.5796 15.715 -8.88788 2.15924e-06
558 1 17.2951 14.1518 17.2783 -8.90292 2.91565e-06
559 1 18.8678 12.5794 15.7166 -8.88817 1.70713e-06
560 1 20.4398 14.1516 17.2788 -8.9031 2.43163e-06
561 1 22.0124 15.7242 15.717 -8.88817 1.07497e-06
562 1 1.57103 17.2964 17.2789 -8.90303 1.78749e-06
563 1 3.14332 15.7242 15.7168 -8.88809 1.01672e-06
564 1 4.71608 17.2963 17.2789 -8.90324 1.64296e-06
565 1 6.2879 15.7245 15.7161 -8.8877 8.60531e-07
566 1 7.86054 17.2967 17.2782 -8.90292 1.45345e-06
567 1 9.43282 15.7249 15.7149 -8.88787 9.60806e-07
568 1 11.0054 17.2968 17.2777 -8.90284 1.64575e-06
569 1 12.5782 15.7249 15.715 -8.88788 1.32487e-06
570 1 14.1502 17.2967 17.2783 -8.90292 1.9014e-06
571 1 15.7231 15.7245 15.7162 -8.8877 1.3931e-06
572 1 17.2947 17.2963 17.2789 -8.90324 1.77532e-06
573 1 18.8677 15.7242 15.7169 -8.88809 1.1544e-06
574 1 20.4397 17.2963 17.279 -8.90303 1.70624e-06
575 1 22.0125 18.869 15.7172 -8.88819 8.68995e-07
576 1 1.571 20.4413 17.2789 -8.90297 1.59468e-06
577 1 3.14347 18.869 15.7171 -8.88818 8.73355e-07
578 1 4.716 20.4413 17.2789 -8.90303 1.40129e-06
579 1 6.28824 18.8691 15.7168 -8.88809 6.068e-07
580 1 7.86072 20.4414 17.2788 -8.9031 1.03557e-06
581 1 9.43307 18.8693 15.7165 -8.88817 4.85894e-07
582 1 11.0054 20.4414 17.2787 -8.90309 1.00647e-06
583 1 12.578 18.8693 15.7165 -8.88817 6.32963e-07