ITEM: TIMESTEP
66
ITEM: NUMBER OF ATOMS
736
ITEM: BOX BOUNDS pp pp pp
0.0000000000000000e+00 2.2013900999999997e+01
0.0000000000000000e+00 2.2013900999999997e+01
0.0000000000000000e+00 5.3462330999999999e+01
ITEM: ATOMS id type x y z c_pot c_ke
1 1 2.21639e-05 1.7057e-15 0.0919459 -7.40173 0.000735068
2 1 1.57246 1.57244 1.61892 -8.68391 0.000637087
3 1 3.14489 1.27266e-15 0.0919736 -7.40174 0.000737876
4 1 4.71731 1.57244 1.61897 -8.68391 0.000639959
5 1 6.28973 22.0139 0.0920092 -7.40176 0.000740673
6 1 7.86213 1.57244 1.61901 -8.68391 0.000641303
7 1 9.43454 22.0139 0.092026 -7.40176 0.000741361
8 1 11.0069 1.57244 1.61901 -8.68391 0.000640082
9 1 12.5793 22.0139 0.0920114 -7.40176 0.000739434
10 1 14.1518 1.57244 1.61897 -8.68391 0.000637201
11 1 15.7242 1.05137e-15 0.0919763 -7.40174 0.000736305
12 1 17.2966 1.57244 1.61892 -8.68391 0.00063486
13 1 18.869 22.0139 0.0919471 -7.40173 0.00073436
14 1 20.4415 1.57243 1.6189 -8.68391 0.000634864
15 1 2.30312e-05 3.14487 0.0919587 -7.40174 0.00073596
16 1 1.57246 4.71729 1.61895 -8.68391 0.000638144
17 1 3.14489 3.14487 0.0919884 -7.40175 0.000738462
18 1 4.71731 4.7173 1.61901 -8.68391 0.000639862
19 1 6.28973 3.14488 0.0920268 -7.40176 0.000740693
20 1 7.86213 4.7173 1.61906 -8.68392 0.000639899
21 1 9.43454 3.14488 0.0920449 -7.40177 0.000740981
22 1 11.0069 4.7173 1.61906 -8.68392 0.000638107
23 1 12.5793 3.14488 0.0920292 -7.40177 0.000739092
24 1 14.1518 4.7173 1.61902 -8.68391 0.000635846
25 1 15.7242 3.14487 0.0919914 -7.40175 0.000736426
26 1 17.2966 4.71729 1.61896 -8.68391 0.000634925
27 1 18.869 3.14487 0.0919601 -7.40174 0.000735041
28 1 20.4415 4.71729 1.61893 -8.68391 0.000636026
29 1 2.49743e-05 6.28972 0.0919875 -7.40175 0.000737978
30 1 1.57246 7.86213 1.619 -8.68391 0.000639488
31 1 3.1449 6.28972 0.0920217 -7.40176 0.000739807
32 1 4.71731 7.86213 1.61907 -8.68392 0.000639785
33 1 6.28973 6.28973 0.0920662 -7.40178 0.000740819
34 1 7.86214 7.86214 1.61912 -8.68392 0.000638209
35 1 9.43454 6.28973 0.0920873 -7.40179 0.000740238
36 1 11.0069 7.86214 1.61913 -8.68392 0.000635675
37 1 12.5793 6.28973 0.0920692 -7.40178 0.00073841
38 1 14.1518 7.86213 1.61907 -8.68392 0.000634153
39 1 15.7242 6.28972 0.0920255 -7.40176 0.000736742
40 1 17.2966 7.86213 1.619 -8.68391 0.000635014
41 1 18.869 6.28972 0.0919892 -7.40175 0.000736594
42 1 20.4415 7.86213 1.61897 -8.68391 0.000637487
43 1 2.65264e-05 9.43454 0.0920106 -7.40176 0.00073961
44 1 1.57246 11.007 1.61902 -8.68391 0.000640097
45 1 3.1449 9.43455 0.0920485 -7.40177 0.00074092
46 1 4.71732 11.007 1.61909 -8.68392 0.00063977
47 1 6.28973 9.43455 0.0920979 -7.40179 0.000741008
48 1 7.86214 11.007 1.61915 -8.68392 0.000637484
49 1 9.43454 9.43455 0.0921214 -7.4018 0.000739765
50 1 11.0069 11.007 1.61915 -8.68392 0.000634609
51 1 12.5793 9.43455 0.0921013 -7.4018 0.000737952
52 1 14.1518 11.007 1.6191 -8.68392 0.000633405
53 1 15.7242 9.43455 0.0920528 -7.40178 0.000737037
54 1 17.2966 11.007 1.61902 -8.68391 0.000635057
55 1 18.869 9.43454 0.0920125 -7.40176 0.000737859
56 1 20.4415 11.007 1.61899 -8.68391 0.000638143
57 1 2.65264e-05 12.5794 0.0920106 -7.40176 0.00073961
58 1 1.57246 14.1518 1.619 -8.68391 0.000639488
59 1 3.1449 12.5794 0.0920485 -7.40177 0.00074092
60 1 4.71731 14.1518 1.61907 -8.68392 0.000639785
61 1 6.28973 12.5794 0.0920979 -7.40179 0.000741008
62 1 7.86214 14.1518 1.61912 -8.68392 0.000638209
63 1 9.43454 12.5794 0.0921214 -7.4018 0.000739765
64 1 11.0069 14.1518 1.61913 -8.68392 0.000635675
65 1 12.5793 12.5794 0.0921013 -7.4018 0.000737952
66 1 14.1518 14.1518 1.61907 -8.68392 0.000634153
67 1 15.7242 12.5794 0.0920528 -7.40178 0.000737037
68 1 17.2966 14.1518 1.619 -8.68391 0.000635014
69 1 18.869 12.5794 0.0920125 -7.40176 0.000737859
70 1 20.4415 14.1518 1.61897 -8.68391 0.000637487
71 1 2.49743e-05 15.7242 0.0919875 -7.40175 0.000737978
72 1 1.57246 17.2966 1.61895 -8.68391 0.000638144
73 1 3.1449 15.7242 0.0920217 -7.40176 0.000739807
74 1 4.71731 17.2966 1.61901 -8.68391 0.000639862
75 1 6.28973 15.7242 0.0920662 -7.40178 0.000740819
76 1 7.86213 17.2966 1.61906 -8.68392 0.000639899
77 1 9.43454 15.7242 0.0920873 -7.40179 0.000740238
78 1 11.0069 17.2966 1.61906 -8.68392 0.000638107
79 1 12.5793 15.7242 0.0920692 -7.40178 0.00073841
80 1 14.1518 17.2966 1.61902 -8.68391 0.000635846
81 1 15.7242 15.7242 0.0920255 -7.40176 0.000736742
82 1 17.2966 17.2966 1.61896 -8.68391 0.000634925
83 1 18.869 15.7242 0.0919892 -7.40175 0.000736594
84 1 20.4415 17.2966 1.61893 -8.68391 0.000636026
85 1 2.30312e-05 18.869 0.0919587 -7.40174 0.00073596
86 1 1.57246 20.4415 1.61892 -8.68391 0.000637087
87 1 3.14489 18.869 0.0919884 -7.40175 0.000738462
88 1 4.71731 20.4415 1.61897 -8.68391 0.000639959
89 1 6.28973 18.869 0.0920268 -7.40176 0.000740693
90 1 7.86213 20.4415 1.61901 -8.68391 0.000641303
91 1 9.43454 18.869 0.0920449 -7.40177 0.000740981
92 1 11.0069 20.4415 1.61901 -8.68391 0.000640082
93 1 12.5793 18.869 0.0920292 -7.40177 0.000739092
94 1 14.1518 20.4415 1.61897 -8.68391 0.000637201
95 1 15.7242 18.869 0.0919914 -7.40175 0.000736426
96 1 17.2966 20.4415 1.61892 -8.68391 0.00063486
97 1 18.869 18.869 0.0919601 -7.40174 0.000735041
98 1 20.4415 20.4415 1.6189 -8.68391 0.000634864
99 1 2.37321e-05 2.02958e-15 3.14923 -8.93801 0.000541523
100 1 1.57247 1.57244 4.73886 -8.90307 0.000421974
101 1 3.14489 4.98817e-16 3.14927 -8.938 0.000543769
102 1 4.71732 1.57244 4.73893 -8.90307 0.000423009
103 1 6.28972 22.0139 3.14933 -8.93799 0.000545173
104 1 7.86214 1.57244 4.73898 -8.90307 0.000422142
105 1 9.43454 22.0139 3.14936 -8.93799 0.000544568
106 1 11.0069 1.57244 4.73899 -8.90307 0.000420075
107 1 12.5794 22.0139 3.14933 -8.93799 0.000542425
108 1 14.1518 1.57244 4.73893 -8.90307 0.000418466
109 1 15.7242 1.62642e-15 3.14928 -8.938 0.000540388
110 1 17.2966 1.57244 4.73886 -8.90307 0.000418412
111 1 18.8691 22.0139 3.14923 -8.93801 0.000540025
112 1 20.4415 1.57244 4.73883 -8.90307 0.000419817
113 1 2.47433e-05 3.14487 3.14925 -8.938 0.000541718
114 1 1.57247 4.7173 4.73891 -8.90307 0.000421456
115 1 3.14489 3.14487 3.1493 -8.938 0.000543741
116 1 4.71733 4.71731 4.73899 -8.90307 0.000421672
117 1 6.28972 3.14487 3.14936 -8.93799 0.000544544
118 1 7.86214 4.71731 4.73905 -8.90306 0.000419184
119 1 9.43454 3.14487 3.14939 -8.93799 0.000543352
120 1 11.0069 4.71731 4.73905 -8.90307 0.000416281
121 1 12.5794 3.14487 3.14936 -8.93799 0.000541164
122 1 14.1518 4.7173 4.73899 -8.90307 0.000415315
123 1 15.7242 3.14487 3.1493 -8.938 0.000539661
124 1 17.2966 4.7173 4.73891 -8.90307 0.000416534
125 1 18.8691 3.14487 3.14925 -8.938 0.000539933
126 1 20.4415 4.7173 4.73887 -8.90307 0.000419009
127 1 2.69993e-05 6.28971 3.14929 -8.938 0.000542144
128 1 1.57248 7.86214 4.73896 -8.90307 0.000420682
129 1 3.14489 6.28972 3.14935 -8.93799 0.000543616
130 1 4.71733 7.86214 4.73906 -8.90306 0.000419566
131 1 6.28973 6.28972 3.14942 -8.93798 0.000542837
132 1 7.86215 7.86214 4.73914 -8.90306 0.000414742
133 1 9.43454 6.28972 3.14946 -8.93798 0.000540144
134 1 11.0069 7.86214 4.73914 -8.90306 0.000410788
135 1 12.5794 6.28972 3.14943 -8.93798 0.000537904
136 1 14.1518 7.86214 4.73906 -8.90307 0.000410907
137 1 15.7242 6.28972 3.14936 -8.93799 0.000537816
138 1 17.2966 7.86214 4.73897 -8.90307 0.000414033
139 1 18.8691 6.28971 3.1493 -8.938 0.000539662
140 1 20.4415 7.86213 4.73892 -8.90307 0.000417981
141 1 2.87919e-05 9.43454 3.14933 -8.93799 0.000542476
142 1 1.57248 11.007 4.73899 -8.90307 0.000420274
143 1 3.1449 9.43454 3.14939 -8.93798 0.00054341
144 1 4.71733 11.007 4.73909 -8.90306 0.000418448
145 1 6.28973 9.43454 3.14948 -8.93797 0.000541121
146 1 7.86215 11.007 4.73917 -8.90306 0.000412461
147 1 9.43454 9.43455 3.14951 -8.93797 0.000537034
148 1 11.0069 11.007 4.73918 -8.90306 0.000408035
149 1 12.5794 9.43454 3.14948 -8.93797 0.000534865
150 1 14.1518 11.007 4.73909 -8.90306 0.000408762
151 1 15.7242 9.43454 3.1494 -8.93798 0.000536151
152 1 17.2966 11.007 4.73899 -8.90307 0.000412852
153 1 18.8691 9.43454 3.14933 -8.93799 0.000539403
154 1 20.4415 11.007 4.73895 -8.90307 0.000417516
155 1 2.87919e-05 12.5794 3.14933 -8.93799 0.000542476
156 1 1.57248 14.1518 4.73896 -8.90307 0.000420682
157 1 3.1449 12.5794 3.14939 -8.93798 0.00054341
158 1 4.71733 14.1518 4.73906 -8.90306 0.000419566
159 1 6.28973 12.5794 3.14948 -8.93797 0.000541121
160 1 7.86215 14.1518 4.73914 -8.90306 0.000414742
161 1 9.43454 12.5794 3.14951 -8.93797 0.000537034
162 1 11.0069 14.1518 4.73914 -8.90306 0.000410788
163 1 12.5794 12.5794 3.14948 -8.93797 0.000534865
164 1 14.1518 14.1518 4.73906 -8.90307 0.000410907
165 1 15.7242 12.5794 3.1494 -8.93798 0.000536151
166 1 17.2966 14.1518 4.73897 -8.90307 0.000414033
167 1 18.8691 12.5794 3.14933 -8.93799 0.000539403
168 1 20.4415 14.1518 4.73892 -8.90307 0.000417981
169 1 2.69993e-05 15.7242 3.14929 -8.938 0.000542144
170 1 1.57247 17.2966 4.73891 -8.90307 0.000421456
171 1 3.14489 15.7242 3.14935 -8.93799 0.000543616
172 1 4.71733 17.2966 4.73899 -8.90307 0.000421672
173 1 6.28973 15.7242 3.14942 -8.93798 0.000542837
174 1 7.86214 17.2966 4.73905 -8.90306 0.000419184
175 1 9.43454 15.7242 3.14946 -8.93798 0.000540144
176 1 11.0069 17.2966 4.73905 -8.90307 0.000416281
177 1 12.5794 15.7242 3.14943 -8.93798 0.000537904
178 1 14.1518 17.2966 4.73899 -8.90307 0.000415315
179 1 15.7242 15.7242 3.14936 -8.93799 0.000537816
180 1 17.2966 17.2966 4.73891 -8.90307 0.000416534
181 1 18.8691 15.7242 3.1493 -8.938 0.000539662
182 1 20.4415 17.2966 4.73887 -8.90307 0.000419009
183 1 2.47433e-05 18.869 3.14925 -8.938 0.000541718
184 1 1.57247 20.4415 4.73886 -8.90307 0.000421974
185 1 3.14489 18.869 3.1493 -8.938 0.000543741
186 1 4.71732 20.4415 4.73893 -8.90307 0.000423009
187 1 6.28972 18.869 3.14936 -8.93799 0.000544544
188 1 7.86214 20.4415 4.73898 -8.90307 0.000422142
189 1 9.43454 18.869 3.14939 -8.93799 0.000543352
190 1 11.0069 20.4415 4.73899 -8.90307 0.000420075
191 1 12.5794 18.869 3.14936 -8.93799 0.000541164
192 1 14.1518 20.4415 4.73893 -8.90307 0.000418466
193 1 15.7242 18.869 3.1493 -8.938 0.000539661
194 1 17.2966 20.4415 4.73886 -8.90307 0.000418412
195 1 18.8691 18.869 3.14925 -8.938 0.000539933
196 1 20.4415 20.4415 4.73883 -8.90307 0.000419817
197 1 4.60953e-05 1.36898e-15 6.30099 -8.88811 0.000278026
198 1 1.57252 1.57245 7.87066 -8.90466 0.000166965
199 1 3.14492 22.0139 6.30106 -8.88811 0.000279368
200 1 4.71737 1.57246 7.87077 -8.90465 0.000166139
201 1 6.28975 22.0139 6.30114 -8.8881 0.000278428
202 1 7.86217 1.57246 7.87086 -8.90465 0.000163334
203 1 9.43455 1.63469e-15 6.30118 -8.8881 0.000276252
204 1 11.0069 1.57246 7.87086 -8.90465 0.000160593
205 1 12.5793 22.0139 6.30115 -8.8881 0.000274256
206 1 14.1517 1.57246 7.87077 -8.90465 0.000159917
207 1 15.7242 1.53597e-15 6.30106 -8.88811 0.000274157
208 1 17.2966 1.57245 7.87066 -8.90466 0.000161956
209 1 18.8691 22.0139 6.30099 -8.88811 0.000275721
210 1 20.4415 1.57245 7.87061 -8.90466 0.000164963
211 1 4.88156e-05 3.14488 6.30102 -8.88811 0.000277227
212 1 1.57253 4.71733 7.87073 -8.90466 0.000164692
213 1 3.14493 3.14489 6.3011 -8.8881 0.000278275
214 1 4.71739 4.71735 7.87087 -8.90465 0.000162472
215 1 6.28976 3.1449 6.30119 -8.8881 0.000276327
216 1 7.86218 4.71736 7.87098 -8.90464 0.000158095
217 1 9.43455 3.1449 6.30123 -8.8881 0.00027325
218 1 11.0069 4.71736 7.87098 -8.90464 0.000154286
219 1 12.5793 3.14489 6.30119 -8.8881 0.000271135
220 1 14.1517 4.71734 7.87087 -8.90465 0.000153787
221 1 15.7242 3.14489 6.3011 -8.8881 0.000271714
222 1 17.2966 4.71733 7.87073 -8.90466 0.000157655
223 1 18.8691 3.14488 6.30102 -8.88811 0.000274313
224 1 20.4415 4.71732 7.87067 -8.90466 0.000162481
225 1 5.48253e-05 6.28973 6.30109 -8.8881 0.000275415
226 1 1.57254 7.86216 7.87083 -8.90465 0.000161789
227 1 3.14494 6.28974 6.30118 -8.8881 0.000275654
228 1 4.71741 7.86217 7.871 -8.90464 0.000158006
229 1 6.28977 6.28975 6.3013 -8.8881 0.000271613
230 1 7.86219 7.86218 7.87113 -8.90463 0.000152162
231 1 9.43455 6.28975 6.30135 -8.88809 0.000266812
232 1 11.0069 7.86218 7.87113 -8.90463 0.000146966
233 1 12.5793 6.28975 6.3013 -8.8881 0.000264318
234 1 14.1517 7.86217 7.87099 -8.90464 0.000146282
235 1 15.7242 6.28974 6.30118 -8.8881 0.000266306
236 1 17.2966 7.86216 7.87083 -8.90465 0.000152361
237 1 18.8691 6.28973 6.30109 -8.8881 0.000271255
238 1 20.4415 7.86215 7.87076 -8.90466 0.000159352
239 1 5.95596e-05 9.43455 6.30114 -8.8881 0.000273951
240 1 1.57255 11.007 7.87087 -8.90465 0.000160528
241 1 3.14495 9.43455 6.30125 -8.8881 0.000273521
242 1 4.71742 11.007 7.87105 -8.90464 0.000156198
243 1 6.28978 9.43456 6.30138 -8.88809 0.000268055
244 1 7.8622 11.007 7.8712 -8.90462 0.000149879
245 1 9.43455 9.43456 6.30144 -8.88809 0.000262067
246 1 11.0069 11.007 7.8712 -8.90462 0.000143998
247 1 12.5793 9.43456 6.30138 -8.88809 0.000259054
248 1 14.1517 11.007 7.87104 -8.90464 0.00014305
249 1 15.7242 9.43455 6.30125 -8.8881 0.000261972
250 1 17.2966 11.007 7.87087 -8.90465 0.00015001
251 1 18.869 9.43455 6.30114 -8.8881 0.000268812
252 1 20.4415 11.007 7.87079 -8.90465 0.000157946
253 1 5.95596e-05 12.5794 6.30114 -8.8881 0.000273951
254 1 1.57254 14.1517 7.87083 -8.90465 0.000161789
255 1 3.14495 12.5793 6.30125 -8.8881 0.000273521
256 1 4.71741 14.1517 7.871 -8.90464 0.000158006
257 1 6.28978 12.5793 6.30138 -8.88809 0.000268055
258 1 7.86219 14.1517 7.87113 -8.90463 0.000152162
259 1 9.43455 12.5793 6.30144 -8.88809 0.000262067
260 1 11.0069 14.1517 7.87113 -8.90463 0.000146966
261 1 12.5793 12.5793 6.30138 -8.88809 0.000259054
262 1 14.1517 14.1517 7.87099 -8.90464 0.000146282
263 1 15.7242 12.5793 6.30125 -8.8881 0.000261972
264 1 17.2966 14.1517 7.87083 -8.90465 0.000152361
265 1 18.869 12.5794 6.30114 -8.8881 0.000268812
266 1 20.4415 14.1517 7.87076 -8.90466 0.000159352
267 1 5.48253e-05 15.7242 6.30109 -8.8881 0.000275415
268 1 1.57253 17.2966 7.87073 -8.90466 0.000164692
269 1 3.14494 15.7242 6.30118 -8.8881 0.000275654
270 1 4.71739 17.2966 7.87087 -8.90465 0.000162472
271 1 6.28977 15.7241 6.3013 -8.8881 0.000271613
272 1 7.86218 17.2965 7.87098 -8.90464 0.000158095
273 1 9.43455 15.7241 6.30135 -8.88809 0.000266812
274 1 11.0069 17.2965 7.87098 -8.90464 0.000154286
275 1 12.5793 15.7242 6.3013 -8.8881 0.000264318
276 1 14.1517 17.2966 7.87087 -8.90465 0.000153787
277 1 15.7242 15.7242 6.30118 -8.8881 0.000266306
278 1 17.2966 17.2966 7.87073 -8.90466 0.000157655
279 1 18.8691 15.7242 6.30109 -8.8881 0.000271255
280 1 20.4415 17.2966 7.87067 -8.90466 0.000162481
281 1 4.88156e-05 18.869 6.30102 -8.88811 0.000277227
282 1 1.57252 20.4414 7.87066 -8.90466 0.000166965
283 1 3.14493 18.869 6.3011 -8.8881 0.000278275
284 1 4.71737 20.4414 7.87077 -8.90465 0.000166139
285 1 6.28976 18.869 6.30119 -8.8881 0.000276327
286 1 7.86217 20.4414 7.87086 -8.90465 0.000163334
287 1 9.43455 18.869 6.30123 -8.8881 0.00027325
288 1 11.0069 20.4414 7.87086 -8.90465 0.000160593
289 1 12.5793 18.869 6.30119 -8.8881 0.000271135
290 1 14.1517 20.4414 7.87077 -8.90465 0.000159917
291 1 15.7242 18.869 6.3011 -8.8881 0.000271714
292 1 17.2966 20.4415 7.87066 -8.90466 0.000161956
293 1 18.8691 18.869 6.30102 -8.88811 0.000274313
294 1 20.4415 20.4415 7.87061 -8.90466 0.000164963
295 1 8.89164e-05 1.82903e-15 9.43939 -8.89867 6.89486e-05
296 1 1.57259 1.57247 11.008 -8.90007 1.41678e-05
297 1 3.14499 22.0139 9.4395 -8.89867 6.9164e-05
298 1 4.71746 1.57249 11.0082 -8.90007 1.3423e-05
299 1 6.28981 1.55023e-15 9.43965 -8.89867 6.70656e-05
300 1 7.86222 1.57251 11.0084 -8.90006 1.15035e-05
301 1 9.43457 1.13955e-15 9.43971 -8.89867 6.41013e-05
302 1 11.0069 1.5725 11.0084 -8.90006 1.00727e-05
303 1 12.5793 1.10421e-15 9.43964 -8.89867 6.27062e-05
304 1 14.1517 1.57249 11.0082 -8.90007 1.02435e-05
305 1 15.7241 1.75231e-15 9.4395 -8.89867 6.37886e-05
306 1 17.2966 1.57247 11.008 -8.90007 1.16536e-05
307 1 18.8691 22.0139 9.43939 -8.89867 6.65544e-05
308 1 20.4415 1.57246 11.008 -8.90007 1.35177e-05
309 1 9.59545e-05 3.14491 9.43944 -8.89867 6.76788e-05
310 1 1.57262 4.71738 11.0082 -8.90007 1.27451e-05
311 1 3.145 3.14493 9.43957 -8.89867 6.77366e-05
312 1 4.7175 4.71743 11.0084 -8.90006 1.19571e-05
313 1 6.28982 3.14495 9.43973 -8.89867 6.51463e-05
314 1 7.86225 4.71746 11.0086 -8.90005 9.48697e-06
315 1 9.43457 3.14495 9.4398 -8.89867 6.15443e-05
316 1 11.0069 4.71745 11.0086 -8.90005 7.59803e-06
317 1 12.5793 3.14494 9.43973 -8.89867 5.98543e-05
318 1 14.1517 4.71741 11.0084 -8.90006 7.78864e-06
319 1 15.7241 3.14492 9.43957 -8.89867 6.12943e-05
320 1 17.2966 4.71737 11.0082 -8.90007 9.56224e-06
321 1 18.8691 3.14491 9.43944 -8.89867 6.48207e-05
322 1 20.4415 4.71736 11.0081 -8.90007 1.1985e-05
323 1 0.000111265 6.28977 9.43955 -8.89867 6.47319e-05
324 1 1.57266 7.8622 11.0083 -8.90006 1.09374e-05
325 1 3.14503 6.28979 9.43972 -8.89867 6.44471e-05
326 1 4.71755 7.86224 11.0087 -8.90005 9.88277e-06
327 1 6.28985 6.28982 9.43993 -8.89866 6.07713e-05
328 1 7.86228 7.86227 11.009 -8.9 6.87972e-06
329 1 9.43458 6.28983 9.44003 -8.89866 5.55631e-05
330 1 11.0069 7.86226 11.0089 -8.90001 4.50353e-06
331 1 12.5793 6.28981 9.43992 -8.89866 5.30226e-05
332 1 14.1517 7.86223 11.0086 -8.90005 4.73448e-06
333 1 15.7241 6.28978 9.43971 -8.89867 5.53209e-05
334 1 17.2966 7.86219 11.0083 -8.90006 7.03135e-06
335 1 18.8691 6.28976 9.43955 -8.89867 6.07415e-05
336 1 20.4416 7.86218 11.0082 -8.90007 1.00761e-05
337 1 0.000123189 9.43456 9.43964 -8.89867 6.23061e-05
338 1 1.57267 11.007 11.0084 -8.90006 1.00791e-05
339 1 3.14505 9.43458 9.43983 -8.89867 6.1679e-05
340 1 4.71758 11.007 11.0088 -8.90004 8.80347e-06
341 1 6.28987 9.43459 9.44009 -8.89865 5.69352e-05
342 1 7.8623 11.007 11.0091 -8.89998 5.5777e-06
343 1 9.43458 9.43459 9.44021 -8.89864 5.03395e-05
344 1 11.0069 11.007 11.0091 -8.9 3.11498e-06
345 1 12.5793 9.43458 9.44008 -8.89866 4.71665e-05
346 1 14.1517 11.007 11.0087 -8.90005 3.46394e-06
347 1 15.7241 9.43457 9.43982 -8.89867 5.04566e-05
348 1 17.2966 11.007 11.0084 -8.90006 5.98878e-06
349 1 18.8691 9.43456 9.43963 -8.89867 5.74505e-05
350 1 20.4416 11.007 11.0083 -8.90006 9.23596e-06
351 1 0.000123189 12.5793 9.43964 -8.89867 6.23061e-05
352 1 1.57266 14.1517 11.0083 -8.90006 1.09374e-05
353 1 3.14505 12.5793 9.43983 -8.89867 6.1679e-05
354 1 4.71755 14.1517 11.0087 -8.90005 9.88277e-06
355 1 6.28987 12.5793 9.44009 -8.89865 5.69352e-05
356 1 7.86228 14.1516 11.009 -8.9 6.87972e-06
357 1 9.43458 12.5793 9.44021 -8.89864 5.03395e-05
358 1 11.0069 14.1516 11.0089 -8.90001 4.50353e-06
359 1 12.5793 12.5793 9.44008 -8.89866 4.71665e-05
360 1 14.1517 14.1517 11.0086 -8.90005 4.73448e-06
361 1 15.7241 12.5793 9.43982 -8.89867 5.04566e-05
362 1 17.2966 14.1517 11.0083 -8.90006 7.03135e-06
363 1 18.8691 12.5793 9.43963 -8.89867 5.74505e-05
364 1 20.4416 14.1517 11.0082 -8.90007 1.00761e-05
365 1 0.000111265 15.7241 9.43955 -8.89867 6.47319e-05
366 1 1.57262 17.2965 11.0082 -8.90007 1.27451e-05
367 1 3.14503 15.7241 9.43972 -8.89867 6.44471e-05
368 1 4.7175 17.2965 11.0084 -8.90006 1.19571e-05
369 1 6.28985 15.7241 9.43993 -8.89866 6.07713e-05
370 1 7.86225 17.2964 11.0086 -8.90005 9.48697e-06
371 1 9.43458 15.7241 9.44003 -8.89866 5.55631e-05
372 1 11.0069 17.2964 11.0086 -8.90005 7.59803e-06
373 1 12.5793 15.7241 9.43992 -8.89866 5.30226e-05
374 1 14.1517 17.2965 11.0084 -8.90006 7.78864e-06
375 1 15.7241 15.7241 9.43971 -8.89867 5.53209e-05
376 1 17.2966 17.2965 11.0082 -8.90007 9.56224e-06
377 1 18.8691 15.7241 9.43955 -8.89867 6.07415e-05
378 1 20.4415 17.2965 11.0081 -8.90007 1.1985e-05
379 1 9.59545e-05 18.869 9.43944 -8.89867 6.76788e-05
380 1 1.57259 20.4414 11.008 -8.90007 1.41678e-05
381 1 3.145 18.869 9.43957 -8.89867 6.77366e-05
382 1 4.71746 20.4414 11.0082 -8.90007 1.3423e-05
383 1 6.28982 18.869 9.43973 -8.89867 6.51463e-05
384 1 7.86222 20.4414 11.0084 -8.90006 1.15035e-05
385 1 9.43457 18.8689 9.4398 -8.89867 6.15443e-05
386 1 11.0069 20.4414 11.0084 -8.90006 1.00727e-05
387 1 12.5793 18.869 9.43973 -8.89867 5.98543e-05
388 1 14.1517 20.4414 11.0082 -8.90007 1.02435e-05
389 1 15.7241 18.869 9.43957 -8.89867 6.12943e-05
390 1 17.2966 20.4414 11.008 -8.90007 1.16536e-05
391 1 18.8691 18.869 9.43944 -8.89867 6.48207e-05
392 1 20.4415 20.4414 11.008 -8.90007 1.35177e-05
393 1 0.000154592 9.55482e-16 12.5765 -8.89868 1.00304e-06
394 1 3.14509 22.0139 12.5767 -8.89868 7.13861e-07
395 1 6.28989 22.0139 12.5769 -8.89868 1.00323e-06
396 1 9.43459 22.0139 12.577 -8.89867 1.80079e-06
397 1 12.5793 1.31921e-15 12.5769 -8.89868 2.40615e-06
398 1 15.7241 22.0139 12.5767 -8.89868 2.34267e-06
399 1 18.8691 22.0139 12.5765 -8.89868 1.73968e-06
400 1 0.000172138 3.14494 12.5766 -8.89868 1.43202e-06
401 1 3.14512 3.14499 12.5768 -8.89869 1.0259e-06
402 1 6.28993 3.14504 12.5771 -8.89868 1.44145e-06
403 1 9.4346 3.14506 12.5772 -8.89867 2.72985e-06
404 1 12.5793 3.14502 12.5771 -8.89868 3.75984e-06
405 1 15.7241 3.14497 12.5768 -8.89868 3.68922e-06
406 1 18.8691 3.14494 12.5766 -8.89867 2.61156e-06
407 1 0.000209212 6.28981 12.5768 -8.89867 2.51523e-06
408 1 3.1452 6.28987 12.5771 -8.89868 1.93891e-06
409 1 6.29001 6.28995 12.5775 -8.89866 2.60652e-06
410 1 9.43463 6.28997 12.5777 -8.89865 5.19553e-06
411 1 12.5793 6.28992 12.5775 -8.89867 7.80719e-06
412 1 15.7241 6.28984 12.5771 -8.89868 7.78299e-06
413 1 18.8691 6.2898 12.5768 -8.89867 4.91691e-06
414 1 0.000237424 9.43458 12.5769 -8.89867 3.50606e-06
415 1 3.14525 9.43461 12.5773 -8.89868 2.89999e-06
416 1 6.29007 9.43465 12.5778 -8.89866 4.099e-06
417 1 9.43465 9.43466 12.5781 -8.89856 7.96488e-06
418 1 12.5792 9.43464 12.5778 -8.89867 1.29965e-05
419 1 15.7241 9.4346 12.5772 -8.89868 1.22358e-05
420 1 18.8691 9.43458 12.5769 -8.89867 7.07874e-06
421 1 0.000237424 12.5793 12.5769 -8.89867 3.50606e-06
422 1 3.14525 12.5793 12.5773 -8.89868 2.89999e-06
423 1 6.29007 12.5793 12.5778 -8.89866 4.099e-06
424 1 9.43465 12.5792 12.5781 -8.89856 7.96488e-06
425 1 12.5792 12.5793 12.5778 -8.89867 1.29965e-05
426 1 15.7241 12.5793 12.5772 -8.89868 1.22358e-05
427 1 18.8691 12.5793 12.5769 -8.89867 7.07874e-06
428 1 0.000209212 15.7241 12.5768 -8.89867 2.51523e-06
429 1 3.1452 15.724 12.5771 -8.89868 1.93891e-06
430 1 6.29001 15.724 12.5775 -8.89866 2.60652e-06
431 1 9.43463 15.7239 12.5777 -8.89865 5.19553e-06
432 1 12.5793 15.724 12.5775 -8.89867 7.80719e-06
433 1 15.7241 15.7241 12.5771 -8.89868 7.78299e-06
434 1 18.8691 15.7241 12.5768 -8.89867 4.91691e-06
435 1 0.000172138 18.869 12.5766 -8.89868 1.43202e-06
436 1 3.14512 18.8689 12.5768 -8.89869 1.0259e-06
437 1 6.28993 18.8689 12.5771 -8.89868 1.44145e-06
438 1 9.4346 18.8688 12.5772 -8.89867 2.72985e-06
439 1 12.5793 18.8689 12.5771 -8.89868 3.75984e-06
440 1 15.7241 18.8689 12.5768 -8.89868 3.68922e-06
441 1 18.8691 18.869 12.5766 -8.89867 2.61156e-06
442 1 1.5727 1.5725 14.1454 -8.90466 2.76211e-05
443 1 4.71758 1.57255 14.1457 -8.90466 2.8943e-05
444 1 7.8623 1.57258 14.1459 -8.90465 3.34471e-05
445 1 11.0069 1.57257 14.1459 -8.90465 3.82124e-05
446 1 14.1517 1.57253 14.1457 -8.90466 3.93224e-05
447 1 17.2966 1.57249 14.1454 -8.90466 3.55599e-05
448 1 20.4416 1.57248 14.1452 -8.90465 3.0725e-05
449 1 1.57277 4.71745 14.1456 -8.90466 3.13605e-05
450 1 4.7177 4.71757 14.1461 -8.90468 3.21997e-05
451 1 7.86237 4.71765 14.1464 -8.90466 3.8241e-05
452 1 11.0069 4.71762 14.1464 -8.90466 4.72297e-05
453 1 14.1516 4.71751 14.146 -8.90467 5.15791e-05
454 1 17.2966 4.71741 14.1456 -8.90465 4.58811e-05
455 1 20.4416 4.71739 14.1454 -8.90465 3.66362e-05
456 1 1.57285 7.86225 14.1459 -8.90466 3.69578e-05
457 1 4.71783 7.86236 14.1465 -8.90468 3.87432e-05
458 1 7.86249 7.86246 14.1472 -8.90457 4.19593e-05
459 1 11.0069 7.86243 14.1471 -8.90461 5.84682e-05
460 1 14.1516 7.8623 14.1464 -8.90467 7.41762e-05
461 1 17.2966 7.86222 14.1458 -8.90465 6.09101e-05
462 1 20.4416 7.86221 14.1456 -8.90465 4.47384e-05
463 1 1.57288 11.007 14.146 -8.90465 3.95205e-05
464 1 4.71788 11.007 14.1467 -8.90467 4.21615e-05
465 1 7.86255 11.007 14.1475 -8.90463 4.45651e-05
466 1 11.0069 11.007 14.1474 -8.9047 6.58651e-05
467 1 14.1516 11.007 14.1466 -8.90468 8.68169e-05
468 1 17.2966 11.007 14.1459 -8.90465 6.84687e-05
469 1 20.4417 11.007 14.1457 -8.90465 4.86155e-05
470 1 1.57285 14.1516 14.1459 -8.90466 3.69578e-05
471 1 4.71783 14.1515 14.1465 -8.90468 3.87432e-05
472 1 7.86249 14.1514 14.1472 -8.90457 4.19593e-05
473 1 11.0069 14.1515 14.1471 -8.90461 5.84682e-05
474 1 14.1516 14.1516 14.1464 -8.90467 7.41762e-05
475 1 17.2966 14.1517 14.1458 -8.90465 6.09101e-05
476 1 20.4416 14.1517 14.1456 -8.90465 4.47384e-05
477 1 1.57277 17.2965 14.1456 -8.90466 3.13605e-05
478 1 4.7177 17.2963 14.1461 -8.90468 3.21997e-05
479 1 7.86237 17.2962 14.1464 -8.90466 3.8241e-05
480 1 11.0069 17.2963 14.1464 -8.90466 4.72297e-05
481 1 14.1516 17.2964 14.146 -8.90467 5.15791e-05
482 1 17.2966 17.2965 14.1456 -8.90465 4.58811e-05
483 1 20.4416 17.2965 14.1454 -8.90465 3.66362e-05
484 1 1.5727 20.4414 14.1454 -8.90466 2.76211e-05
485 1 4.71758 20.4413 14.1457 -8.90466 2.8943e-05
486 1 7.8623 20.4413 14.1459 -8.90465 3.34471e-05
487 1 11.0069 20.4413 14.1459 -8.90465 3.82124e-05
488 1 14.1517 20.4414 14.1457 -8.90466 3.93224e-05
489 1 17.2966 20.4414 14.1454 -8.90466 3.55599e-05
490 1 20.4416 20.4414 14.1452 -8.90465 3.0725e-05
491 1 0.000222463 1.09784e-15 15.7148 -8.88812 7.89835e-05
492 1 1.57277 1.57252 17.277 -8.90304 0.00015695
493 1 3.14519 6.44564e-16 15.7151 -8.88814 7.79066e-05
494 1 4.7177 1.57263 17.2774 -8.90306 0.000159981
495 1 6.28998 1.18666e-15 15.7154 -8.88811 8.39506e-05
496 1 7.86237 1.57269 17.2778 -8.90303 0.000173625
497 1 9.43463 22.0139 15.7156 -8.88811 9.30083e-05
498 1 11.007 1.57266 17.2778 -8.90304 0.000188472
499 1 12.5793 22.0139 15.7154 -8.88811 9.8689e-05
500 1 14.1517 1.57257 17.2774 -8.90307 0.000191188
501 1 15.7241 22.0139 15.715 -8.88813 9.50967e-05
502 1 17.2966 1.57248 17.277 -8.90305 0.000180131
503 1 18.8691 22.0139 15.7148 -8.88811 8.62049e-05
504 1 20.4416 1.57247 17.2768 -8.90304 0.000162753
505 1 0.000260975 3.14496 15.7149 -8.88812 8.35717e-05
506 1 1.57292 4.71749 17.2773 -8.90306 0.000169061
507 1 3.14526 3.14507 15.7153 -8.88815 8.11959e-05
508 1 4.718 4.71782 17.2781 -8.90321 0.000164601
509 1 6.29006 3.1452 15.7157 -8.88811 8.68194e-05
510 1 7.86258 4.71803 17.2787 -8.90308 0.000175574
511 1 9.43466 3.14522 15.7159 -8.88812 9.88802e-05
512 1 11.0069 4.71793 17.2787 -8.9031 0.000205828
513 1 12.5793 3.14514 15.7157 -8.88811 0.000108903
514 1 14.1516 4.71764 17.278 -8.90318 0.000226418
515 1 15.7241 3.14501 15.7152 -8.88813 0.000106881
516 1 17.2966 4.7174 17.2773 -8.90305 0.000214487
517 1 18.8691 3.14494 15.7149 -8.88811 9.42419e-05
518 1 20.4417 4.71737 17.277 -8.90303 0.000181365
519 1 0.000340476 6.28983 15.7152 -8.88811 9.54218e-05
520 1 1.57307 7.86229 17.2777 -8.90306 0.000187883
521 1 3.14543 6.28997 15.7157 -8.88813 9.06056e-05
522 1 4.71829 7.86256 17.2789 -8.90316 0.000179928
523 1 6.2903 6.29021 15.7166 -8.88805 8.98924e-05
524 1 7.86308 7.86302 17.2805 -8.90386 0.000134845
525 1 9.43473 6.29025 15.7169 -8.88801 0.000106298
526 1 11.0068 7.86289 17.2802 -8.90394 0.000191975
527 1 12.5792 6.2901 15.7164 -8.88806 0.000135379
528 1 14.1516 7.86237 17.2786 -8.90316 0.000313716
529 1 15.7241 6.28988 15.7156 -8.88811 0.000141619
530 1 17.2967 7.86219 17.2776 -8.90306 0.000270841
531 1 18.8691 6.2898 15.7151 -8.8881 0.000115014
532 1 20.4418 7.86219 17.2773 -8.90303 0.00020837
533 1 0.000398065 9.43459 15.7154 -8.88811 0.000106111
534 1 1.57313 11.007 17.2779 -8.90306 0.000197952
535 1 3.14554 9.43465 15.716 -8.88813 0.00010078
536 1 4.7184 11.007 17.2792 -8.90319 0.000193771
537 1 6.29047 9.43477 15.7172 -8.88801 0.000100615
538 1 7.86332 11.007 17.2812 -8.90476 0.000149641
539 1 9.43482 9.4348 15.7179 -8.88693 0.000102975
540 1 11.0069 11.007 17.2808 -8.90481 0.000236537
541 1 12.5792 9.43471 15.717 -8.88803 0.000178629
542 1 14.1517 11.007 17.2788 -8.90325 0.000371732
543 1 15.7241 9.43461 15.7159 -8.88811 0.000178752
544 1 17.2967 11.007 17.2777 -8.90306 0.000299792
545 1 18.8692 9.43458 15.7153 -8.8881 0.000133957
546 1 20.4418 11.007 17.2774 -8.90304 0.000221371
547 1 0.000398065 12.5793 15.7154 -8.88811 0.000106111
548 1 1.57307 14.1516 17.2777 -8.90306 0.000187883
549 1 3.14554 12.5792 15.716 -8.88813 0.00010078
550 1 4.71829 14.1513 17.2789 -8.90316 0.000179928
551 1 6.29047 12.5791 15.7172 -8.88801 0.000100615
552 1 7.86308 14.1509 17.2805 -8.90386 0.000134845
553 1 9.43482 12.5791 15.7179 -8.88693 0.000102975
554 1 11.0068 14.151 17.2802 -8.90394 0.000191975
555 1 12.5792 12.5792 15.717 -8.88803 0.000178629
556 1 14.1516 14.1515 17.2786 -8.90316 0.000313716
557 1 15.7241 12.5793 15.7159 -8.88811 0.000178752
558 1 17.2967 14.1517 17.2776 -8.90306 0.000270841
559 1 18.8692 12.5793 15.7153 -8.8881 0.000133957
560 1 20.4418 14.1517 17.2773 -8.90303 0.00020837
561 1 0.000340476 15.7241 15.7152 -8.88811 9.54218e-05
562 1 1.57292 17.2964 17.2773 -8.90306 0.000169061
563 1 3.14543 15.7239 15.7157 -8.88813 9.06056e-05
564 1 4.718 17.2961 17.2781 -8.90321 0.000164601
565 1 6.2903 15.7237 15.7166 -8.88805 8.98924e-05
566 1 7.86258 17.2959 17.2787 -8.90308 0.000175574
567 1 9.43473 15.7236 15.7169 -8.88801 0.000106298
568 1 11.0069 17.296 17.2787 -8.9031 0.000205828
569 1 12.5792 15.7238 15.7164 -8.88806 0.000135379
570 1 14.1516 17.2963 17.278 -8.90318 0.000226418
571 1 15.7241 15.724 15.7156 -8.88811 0.000141619
572 1 17.2966 17.2965 17.2773 -8.90305 0.000214487
573 1 18.8691 15.7241 15.7151 -8.8881 0.000115014
574 1 20.4417 17.2965 17.277 -8.90303 0.000181365
575 1 0.000260975 18.8689 15.7149 -8.88812 8.35717e-05
576 1 1.57277 20.4414 17.277 -8.90304 0.00015695
577 1 3.14526 18.8688 15.7153 -8.88815 8.11959e-05
578 1 4.7177 20.4413 17.2774 -8.90306 0.000159981
579 1 6.29006 18.8687 15.7157 -8.88811 8.68194e-05
580 1 7.86237 20.4412 17.2778 -8.90303 0.000173625
581 1 9.43466 18.8687 15.7159 -8.88812 9.88802e-05
582 1 11.007 20.4412 17.2778 -8.90304 0.000188472
583 1 12.5793 18.8688 15.7157 -8.88811 0.000108903
584 1 14.1517 20.4413 17.2774 -8.90307 0.000191188
585 1 15.7241 18.8689 15.7152 -8.88813 0.000106881