ITEM: TIMESTEP
221
ITEM: NUMBER OF ATOMS
736
ITEM: BOX BOUNDS pp pp pp
0.0000000000000000e+00 2.2013900999999997e+01
0.0000000000000000e+00 2.2013900999999997e+01
0.0000000000000000e+00 5.3462330999999999e+01
ITEM: ATOMS id type x y z c_pot c_ke
1 1 -0.000695706 -2.99735e-16 0.0976263 -7.40188 1.65761e-07
2 1 1.57168 1.5724 1.62441 -8.68379 1.52328e-07
3 1 3.1441 2.29596e-16 0.097599 -7.40187 1.72075e-07
4 1 4.7165 1.57239 1.62434 -8.68379 1.55518e-07
5 1 6.28893 4.00074e-16 0.0975415 -7.40185 1.76666e-07
6 1 7.86135 1.57239 1.62426 -8.68378 1.56465e-07
7 1 9.43381 6.14622e-16 0.097497 -7.40183 1.76168e-07
8 1 11.0062 1.57239 1.62423 -8.68378 1.54656e-07
9 1 12.5787 1.10434e-15 0.097499 -7.40183 1.70944e-07
10 1 14.1511 1.57239 1.62427 -8.68378 1.51237e-07
11 1 15.7236 5.97304e-16 0.0975459 -7.40185 1.64843e-07
12 1 17.296 1.57239 1.62435 -8.68379 1.48677e-07
13 1 18.8684 -4.19651e-16 0.0976026 -7.40187 1.62508e-07
14 1 20.4408 1.5724 1.62441 -8.68379 1.49169e-07
15 1 -0.000695927 3.14479 0.0976009 -7.40187 1.64818e-07
16 1 1.57168 4.71721 1.62434 -8.68379 1.50506e-07
17 1 3.14409 3.14479 0.0975708 -7.40186 1.71108e-07
18 1 4.71649 4.7172 1.62426 -8.68378 1.53738e-07
19 1 6.28892 3.14478 0.097507 -7.40184 1.75746e-07
20 1 7.86134 4.7172 1.62416 -8.68377 1.54882e-07
21 1 9.43381 3.14477 0.0974574 -7.40182 1.75329e-07
22 1 11.0062 4.71719 1.62412 -8.68377 1.53279e-07
23 1 12.5787 3.14477 0.0974594 -7.40182 1.70161e-07
24 1 14.1511 4.7172 1.62417 -8.68377 1.49918e-07
25 1 15.7236 3.14478 0.0975114 -7.40184 1.64048e-07
26 1 17.296 4.7172 1.62427 -8.68378 1.47225e-07
27 1 18.8684 3.14479 0.0975744 -7.40186 1.61641e-07
28 1 20.4408 4.71721 1.62435 -8.68379 1.47492e-07
29 1 -0.000696423 6.28962 0.0975439 -7.40185 1.62759e-07
30 1 1.57167 7.86207 1.62426 -8.68378 1.48435e-07
31 1 3.14408 6.28962 0.0975076 -7.40184 1.68996e-07
32 1 4.71648 7.86206 1.62416 -8.68377 1.51718e-07
33 1 6.28891 6.28961 0.0974292 -7.40181 1.73738e-07
34 1 7.86134 7.86205 1.62404 -8.68377 1.53109e-07
35 1 9.4338 6.2896 0.0973676 -7.40178 1.73506e-07
36 1 11.0062 7.86205 1.62399 -8.68376 1.51766e-07
37 1 12.5787 6.2896 0.0973695 -7.40178 1.68464e-07
38 1 14.1511 7.86205 1.62404 -8.68377 1.4848e-07
39 1 15.7236 6.28961 0.0974336 -7.40181 1.62323e-07
40 1 17.296 7.86206 1.62417 -8.68377 1.45618e-07
41 1 18.8684 6.28962 0.0975112 -7.40184 1.59755e-07
42 1 20.4408 7.86207 1.62427 -8.68378 1.45603e-07
43 1 -0.00069682 9.4345 0.0974984 -7.40183 1.6117e-07
44 1 1.57167 11.007 1.62423 -8.68378 1.47584e-07
45 1 3.14408 9.4345 0.0974569 -7.40182 1.67364e-07
46 1 4.71648 11.007 1.62412 -8.68377 1.50891e-07
47 1 6.2889 9.43449 0.0973665 -7.40178 1.7219e-07
48 1 7.86133 11.007 1.62398 -8.68376 1.52393e-07
49 1 9.4338 9.43449 0.0972946 -7.40175 1.72106e-07
50 1 11.0062 11.007 1.62393 -8.68376 1.51166e-07
51 1 12.5787 9.43449 0.0972966 -7.40176 1.67165e-07
52 1 14.1511 11.007 1.62399 -8.68376 1.47914e-07
53 1 15.7236 9.43449 0.0973709 -7.40178 1.61001e-07
54 1 17.296 11.007 1.62413 -8.68377 1.44977e-07
55 1 18.8684 9.4345 0.0974605 -7.40182 1.58304e-07
56 1 20.4408 11.007 1.62423 -8.68378 1.44834e-07
57 1 -0.00069682 12.5794 0.0974984 -7.40183 1.6117e-07
58 1 1.57167 14.1518 1.62426 -8.68378 1.48435e-07
59 1 3.14408 12.5794 0.0974569 -7.40182 1.67364e-07
60 1 4.71648 14.1518 1.62416 -8.68377 1.51718e-07
61 1 6.2889 12.5794 0.0973665 -7.40178 1.7219e-07
62 1 7.86134 14.1518 1.62404 -8.68377 1.53109e-07
63 1 9.4338 12.5794 0.0972946 -7.40175 1.72106e-07
64 1 11.0062 14.1519 1.62399 -8.68376 1.51766e-07
65 1 12.5787 12.5794 0.0972966 -7.40176 1.67165e-07
66 1 14.1511 14.1518 1.62404 -8.68377 1.4848e-07
67 1 15.7236 12.5794 0.0973709 -7.40178 1.61001e-07
68 1 17.296 14.1518 1.62417 -8.68377 1.45618e-07
69 1 18.8684 12.5794 0.0974605 -7.40182 1.58304e-07
70 1 20.4408 14.1518 1.62427 -8.68378 1.45603e-07
71 1 -0.000696423 15.7243 0.0975439 -7.40185 1.62759e-07
72 1 1.57168 17.2967 1.62434 -8.68379 1.50506e-07
73 1 3.14408 15.7243 0.0975076 -7.40184 1.68996e-07
74 1 4.71649 17.2967 1.62426 -8.68378 1.53738e-07
75 1 6.28891 15.7243 0.0974292 -7.40181 1.73738e-07
76 1 7.86134 17.2967 1.62416 -8.68377 1.54882e-07
77 1 9.4338 15.7243 0.0973676 -7.40178 1.73506e-07
78 1 11.0062 17.2967 1.62412 -8.68377 1.53279e-07
79 1 12.5787 15.7243 0.0973695 -7.40178 1.68464e-07
80 1 14.1511 17.2967 1.62417 -8.68377 1.49918e-07
81 1 15.7236 15.7243 0.0974336 -7.40181 1.62323e-07
82 1 17.296 17.2967 1.62427 -8.68378 1.47225e-07
83 1 18.8684 15.7243 0.0975112 -7.40184 1.59755e-07
84 1 20.4408 17.2967 1.62435 -8.68379 1.47492e-07
85 1 -0.000695927 18.8691 0.0976009 -7.40187 1.64818e-07
86 1 1.57168 20.4415 1.62441 -8.68379 1.52328e-07
87 1 3.14409 18.8691 0.0975708 -7.40186 1.71108e-07
88 1 4.7165 20.4415 1.62434 -8.68379 1.55518e-07
89 1 6.28892 18.8691 0.097507 -7.40184 1.75746e-07
90 1 7.86135 20.4415 1.62426 -8.68378 1.56465e-07
91 1 9.43381 18.8691 0.0974574 -7.40182 1.75329e-07
92 1 11.0062 20.4415 1.62423 -8.68378 1.54656e-07
93 1 12.5787 18.8691 0.0974594 -7.40182 1.70161e-07
94 1 14.1511 20.4415 1.62427 -8.68378 1.51237e-07
95 1 15.7236 18.8691 0.0975114 -7.40184 1.64048e-07
96 1 17.296 20.4415 1.62435 -8.68379 1.48677e-07
97 1 18.8684 18.8691 0.0975744 -7.40186 1.61641e-07
98 1 20.4408 20.4415 1.62441 -8.68379 1.49169e-07
99 1 -0.000743755 6.13873e-16 3.15454 -8.93805 1.29593e-07
100 1 1.57161 1.5724 4.74382 -8.90301 9.96768e-08
101 1 3.14406 9.52355e-16 3.1545 -8.93805 1.31292e-07
102 1 4.71642 1.57239 4.74373 -8.90301 1.00204e-07
103 1 6.2889 7.17596e-16 3.15441 -8.93806 1.32149e-07
104 1 7.86128 1.57239 4.74363 -8.90301 1.00157e-07
105 1 9.43377 5.25091e-16 3.15435 -8.93807 1.3179e-07
106 1 11.0062 1.57238 4.74359 -8.90301 9.9792e-08
107 1 12.5787 2.92863e-16 3.15435 -8.93807 1.30477e-07
108 1 14.1511 1.57239 4.74364 -8.90301 9.91625e-08
109 1 15.7235 -2.33009e-17 3.15442 -8.93806 1.28932e-07
110 1 17.2959 1.57239 4.74374 -8.90301 9.86203e-08
111 1 18.8684 4.05977e-16 3.1545 -8.93805 1.28444e-07
112 1 20.4407 1.5724 4.74382 -8.90301 9.8849e-08
113 1 -0.000743965 3.14481 3.1545 -8.93805 1.28647e-07
114 1 1.57161 4.71721 4.74374 -8.90301 9.80602e-08
115 1 3.14406 3.1448 3.15445 -8.93806 1.30317e-07
116 1 4.71641 4.7172 4.74363 -8.90301 9.86249e-08
117 1 6.28889 3.14479 3.15436 -8.93807 1.31242e-07
118 1 7.86127 4.71718 4.7435 -8.90301 9.87564e-08
119 1 9.43376 3.14479 3.15428 -8.93808 1.30998e-07
120 1 11.0062 4.71718 4.74344 -8.90301 9.85785e-08
121 1 12.5787 3.14479 3.15428 -8.93808 1.29761e-07
122 1 14.1511 4.71718 4.74351 -8.90301 9.80033e-08
123 1 15.7235 3.14479 3.15436 -8.93807 1.28193e-07
124 1 17.2959 4.7172 4.74364 -8.90301 9.73392e-08
125 1 18.8684 3.1448 3.15446 -8.93806 1.27603e-07
126 1 20.4407 4.71721 4.74374 -8.90301 9.73642e-08
127 1 -0.000744435 6.28964 3.15441 -8.93806 1.26686e-07
128 1 1.5716 7.86206 4.74364 -8.90301 9.62503e-08
129 1 3.14405 6.28963 3.15436 -8.93807 1.2829e-07
130 1 4.7164 7.86205 4.7435 -8.90301 9.68612e-08
131 1 6.28888 6.28962 3.15423 -8.93808 1.29368e-07
132 1 7.86125 7.86204 4.74333 -8.90301 9.72179e-08
133 1 9.43376 6.28962 3.15413 -8.9381 1.29383e-07
134 1 11.0062 7.86203 4.74325 -8.90302 9.7277e-08
135 1 12.5787 6.28962 3.15414 -8.9381 1.28318e-07
136 1 14.1511 7.86204 4.74333 -8.90301 9.6772e-08
137 1 15.7235 6.28962 3.15424 -8.93808 1.26703e-07
138 1 17.2959 7.86205 4.74351 -8.90301 9.59558e-08
139 1 18.8684 6.28963 3.15436 -8.93807 1.25881e-07
140 1 20.4407 7.86206 4.74364 -8.90301 9.57224e-08
141 1 -0.000744809 9.43451 3.15435 -8.93807 1.25279e-07
142 1 1.5716 11.007 4.74359 -8.90301 9.55182e-08
143 1 3.14404 9.43451 3.15428 -8.93808 1.26827e-07
144 1 4.71639 11.007 4.74344 -8.90301 9.61497e-08
145 1 6.28887 9.4345 3.15413 -8.9381 1.28029e-07
146 1 7.86125 11.007 4.74325 -8.90302 9.66079e-08
147 1 9.43375 9.4345 3.15401 -8.93812 1.28255e-07
148 1 11.0062 11.007 4.74316 -8.90302 9.67735e-08
149 1 12.5787 9.4345 3.15401 -8.93812 1.2733e-07
150 1 14.1511 11.007 4.74325 -8.90302 9.63003e-08
151 1 15.7235 9.4345 3.15414 -8.9381 1.25677e-07
152 1 17.2959 11.007 4.74345 -8.90301 9.5416e-08
153 1 18.8684 9.43451 3.15428 -8.93808 1.24667e-07
154 1 20.4407 11.007 4.74359 -8.90301 9.50664e-08
155 1 -0.000744809 12.5794 3.15435 -8.93807 1.25279e-07
156 1 1.5716 14.1518 4.74364 -8.90301 9.62503e-08
157 1 3.14404 12.5794 3.15428 -8.93808 1.26827e-07
158 1 4.7164 14.1518 4.7435 -8.90301 9.68612e-08
159 1 6.28887 12.5794 3.15413 -8.9381 1.28029e-07
160 1 7.86125 14.1519 4.74333 -8.90301 9.72179e-08
161 1 9.43375 12.5794 3.15401 -8.93812 1.28255e-07
162 1 11.0062 14.1519 4.74325 -8.90302 9.7277e-08
163 1 12.5787 12.5794 3.15401 -8.93812 1.2733e-07
164 1 14.1511 14.1519 4.74333 -8.90301 9.6772e-08
165 1 15.7235 12.5794 3.15414 -8.9381 1.25677e-07
166 1 17.2959 14.1518 4.74351 -8.90301 9.59558e-08
167 1 18.8684 12.5794 3.15428 -8.93808 1.24667e-07
168 1 20.4407 14.1518 4.74364 -8.90301 9.57224e-08
169 1 -0.000744435 15.7243 3.15441 -8.93806 1.26686e-07
170 1 1.57161 17.2967 4.74374 -8.90301 9.80602e-08
171 1 3.14405 15.7243 3.15436 -8.93807 1.2829e-07
172 1 4.71641 17.2967 4.74363 -8.90301 9.86249e-08
173 1 6.28888 15.7243 3.15423 -8.93808 1.29368e-07
174 1 7.86127 17.2967 4.7435 -8.90301 9.87564e-08
175 1 9.43376 15.7243 3.15413 -8.9381 1.29383e-07
176 1 11.0062 17.2967 4.74344 -8.90301 9.85785e-08
177 1 12.5787 15.7243 3.15414 -8.9381 1.28318e-07
178 1 14.1511 17.2967 4.74351 -8.90301 9.80033e-08
179 1 15.7235 15.7243 3.15424 -8.93808 1.26703e-07
180 1 17.2959 17.2967 4.74364 -8.90301 9.73392e-08
181 1 18.8684 15.7243 3.15436 -8.93807 1.25881e-07
182 1 20.4407 17.2967 4.74374 -8.90301 9.73642e-08
183 1 -0.000743965 18.8691 3.1545 -8.93805 1.28647e-07
184 1 1.57161 20.4415 4.74382 -8.90301 9.96768e-08
185 1 3.14406 18.8691 3.15445 -8.93806 1.30317e-07
186 1 4.71642 20.4415 4.74373 -8.90301 1.00204e-07
187 1 6.28889 18.8691 3.15436 -8.93807 1.31242e-07
188 1 7.86128 20.4415 4.74363 -8.90301 1.00157e-07
189 1 9.43376 18.8691 3.15428 -8.93808 1.30998e-07
190 1 11.0062 20.4415 4.74359 -8.90301 9.9792e-08
191 1 12.5787 18.8691 3.15428 -8.93808 1.29761e-07
192 1 14.1511 20.4415 4.74364 -8.90301 9.91625e-08
193 1 15.7235 18.8691 3.15436 -8.93807 1.28193e-07
194 1 17.2959 20.4415 4.74374 -8.90301 9.86203e-08
195 1 18.8684 18.8691 3.15446 -8.93806 1.27603e-07
196 1 20.4407 20.4415 4.74382 -8.90301 9.8849e-08
197 1 -0.00084724 7.76845e-16 6.3056 -8.88811 6.33556e-08
198 1 1.57147 1.57238 7.87481 -8.90467 3.34569e-08
199 1 3.14394 8.90555e-16 6.30554 -8.88811 6.40927e-08
200 1 4.71626 1.57237 7.87469 -8.90467 3.38409e-08
201 1 6.28877 6.40259e-16 6.30543 -8.88812 6.43093e-08
202 1 7.86112 1.57235 7.87455 -8.90467 3.37786e-08
203 1 9.43365 2.43127e-16 6.30534 -8.88812 6.41162e-08
204 1 11.006 1.57235 7.87449 -8.90467 3.35556e-08
205 1 12.5786 2.72913e-16 6.30534 -8.88812 6.36673e-08
206 1 14.151 1.57235 7.87456 -8.90467 3.31236e-08
207 1 15.7234 5.46047e-16 6.30543 -8.88812 6.30233e-08
208 1 17.2958 1.57237 7.8747 -8.90467 3.26644e-08
209 1 18.8683 3.9884e-16 6.30555 -8.88811 6.27836e-08
210 1 20.4406 1.57238 7.87481 -8.90467 3.28046e-08
211 1 -0.000847496 3.14479 6.30555 -8.88811 6.25211e-08
212 1 1.57146 4.71717 7.8747 -8.90467 3.21532e-08
213 1 3.14393 3.14478 6.30548 -8.88811 6.32286e-08
214 1 4.71623 4.71714 7.87453 -8.90466 3.25675e-08
215 1 6.28876 3.14476 6.30535 -8.88812 6.35094e-08
216 1 7.86109 4.7171 7.87432 -8.90467 3.26802e-08
217 1 9.43364 3.14474 6.30524 -8.88812 6.3427e-08
218 1 11.006 4.71708 7.87423 -8.90467 3.26482e-08
219 1 12.5786 3.14474 6.30524 -8.88812 6.30526e-08
220 1 14.151 4.7171 7.87433 -8.90467 3.22779e-08
221 1 15.7235 3.14476 6.30535 -8.88812 6.23889e-08
222 1 17.2958 4.71714 7.87454 -8.90466 3.17002e-08
223 1 18.8683 3.14478 6.30549 -8.88811 6.20503e-08
224 1 20.4406 4.71717 7.8747 -8.90467 3.16369e-08
225 1 -0.000848057 6.28962 6.30543 -8.88812 6.08141e-08
226 1 1.57144 7.86203 7.87455 -8.90467 3.07399e-08
227 1 3.14391 6.2896 6.30535 -8.88812 6.14523e-08
228 1 4.71618 7.862 7.87432 -8.90467 3.11911e-08
229 1 6.28873 6.28957 6.30515 -8.88812 6.18776e-08
230 1 7.86105 7.86196 7.87401 -8.90469 3.15259e-08
231 1 9.43363 6.28955 6.30499 -8.88813 6.20467e-08
232 1 11.006 7.86194 7.87386 -8.90471 3.17375e-08
233 1 12.5786 6.28955 6.30499 -8.88813 6.18436e-08
234 1 14.151 7.86196 7.87401 -8.90469 3.14495e-08
235 1 15.7235 6.28957 6.30516 -8.88812 6.11387e-08
236 1 17.2959 7.862 7.87433 -8.90467 3.07257e-08
237 1 18.8683 6.2896 6.30535 -8.88812 6.05767e-08
238 1 20.4406 7.86203 7.87456 -8.90467 3.04006e-08
239 1 -0.000848497 9.4345 6.30534 -8.88812 5.96121e-08
240 1 1.57143 11.007 7.87449 -8.90467 3.01864e-08
241 1 3.14389 9.43449 6.30524 -8.88812 6.01927e-08
242 1 4.71617 11.007 7.87423 -8.90467 3.06543e-08
243 1 6.2887 9.43448 6.30499 -8.88813 6.07358e-08
244 1 7.86103 11.007 7.87386 -8.90471 3.10906e-08
245 1 9.43362 9.43447 6.30478 -8.88815 6.11101e-08
246 1 11.006 11.007 7.87368 -8.90475 3.14122e-08
247 1 12.5786 9.43447 6.30478 -8.88815 6.10469e-08
248 1 14.151 11.007 7.87386 -8.90471 3.11611e-08
249 1 15.7235 9.43448 6.30499 -8.88813 6.03101e-08
250 1 17.2959 11.007 7.87423 -8.90467 3.03717e-08
251 1 18.8683 9.43449 6.30524 -8.88812 5.95666e-08
252 1 20.4406 11.007 7.87449 -8.90467 2.99278e-08
253 1 -0.000848497 12.5794 6.30534 -8.88812 5.96121e-08
254 1 1.57144 14.1519 7.87455 -8.90467 3.07399e-08
255 1 3.14389 12.5794 6.30524 -8.88812 6.01927e-08
256 1 4.71618 14.1519 7.87432 -8.90467 3.11911e-08
257 1 6.2887 12.5794 6.30499 -8.88813 6.07358e-08
258 1 7.86105 14.1519 7.87401 -8.90469 3.15259e-08
259 1 9.43362 12.5794 6.30478 -8.88815 6.11101e-08
260 1 11.006 14.152 7.87386 -8.90471 3.17375e-08
261 1 12.5786 12.5794 6.30478 -8.88815 6.10469e-08
262 1 14.151 14.1519 7.87401 -8.90469 3.14495e-08
263 1 15.7235 12.5794 6.30499 -8.88813 6.03101e-08
264 1 17.2959 14.1519 7.87433 -8.90467 3.07257e-08
265 1 18.8683 12.5794 6.30524 -8.88812 5.95666e-08
266 1 20.4406 14.1519 7.87456 -8.90467 3.04006e-08
267 1 -0.000848057 15.7243 6.30543 -8.88812 6.08141e-08
268 1 1.57146 17.2967 7.8747 -8.90467 3.21532e-08
269 1 3.14391 15.7243 6.30535 -8.88812 6.14523e-08
270 1 4.71623 17.2968 7.87453 -8.90466 3.25675e-08
271 1 6.28873 15.7243 6.30515 -8.88812 6.18776e-08
272 1 7.86109 17.2968 7.87432 -8.90467 3.26802e-08
273 1 9.43363 15.7244 6.30499 -8.88813 6.20467e-08
274 1 11.006 17.2968 7.87423 -8.90467 3.26482e-08
275 1 12.5786 15.7244 6.30499 -8.88813 6.18436e-08
276 1 14.151 17.2968 7.87433 -8.90467 3.22779e-08
277 1 15.7235 15.7243 6.30516 -8.88812 6.11387e-08
278 1 17.2958 17.2968 7.87454 -8.90466 3.17002e-08
279 1 18.8683 15.7243 6.30535 -8.88812 6.05767e-08
280 1 20.4406 17.2967 7.8747 -8.90467 3.16369e-08
281 1 -0.000847496 18.8691 6.30555 -8.88811 6.25211e-08
282 1 1.57147 20.4415 7.87481 -8.90467 3.34569e-08
283 1 3.14393 18.8691 6.30548 -8.88811 6.32286e-08
284 1 4.71626 20.4415 7.87469 -8.90467 3.38409e-08
285 1 6.28876 18.8691 6.30535 -8.88812 6.35094e-08
286 1 7.86112 20.4415 7.87455 -8.90467 3.37786e-08
287 1 9.43364 18.8692 6.30524 -8.88812 6.3427e-08
288 1 11.006 20.4416 7.87449 -8.90467 3.35556e-08
289 1 12.5786 18.8692 6.30524 -8.88812 6.30526e-08
290 1 14.151 20.4415 7.87456 -8.90467 3.31236e-08
291 1 15.7235 18.8691 6.30535 -8.88812 6.23889e-08
292 1 17.2958 20.4415 7.8747 -8.90467 3.26644e-08
293 1 18.8683 18.8691 6.30549 -8.88811 6.20503e-08
294 1 20.4406 20.4415 7.87481 -8.90467 3.28046e-08
295 1 -0.0009868 1.72998e-16 9.44319 -8.89866 1.06178e-08
296 1 1.57131 1.57237 11.0113 -8.9001 9.89242e-10
297 1 3.14378 2.59357e-16 9.44312 -8.89865 1.11532e-08
298 1 4.71608 1.57234 11.0112 -8.90009 9.59918e-10
299 1 6.2886 9.04795e-17 9.44296 -8.89865 1.1142e-08
300 1 7.86094 1.57231 11.011 -8.90009 5.4432e-10
301 1 9.4335 -1.38873e-16 9.44283 -8.89865 1.08905e-08
302 1 11.0059 1.57229 11.0109 -8.90009 3.62381e-10
303 1 12.5784 -2.15199e-16 9.44283 -8.89865 1.06187e-08
304 1 14.1508 1.57231 11.011 -8.90009 3.08785e-10
305 1 15.7233 2.55721e-17 9.44296 -8.89865 1.02188e-08
306 1 17.2957 1.57234 11.0112 -8.90009 2.23633e-10
307 1 18.8682 -6.18112e-17 9.44312 -8.89865 1.01e-08
308 1 20.4405 1.57237 11.0113 -8.9001 5.03988e-10
309 1 -0.000987173 3.14476 9.44312 -8.89865 1.00664e-08
310 1 1.57128 4.71715 11.0112 -8.90009 4.91244e-10
311 1 3.14375 3.14474 9.44303 -8.89865 1.05655e-08
312 1 4.716 4.71707 11.0109 -8.90006 4.83881e-10
313 1 6.28856 3.14469 9.44282 -8.89864 1.06185e-08
314 1 7.86086 4.71696 11.0106 -8.90007 2.65339e-10
315 1 9.43348 3.14465 9.44265 -8.89865 1.0486e-08
316 1 11.0059 4.71692 11.0104 -8.90008 3.22145e-10
317 1 12.5784 3.14465 9.44265 -8.89865 1.03011e-08
318 1 14.1509 4.71696 11.0106 -8.90007 3.69153e-10
319 1 15.7234 3.14469 9.44283 -8.89864 9.88599e-09
320 1 17.2958 4.71707 11.0109 -8.90006 1.5507e-10
321 1 18.8682 3.14474 9.44303 -8.89865 9.66072e-09
322 1 20.4405 4.71715 11.0112 -8.90009 1.8203e-10
323 1 -0.000987964 6.28958 9.44296 -8.89865 9.01513e-09
324 1 1.57124 7.86201 11.011 -8.90009 1.1574e-10
325 1 3.1437 6.28955 9.44282 -8.89864 9.42525e-09
326 1 4.71589 7.86193 11.0106 -8.90007 1.29095e-10
327 1 6.28849 6.28947 9.44248 -8.89864 9.62098e-09
328 1 7.86074 7.8618 11.0099 -8.90011 1.63424e-10
329 1 9.43344 6.28941 9.44218 -8.89865 9.76214e-09
330 1 11.0059 7.86175 11.0096 -8.90015 5.29072e-10
331 1 12.5785 6.28941 9.44218 -8.89865 9.77961e-09
332 1 14.151 7.8618 11.0099 -8.90011 7.06806e-10
333 1 15.7234 6.28947 9.44248 -8.89864 9.3352e-09
334 1 17.2959 7.86193 11.0106 -8.90007 3.34481e-10
335 1 18.8682 6.28955 9.44283 -8.89864 8.87101e-09
336 1 20.4405 7.86201 11.011 -8.90009 3.84227e-11
337 1 -0.000988561 9.43448 9.44283 -8.89865 8.35628e-09
338 1 1.57123 11.007 11.0109 -8.90009 3.59839e-11
339 1 3.14367 9.43447 9.44265 -8.89865 8.69082e-09
340 1 4.71585 11.007 11.0104 -8.90008 5.73717e-11
341 1 6.28842 9.43443 9.44217 -8.89865 9.00461e-09
342 1 7.86069 11.007 11.0096 -8.90015 2.07954e-10
343 1 9.4334 9.43439 9.44172 -8.89872 9.37213e-09
344 1 11.0059 11.007 11.0091 -8.90037 7.13004e-10
345 1 12.5785 9.43439 9.44172 -8.89872 9.55449e-09
346 1 14.1511 11.007 11.0096 -8.90015 9.46109e-10
347 1 15.7235 9.43443 9.44218 -8.89865 9.08884e-09
348 1 17.2959 11.007 11.0104 -8.90008 5.05015e-10
349 1 18.8683 9.43447 9.44265 -8.89865 8.42932e-09
350 1 20.4405 11.007 11.0109 -8.90009 6.46856e-11
351 1 -0.000988561 12.5794 9.44283 -8.89865 8.35628e-09
352 1 1.57124 14.1519 11.011 -8.90009 1.1574e-10
353 1 3.14367 12.5794 9.44265 -8.89865 8.69082e-09
354 1 4.71589 14.152 11.0106 -8.90007 1.29095e-10
355 1 6.28842 12.5795 9.44217 -8.89865 9.00461e-09
356 1 7.86074 14.1521 11.0099 -8.90011 1.63424e-10
357 1 9.4334 12.5795 9.44172 -8.89872 9.37213e-09
358 1 11.0059 14.1521 11.0096 -8.90015 5.29072e-10
359 1 12.5785 12.5795 9.44172 -8.89872 9.55449e-09
360 1 14.151 14.1521 11.0099 -8.90011 7.06806e-10
361 1 15.7235 12.5795 9.44218 -8.89865 9.08884e-09
362 1 17.2959 14.152 11.0106 -8.90007 3.34481e-10
363 1 18.8683 12.5794 9.44265 -8.89865 8.42932e-09
364 1 20.4405 14.1519 11.011 -8.90009 3.84227e-11
365 1 -0.000987964 15.7243 9.44296 -8.89865 9.01513e-09
366 1 1.57128 17.2968 11.0112 -8.90009 4.91244e-10
367 1 3.1437 15.7243 9.44282 -8.89864 9.42525e-09
368 1 4.716 17.2968 11.0109 -8.90006 4.83881e-10
369 1 6.28849 15.7244 9.44248 -8.89864 9.62098e-09
370 1 7.86086 17.2969 11.0106 -8.90007 2.65339e-10
371 1 9.43344 15.7245 9.44218 -8.89865 9.76214e-09
372 1 11.0059 17.297 11.0104 -8.90008 3.22145e-10
373 1 12.5785 15.7245 9.44218 -8.89865 9.77961e-09
374 1 14.1509 17.2969 11.0106 -8.90007 3.69153e-10
375 1 15.7234 15.7244 9.44248 -8.89864 9.3352e-09
376 1 17.2958 17.2968 11.0109 -8.90006 1.5507e-10
377 1 18.8682 15.7243 9.44283 -8.89864 8.87101e-09
378 1 20.4405 17.2968 11.0112 -8.90009 1.8203e-10
379 1 -0.000987173 18.8691 9.44312 -8.89865 1.00664e-08
380 1 1.57131 20.4415 11.0113 -8.9001 9.89242e-10
381 1 3.14375 18.8692 9.44303 -8.89865 1.05655e-08
382 1 4.71608 20.4416 11.0112 -8.90009 9.59918e-10
383 1 6.28856 18.8692 9.44282 -8.89864 1.06185e-08
384 1 7.86094 20.4416 11.011 -8.90009 5.4432e-10
385 1 9.43348 18.8692 9.44265 -8.89865 1.0486e-08
386 1 11.0059 20.4416 11.0109 -8.90009 3.62381e-10
387 1 12.5784 18.8692 9.44265 -8.89865 1.03011e-08
388 1 14.1508 20.4416 11.011 -8.90009 3.08785e-10
389 1 15.7234 18.8692 9.44283 -8.89864 9.88599e-09
390 1 17.2957 20.4416 11.0112 -8.90009 2.23633e-10
391 1 18.8682 18.8692 9.44303 -8.89865 9.66072e-09
392 1 20.4405 20.4415 11.0113 -8.9001 5.03988e-10
393 1 -0.00114204 -3.38283e-17 12.5796 -8.89868 5.77004e-09
394 1 3.14364 -4.32245e-16 12.5795 -8.89867 5.70084e-09
395 1 6.28845 -5.98259e-17 12.5793 -8.89867 4.90294e-09
396 1 9.43334 1.94691e-16 12.5791 -8.89868 4.3546e-09
397 1 12.5783 -2.51267e-16 12.5791 -8.89868 4.55346e-09
398 1 15.7232 4.21669e-16 12.5793 -8.89867 4.93599e-09
399 1 18.868 3.87407e-16 12.5795 -8.89867 5.31437e-09
400 1 22.0128 3.14478 12.5795 -8.89867 5.90107e-09
401 1 3.1436 3.14474 12.5794 -8.89866 5.77727e-09
402 1 6.28838 3.14464 12.5791 -8.89864 5.05427e-09
403 1 9.43331 3.14455 12.5788 -8.89865 4.65531e-09
404 1 12.5783 3.14455 12.5788 -8.89865 4.98441e-09
405 1 15.7232 3.14464 12.5791 -8.89864 5.36908e-09
406 1 18.868 3.14474 12.5794 -8.89866 5.60564e-09
407 1 22.0128 6.28959 12.5793 -8.89867 6.41604e-09
408 1 3.14349 6.28952 12.5791 -8.89864 6.15898e-09
409 1 6.28819 6.28933 12.5785 -8.89854 5.60905e-09
410 1 9.4332 6.28917 12.5779 -8.8986 5.55679e-09
411 1 12.5784 6.28918 12.5779 -8.8986 6.19282e-09
412 1 15.7234 6.28933 12.5785 -8.89854 6.59198e-09
413 1 18.8681 6.28952 12.5791 -8.89864 6.49322e-09
414 1 22.0128 9.43448 12.5791 -8.89868 7.04863e-09
415 1 3.14341 9.43445 12.5788 -8.89865 6.67125e-09
416 1 6.28803 9.43434 12.5779 -8.8986 6.24952e-09
417 1 9.43307 9.43421 12.5768 -8.89878 6.49127e-09
418 1 12.5785 9.43421 12.5768 -8.89878 7.36274e-09
419 1 15.7236 9.43434 12.5779 -8.8986 7.77176e-09
420 1 18.8682 9.43445 12.5788 -8.89865 7.42499e-09
421 1 22.0128 12.5794 12.5791 -8.89868 7.04863e-09
422 1 3.14341 12.5795 12.5788 -8.89865 6.67125e-09
423 1 6.28803 12.5796 12.5779 -8.8986 6.24952e-09
424 1 9.43307 12.5797 12.5768 -8.89878 6.49127e-09
425 1 12.5785 12.5797 12.5768 -8.89878 7.36274e-09
426 1 15.7236 12.5796 12.5779 -8.8986 7.77176e-09
427 1 18.8682 12.5795 12.5788 -8.89865 7.42499e-09
428 1 22.0128 15.7243 12.5793 -8.89867 6.41604e-09
429 1 3.14349 15.7244 12.5791 -8.89864 6.15898e-09
430 1 6.28819 15.7246 12.5785 -8.89854 5.60905e-09
431 1 9.4332 15.7247 12.5779 -8.8986 5.55679e-09
432 1 12.5784 15.7247 12.5779 -8.8986 6.19282e-09
433 1 15.7234 15.7246 12.5785 -8.89854 6.59198e-09
434 1 18.8681 15.7244 12.5791 -8.89864 6.49322e-09
435 1 22.0128 18.8691 12.5795 -8.89867 5.90107e-09
436 1 3.1436 18.8692 12.5794 -8.89866 5.77727e-09
437 1 6.28838 18.8693 12.5791 -8.89864 5.05427e-09
438 1 9.43331 18.8693 12.5788 -8.89865 4.65531e-09
439 1 12.5783 18.8693 12.5788 -8.89865 4.98441e-09
440 1 15.7232 18.8693 12.5791 -8.89864 5.36908e-09
441 1 18.868 18.8692 12.5794 -8.89866 5.60564e-09
442 1 1.5712 1.57241 14.1479 -8.9047 2.52201e-08
443 1 4.716 1.57237 14.1478 -8.90468 2.42023e-08
444 1 7.86083 1.5723 14.1475 -8.9047 2.29902e-08
445 1 11.0057 1.57227 14.1474 -8.9047 2.29818e-08
446 1 14.1506 1.5723 14.1475 -8.9047 2.38974e-08
447 1 17.2955 1.57237 14.1478 -8.90468 2.47036e-08
448 1 20.4403 1.57242 14.1479 -8.9047 2.52176e-08
449 1 1.57115 4.71722 14.1478 -8.90468 2.64509e-08
450 1 4.71587 4.71708 14.1475 -8.90465 2.54829e-08
451 1 7.86066 4.71685 14.1469 -8.90465 2.45326e-08
452 1 11.0057 4.71676 14.1466 -8.90466 2.4868e-08
453 1 14.1508 4.71685 14.1469 -8.90465 2.59972e-08
454 1 17.2956 4.71708 14.1475 -8.90465 2.66401e-08
455 1 20.4403 4.71722 14.1478 -8.90468 2.6721e-08
456 1 1.57108 7.86204 14.1475 -8.9047 2.82812e-08
457 1 4.71563 7.86188 14.1469 -8.90465 2.73438e-08
458 1 7.86028 7.8615 14.1455 -8.9044 2.67712e-08
459 1 11.0057 7.86138 14.1447 -8.90466 2.75485e-08
460 1 14.1512 7.8615 14.1455 -8.9044 2.89765e-08
461 1 17.2958 7.86188 14.1469 -8.90465 2.93401e-08
462 1 20.4404 7.86204 14.1475 -8.9047 2.89062e-08
463 1 1.57105 11.007 14.1474 -8.9047 2.91996e-08
464 1 4.71554 11.007 14.1466 -8.90466 2.82576e-08
465 1 7.86016 11.007 14.1447 -8.90466 2.78204e-08
466 1 11.0057 11.007 14.1432 -8.90674 2.87931e-08
467 1 14.1513 11.007 14.1447 -8.90466 3.03251e-08
468 1 17.2959 11.007 14.1466 -8.90466 3.06259e-08
469 1 20.4404 11.007 14.1474 -8.9047 2.99852e-08
470 1 1.57108 14.1519 14.1475 -8.9047 2.82812e-08
471 1 4.71563 14.152 14.1469 -8.90465 2.73438e-08
472 1 7.86028 14.1524 14.1455 -8.9044 2.67712e-08
473 1 11.0057 14.1525 14.1447 -8.90466 2.75485e-08
474 1 14.1512 14.1524 14.1455 -8.9044 2.89765e-08
475 1 17.2958 14.152 14.1469 -8.90465 2.93401e-08
476 1 20.4404 14.1519 14.1475 -8.9047 2.89062e-08
477 1 1.57115 17.2967 14.1478 -8.90468 2.64509e-08
478 1 4.71587 17.2968 14.1475 -8.90465 2.54829e-08
479 1 7.86066 17.297 14.1469 -8.90465 2.45326e-08
480 1 11.0057 17.2971 14.1466 -8.90466 2.4868e-08
481 1 14.1508 17.297 14.1469 -8.90465 2.59972e-08
482 1 17.2956 17.2968 14.1475 -8.90465 2.66401e-08
483 1 20.4403 17.2967 14.1478 -8.90468 2.6721e-08
484 1 1.5712 20.4415 14.1479 -8.9047 2.52201e-08
485 1 4.716 20.4415 14.1478 -8.90468 2.42023e-08
486 1 7.86083 20.4416 14.1475 -8.9047 2.29902e-08
487 1 11.0057 20.4416 14.1474 -8.9047 2.29818e-08
488 1 14.1506 20.4416 14.1475 -8.9047 2.38974e-08
489 1 17.2955 20.4415 14.1478 -8.90468 2.47036e-08
490 1 20.4403 20.4415 14.1479 -8.9047 2.52176e-08
491 1 22.0126 -1.48428e-16 15.7172 -8.88818 5.43242e-08
492 1 1.57121 1.57255 17.279 -8.90297 9.28121e-08
493 1 3.14364 -4.26555e-16 15.7172 -8.88819 5.37517e-08
494 1 4.7162 1.5726 17.279 -8.90303 9.16496e-08
495 1 6.28846 -3.73712e-16 15.7171 -8.88817 5.21564e-08
496 1 7.86092 1.57254 17.2788 -8.9031 9.00621e-08
497 1 9.43326 -1.49668e-16 15.7169 -8.8882 5.12366e-08
498 1 11.0056 1.5725 17.2787 -8.90309 8.99554e-08
499 1 12.5781 1.60604e-16 15.7169 -8.8882 5.19069e-08
500 1 14.1503 1.57254 17.2788 -8.9031 9.11241e-08
501 1 15.7229 8.3058e-16 15.7171 -8.88817 5.30491e-08
502 1 17.295 1.5726 17.279 -8.90302 9.20347e-08
503 1 18.8677 2.55347e-16 15.7172 -8.88819 5.38534e-08
504 1 20.44 1.57255 17.279 -8.90297 9.2655e-08
505 1 22.0126 3.14492 15.7172 -8.88819 5.56573e-08
506 1 1.57125 4.71755 17.279 -8.90302 9.6694e-08
507 1 3.14362 3.14491 15.7171 -8.88818 5.50178e-08
508 1 4.7163 4.71764 17.2789 -8.90324 9.57229e-08
509 1 6.28839 3.14478 15.7169 -8.88809 5.35879e-08
510 1 7.86076 4.71722 17.2782 -8.90292 9.47986e-08
511 1 9.43321 3.14464 15.7165 -8.88817 5.28823e-08
512 1 11.0056 4.71706 17.2777 -8.90284 9.5176e-08
513 1 12.5781 3.14464 15.7165 -8.88817 5.37623e-08
514 1 14.1504 4.71722 17.2782 -8.90292 9.67582e-08
515 1 15.7229 3.14478 15.7169 -8.88809 5.49241e-08
516 1 17.2949 4.71764 17.2789 -8.90324 9.70231e-08
517 1 18.8677 3.14491 15.7171 -8.88818 5.54369e-08
518 1 20.44 4.71755 17.279 -8.90302 9.69159e-08
519 1 22.0126 6.28974 15.7171 -8.88817 5.90218e-08
520 1 1.57119 7.86227 17.2788 -8.9031 1.02065e-07
521 1 3.1435 6.28967 15.7169 -8.88809 5.82563e-08
522 1 4.71587 7.86211 17.2782 -8.90292 1.01522e-07
523 1 6.28807 6.28936 15.7161 -8.8877 5.72574e-08
524 1 7.8597 7.86105 17.2759 -8.90267 1.01467e-07
525 1 9.43299 6.28897 15.7149 -8.88787 5.70257e-08
526 1 11.0056 7.86102 17.2737 -8.90497 1.02595e-07
527 1 12.5783 6.28897 15.7149 -8.88787 5.84366e-08
528 1 14.1515 7.86105 17.2759 -8.90267 1.04998e-07
529 1 15.7233 6.28936 15.7161 -8.8877 5.9766e-08
530 1 17.2953 7.86211 17.2782 -8.90292 1.04242e-07
531 1 18.8678 6.28967 15.7169 -8.88809 5.94733e-08
532 1 20.44 7.86227 17.2788 -8.9031 1.02827e-07
533 1 22.0126 9.43454 15.7169 -8.8882 6.20122e-08
534 1 1.57115 11.007 17.2787 -8.90309 1.046e-07
535 1 3.14335 9.4345 15.7165 -8.88817 6.11014e-08
536 1 4.71571 11.007 17.2777 -8.90284 1.0415e-07
537 1 6.28768 9.43427 15.7149 -8.88787 6.03304e-08
538 1 7.85967 11.007 17.2737 -8.90497 1.04348e-07
539 1 9.4324 9.43369 15.7118 -8.88714 6.05732e-08
540 1 11.0056 11.007 17.2662 -8.91709 1.06306e-07
541 1 12.5789 9.43369 15.7118 -8.88714 6.23384e-08
542 1 14.1515 11.007 17.2737 -8.90497 1.08232e-07
543 1 15.7236 9.43427 15.7149 -8.88788 6.36949e-08
544 1 17.2955 11.007 17.2777 -8.90284 1.07467e-07
545 1 18.868 9.4345 15.7165 -8.88817 6.29736e-08
546 1 20.44 11.007 17.2787 -8.90309 1.05611e-07
547 1 22.0126 12.5794 15.7169 -8.8882 6.20122e-08
548 1 1.57119 14.1516 17.2788 -8.9031 1.02065e-07
549 1 3.14335 12.5794 15.7165 -8.88817 6.11014e-08
550 1 4.71587 14.1518 17.2782 -8.90292 1.01522e-07
551 1 6.28768 12.5796 15.7149 -8.88787 6.03304e-08
552 1 7.8597 14.1529 17.2759 -8.90267 1.01467e-07
553 1 9.4324 12.5802 15.7118 -8.88714 6.05732e-08
554 1 11.0056 14.1529 17.2737 -8.90497 1.02595e-07
555 1 12.5789 12.5802 15.7118 -8.88714 6.23384e-08
556 1 14.1515 14.1529 17.2759 -8.90267 1.04998e-07
557 1 15.7236 12.5796 15.7149 -8.88788 6.36949e-08
558 1 17.2953 14.1518 17.2782 -8.90292 1.04242e-07
559 1 18.868 12.5794 15.7165 -8.88817 6.29736e-08
560 1 20.44 14.1516 17.2788 -8.9031 1.02827e-07
561 1 22.0126 15.7242 15.7171 -8.88817 5.90218e-08
562 1 1.57125 17.2964 17.279 -8.90302 9.6694e-08
563 1 3.1435 15.7242 15.7169 -8.88809 5.82563e-08
564 1 4.7163 17.2963 17.2789 -8.90324 9.57229e-08
565 1 6.28807 15.7245 15.7161 -8.8877 5.72574e-08
566 1 7.86076 17.2967 17.2782 -8.90292 9.47986e-08
567 1 9.43299 15.7249 15.7149 -8.88787 5.70257e-08
568 1 11.0056 17.2968 17.2777 -8.90284 9.5176e-08
569 1 12.5783 15.7249 15.7149 -8.88787 5.84366e-08
570 1 14.1504 17.2967 17.2782 -8.90292 9.67582e-08
571 1 15.7233 15.7245 15.7161 -8.8877 5.9766e-08
572 1 17.2949 17.2963 17.2789 -8.90324 9.70231e-08
573 1 18.8678 15.7242 15.7169 -8.88809 5.94733e-08
574 1 20.44 17.2964 17.279 -8.90302 9.69159e-08
575 1 22.0126 18.869 15.7172 -8.88819 5.56573e-08
576 1 1.57121 20.4413 17.279 -8.90297 9.28121e-08
577 1 3.14362 18.869 15.7171 -8.88818 5.50178e-08
578 1 4.7162 20.4413 17.279 -8.90303 9.16496e-08
579 1 6.28839 18.8691 15.7169 -8.88809 5.35879e-08
580 1 7.86092 20.4414 17.2788 -8.9031 9.00621e-08
581 1 9.43321 18.8693 15.7165 -8.88817 5.28823e-08
582 1 11.0056 20.4414 17.2787 -8.90309 8.99554e-08
583 1 12.5781 18.8693 15.7165 -8.88817 5.37623e-08