ITEM: TIMESTEP
381
ITEM: NUMBER OF ATOMS
736
ITEM: BOX BOUNDS pp pp pp
0.0000000000000000e+00 2.2013900999999997e+01
0.0000000000000000e+00 2.2013900999999997e+01
0.0000000000000000e+00 5.3462330999999999e+01
ITEM: ATOMS id type x y z c_pot c_ke
1 1 -0.00100551 -5.08712e-16 0.097635 -7.40188 4.04957e-09
2 1 1.57139 1.5724 1.62442 -8.68379 3.60882e-09
3 1 3.14378 -1.2326e-15 0.0976085 -7.40187 4.05306e-09
4 1 4.7162 1.57239 1.62435 -8.68379 3.61146e-09
5 1 6.28861 -1.22534e-15 0.0975491 -7.40185 4.05747e-09
6 1 7.86106 1.57239 1.62427 -8.68378 3.61379e-09
7 1 9.43349 -1.03676e-15 0.0975016 -7.40183 4.05948e-09
8 1 11.0059 1.57239 1.62423 -8.68378 3.61407e-09
9 1 12.5784 -6.93145e-16 0.0975016 -7.40183 4.05759e-09
10 1 14.1508 1.57239 1.62427 -8.68378 3.61209e-09
11 1 15.7233 -6.93053e-16 0.0975492 -7.40185 4.05322e-09
12 1 17.2957 1.57239 1.62435 -8.68379 3.60934e-09
13 1 18.8681 -1.69855e-16 0.0976086 -7.40187 4.04965e-09
14 1 20.4405 1.5724 1.62442 -8.68379 3.60788e-09
15 1 -0.0010055 3.14479 0.0976086 -7.40187 4.04995e-09
16 1 1.57139 4.71721 1.62435 -8.68379 3.60953e-09
17 1 3.14378 3.14479 0.0975793 -7.40186 4.05339e-09
18 1 4.71619 4.7172 1.62427 -8.68378 3.61206e-09
19 1 6.28861 3.14478 0.0975136 -7.40184 4.05769e-09
20 1 7.86105 4.71719 1.62417 -8.68377 3.61423e-09
21 1 9.43349 3.14477 0.0974609 -7.40182 4.0596e-09
22 1 11.0059 4.71719 1.62412 -8.68377 3.61443e-09
23 1 12.5784 3.14477 0.0974609 -7.40182 4.05771e-09
24 1 14.1508 4.71719 1.62417 -8.68377 3.61253e-09
25 1 15.7233 3.14478 0.0975136 -7.40184 4.05344e-09
26 1 17.2957 4.7172 1.62427 -8.68378 3.60994e-09
27 1 18.8681 3.14479 0.0975793 -7.40186 4.04998e-09
28 1 20.4405 4.71721 1.62435 -8.68379 3.60859e-09
29 1 -0.00100549 6.28962 0.0975492 -7.40185 4.05083e-09
30 1 1.57138 7.86206 1.62427 -8.68378 3.61046e-09
31 1 3.14377 6.28962 0.0975136 -7.40184 4.05415e-09
32 1 4.71619 7.86206 1.62417 -8.68377 3.61284e-09
33 1 6.2886 6.28961 0.0974333 -7.40181 4.05818e-09
34 1 7.86104 7.86205 1.62404 -8.68377 3.61482e-09
35 1 9.43349 6.2896 0.0973686 -7.40178 4.05986e-09
36 1 11.0059 7.86205 1.62398 -8.68376 3.61493e-09
37 1 12.5784 6.2896 0.0973686 -7.40178 4.05797e-09
38 1 14.1508 7.86205 1.62404 -8.68377 3.61313e-09
39 1 15.7233 6.28961 0.0974333 -7.40181 4.05393e-09
40 1 17.2957 7.86206 1.62417 -8.68377 3.61073e-09
41 1 18.8681 6.28962 0.0975136 -7.40184 4.05075e-09
42 1 20.4405 7.86206 1.62427 -8.68378 3.60952e-09
43 1 -0.00100549 9.4345 0.0975016 -7.40183 4.05154e-09
44 1 1.57138 11.007 1.62423 -8.68378 3.61088e-09
45 1 3.14377 9.4345 0.0974609 -7.40182 4.05478e-09
46 1 4.71618 11.007 1.62412 -8.68377 3.6132e-09
47 1 6.28859 9.43449 0.0973686 -7.40178 4.05859e-09
48 1 7.86104 11.007 1.62398 -8.68376 3.61509e-09
49 1 9.43348 9.43449 0.0972937 -7.40175 4.06008e-09
50 1 11.0059 11.007 1.62392 -8.68376 3.61516e-09
51 1 12.5784 9.43449 0.0972937 -7.40175 4.05819e-09
52 1 14.1508 11.007 1.62398 -8.68376 3.6134e-09
53 1 15.7233 9.43449 0.0973686 -7.40178 4.05435e-09
54 1 17.2957 11.007 1.62412 -8.68377 3.61109e-09
55 1 18.8681 9.4345 0.0974609 -7.40182 4.05137e-09
56 1 20.4405 11.007 1.62423 -8.68378 3.60994e-09
57 1 -0.00100549 12.5794 0.0975016 -7.40183 4.05154e-09
58 1 1.57138 14.1518 1.62427 -8.68378 3.61046e-09
59 1 3.14377 12.5794 0.0974609 -7.40182 4.05478e-09
60 1 4.71619 14.1518 1.62417 -8.68377 3.61284e-09
61 1 6.28859 12.5794 0.0973686 -7.40178 4.05859e-09
62 1 7.86104 14.1519 1.62404 -8.68377 3.61482e-09
63 1 9.43348 12.5794 0.0972937 -7.40175 4.06008e-09
64 1 11.0059 14.1519 1.62398 -8.68376 3.61493e-09
65 1 12.5784 12.5794 0.0972937 -7.40175 4.05819e-09
66 1 14.1508 14.1519 1.62404 -8.68377 3.61313e-09
67 1 15.7233 12.5794 0.0973686 -7.40178 4.05435e-09
68 1 17.2957 14.1518 1.62417 -8.68377 3.61073e-09
69 1 18.8681 12.5794 0.0974609 -7.40182 4.05137e-09
70 1 20.4405 14.1518 1.62427 -8.68378 3.60952e-09
71 1 -0.00100549 15.7243 0.0975492 -7.40185 4.05083e-09
72 1 1.57139 17.2967 1.62435 -8.68379 3.60953e-09
73 1 3.14377 15.7243 0.0975136 -7.40184 4.05415e-09
74 1 4.71619 17.2967 1.62427 -8.68378 3.61206e-09
75 1 6.2886 15.7243 0.0974333 -7.40181 4.05818e-09
76 1 7.86105 17.2967 1.62417 -8.68377 3.61423e-09
77 1 9.43349 15.7243 0.0973686 -7.40178 4.05986e-09
78 1 11.0059 17.2967 1.62412 -8.68377 3.61443e-09
79 1 12.5784 15.7243 0.0973686 -7.40178 4.05797e-09
80 1 14.1508 17.2967 1.62417 -8.68377 3.61253e-09
81 1 15.7233 15.7243 0.0974333 -7.40181 4.05393e-09
82 1 17.2957 17.2967 1.62427 -8.68378 3.60994e-09
83 1 18.8681 15.7243 0.0975136 -7.40184 4.05075e-09
84 1 20.4405 17.2967 1.62435 -8.68379 3.60859e-09
85 1 -0.0010055 18.8691 0.0976086 -7.40187 4.04995e-09
86 1 1.57139 20.4415 1.62442 -8.68379 3.60882e-09
87 1 3.14378 18.8691 0.0975793 -7.40186 4.05339e-09
88 1 4.7162 20.4415 1.62435 -8.68379 3.61146e-09
89 1 6.28861 18.8691 0.0975136 -7.40184 4.05769e-09
90 1 7.86106 20.4415 1.62427 -8.68378 3.61379e-09
91 1 9.43349 18.8691 0.0974609 -7.40182 4.0596e-09
92 1 11.0059 20.4415 1.62423 -8.68378 3.61407e-09
93 1 12.5784 18.8691 0.0974609 -7.40182 4.05771e-09
94 1 14.1508 20.4415 1.62427 -8.68378 3.61209e-09
95 1 15.7233 18.8691 0.0975136 -7.40184 4.05344e-09
96 1 17.2957 20.4415 1.62435 -8.68379 3.60934e-09
97 1 18.8681 18.8691 0.0975793 -7.40186 4.04998e-09
98 1 20.4405 20.4415 1.62442 -8.68379 3.60788e-09
99 1 -0.0010139 -6.11446e-16 3.15455 -8.93805 3.03886e-09
100 1 1.57138 1.5724 4.74383 -8.90301 2.26927e-09
101 1 3.14379 -1.23593e-15 3.15451 -8.93805 3.0399e-09
102 1 4.71619 1.57239 4.74374 -8.90301 2.2703e-09
103 1 6.28862 -1.30357e-15 3.15442 -8.93806 3.04163e-09
104 1 7.86104 1.57239 4.74364 -8.90301 2.27156e-09
105 1 9.43349 -1.15286e-15 3.15435 -8.93807 3.04275e-09
106 1 11.0059 1.57238 4.74359 -8.90301 2.27211e-09
107 1 12.5784 -1.09908e-15 3.15435 -8.93807 3.04243e-09
108 1 14.1508 1.57239 4.74364 -8.90301 2.27153e-09
109 1 15.7232 -1.10647e-15 3.15442 -8.93806 3.0409e-09
110 1 17.2957 1.57239 4.74374 -8.90301 2.27026e-09
111 1 18.8681 -1.22817e-15 3.15451 -8.93805 3.0393e-09
112 1 20.4405 1.5724 4.74383 -8.90301 2.26926e-09
113 1 -0.0010139 3.14481 3.15451 -8.93805 3.03929e-09
114 1 1.57137 4.71721 4.74374 -8.90301 2.27009e-09
115 1 3.14379 3.1448 3.15446 -8.93806 3.0403e-09
116 1 4.71618 4.7172 4.74364 -8.90301 2.27106e-09
117 1 6.28862 3.14479 3.15436 -8.93807 3.04198e-09
118 1 7.86103 4.71718 4.7435 -8.90301 2.27225e-09
119 1 9.43349 3.14479 3.15428 -8.93808 3.04306e-09
120 1 11.0059 4.71718 4.74344 -8.90301 2.27277e-09
121 1 12.5784 3.14479 3.15428 -8.93808 3.04274e-09
122 1 14.1508 4.71718 4.7435 -8.90301 2.27223e-09
123 1 15.7233 3.14479 3.15436 -8.93807 3.04125e-09
124 1 17.2957 4.7172 4.74364 -8.90301 2.27103e-09
125 1 18.8681 3.1448 3.15446 -8.93806 3.03971e-09
126 1 20.4405 4.71721 4.74374 -8.90301 2.27008e-09
127 1 -0.00101389 6.28964 3.15442 -8.93806 3.0403e-09
128 1 1.57137 7.86206 4.74364 -8.90301 2.27123e-09
129 1 3.14378 6.28963 3.15436 -8.93807 3.04127e-09
130 1 4.71616 7.86205 4.7435 -8.90301 2.27216e-09
131 1 6.28861 6.28962 3.15424 -8.93808 3.04285e-09
132 1 7.86102 7.86204 4.74333 -8.90301 2.27327e-09
133 1 9.43349 6.28962 3.15413 -8.9381 3.04382e-09
134 1 11.0059 7.86203 4.74325 -8.90302 2.27374e-09
135 1 12.5784 6.28962 3.15413 -8.9381 3.0435e-09
136 1 14.1508 7.86204 4.74333 -8.90301 2.27326e-09
137 1 15.7233 6.28962 3.15424 -8.93808 3.04212e-09
138 1 17.2957 7.86205 4.7435 -8.90301 2.27213e-09
139 1 18.8681 6.28963 3.15436 -8.93807 3.04069e-09
140 1 20.4405 7.86206 4.74364 -8.90301 2.27122e-09
141 1 -0.00101388 9.43451 3.15435 -8.93807 3.04117e-09
142 1 1.57136 11.007 4.74359 -8.90301 2.27177e-09
143 1 3.14377 9.43451 3.15428 -8.93808 3.04211e-09
144 1 4.71616 11.007 4.74344 -8.90301 2.2727e-09
145 1 6.2886 9.4345 3.15413 -8.9381 3.04361e-09
146 1 7.86101 11.007 4.74325 -8.90302 2.27379e-09
147 1 9.43348 9.4345 3.15401 -8.93812 3.0445e-09
148 1 11.0059 11.007 4.74316 -8.90302 2.27423e-09
149 1 12.5784 9.4345 3.15401 -8.93812 3.04418e-09
150 1 14.1508 11.007 4.74325 -8.90302 2.27378e-09
151 1 15.7233 9.4345 3.15413 -8.9381 3.04289e-09
152 1 17.2957 11.007 4.74344 -8.90301 2.27267e-09
153 1 18.8681 9.43451 3.15428 -8.93808 3.04153e-09
154 1 20.4405 11.007 4.74359 -8.90301 2.27176e-09
155 1 -0.00101388 12.5794 3.15435 -8.93807 3.04117e-09
156 1 1.57137 14.1518 4.74364 -8.90301 2.27123e-09
157 1 3.14377 12.5794 3.15428 -8.93808 3.04211e-09
158 1 4.71616 14.1518 4.7435 -8.90301 2.27216e-09
159 1 6.2886 12.5794 3.15413 -8.9381 3.04361e-09
160 1 7.86102 14.1519 4.74333 -8.90301 2.27327e-09
161 1 9.43348 12.5794 3.15401 -8.93812 3.0445e-09
162 1 11.0059 14.1519 4.74325 -8.90302 2.27374e-09
163 1 12.5784 12.5794 3.15401 -8.93812 3.04418e-09
164 1 14.1508 14.1519 4.74333 -8.90301 2.27326e-09
165 1 15.7233 12.5794 3.15413 -8.9381 3.04289e-09
166 1 17.2957 14.1518 4.7435 -8.90301 2.27213e-09
167 1 18.8681 12.5794 3.15428 -8.93808 3.04153e-09
168 1 20.4405 14.1518 4.74364 -8.90301 2.27122e-09
169 1 -0.00101389 15.7243 3.15442 -8.93806 3.0403e-09
170 1 1.57137 17.2967 4.74374 -8.90301 2.27009e-09
171 1 3.14378 15.7243 3.15436 -8.93807 3.04127e-09
172 1 4.71618 17.2967 4.74364 -8.90301 2.27106e-09
173 1 6.28861 15.7243 3.15424 -8.93808 3.04285e-09
174 1 7.86103 17.2967 4.7435 -8.90301 2.27225e-09
175 1 9.43349 15.7243 3.15413 -8.9381 3.04382e-09
176 1 11.0059 17.2967 4.74344 -8.90301 2.27277e-09
177 1 12.5784 15.7243 3.15413 -8.9381 3.0435e-09
178 1 14.1508 17.2967 4.7435 -8.90301 2.27223e-09
179 1 15.7233 15.7243 3.15424 -8.93808 3.04212e-09
180 1 17.2957 17.2967 4.74364 -8.90301 2.27103e-09
181 1 18.8681 15.7243 3.15436 -8.93807 3.04069e-09
182 1 20.4405 17.2967 4.74374 -8.90301 2.27008e-09
183 1 -0.0010139 18.8691 3.15451 -8.93805 3.03929e-09
184 1 1.57138 20.4415 4.74383 -8.90301 2.26927e-09
185 1 3.14379 18.8691 3.15446 -8.93806 3.0403e-09
186 1 4.71619 20.4415 4.74374 -8.90301 2.2703e-09
187 1 6.28862 18.8691 3.15436 -8.93807 3.04198e-09
188 1 7.86104 20.4415 4.74364 -8.90301 2.27156e-09
189 1 9.43349 18.8691 3.15428 -8.93808 3.04306e-09
190 1 11.0059 20.4415 4.74359 -8.90301 2.27211e-09
191 1 12.5784 18.8691 3.15428 -8.93808 3.04274e-09
192 1 14.1508 20.4415 4.74364 -8.90301 2.27153e-09
193 1 15.7233 18.8691 3.15436 -8.93807 3.04125e-09
194 1 17.2957 20.4415 4.74374 -8.90301 2.27026e-09
195 1 18.8681 18.8691 3.15446 -8.93806 3.03971e-09
196 1 20.4405 20.4415 4.74383 -8.90301 2.26926e-09
197 1 -0.00103155 -1.28473e-15 6.3056 -8.88811 1.38537e-09
198 1 1.57134 1.57238 7.87482 -8.90467 6.78273e-10
199 1 3.14376 -1.71246e-15 6.30555 -8.88811 1.38594e-09
200 1 4.71613 1.57237 7.8747 -8.90467 6.79087e-10
201 1 6.28858 -1.26065e-15 6.30544 -8.88812 1.38724e-09
202 1 7.86099 1.57235 7.87456 -8.90467 6.80179e-10
203 1 9.43347 -1.53666e-15 6.30534 -8.88812 1.3883e-09
204 1 11.0059 1.57235 7.87449 -8.90467 6.80699e-10
205 1 12.5784 -1.57872e-15 6.30534 -8.88812 1.3883e-09
206 1 14.1508 1.57235 7.87456 -8.90467 6.80218e-10
207 1 15.7233 -1.58601e-15 6.30544 -8.88812 1.38725e-09
208 1 17.2957 1.57237 7.8747 -8.90467 6.79128e-10
209 1 18.8681 -1.59562e-15 6.30555 -8.88811 1.38594e-09
210 1 20.4405 1.57238 7.87482 -8.90467 6.78289e-10
211 1 -0.00103155 3.14479 6.30555 -8.88811 1.38575e-09
212 1 1.57133 4.71717 7.8747 -8.90467 6.78765e-10
213 1 3.14375 3.14478 6.30549 -8.88811 1.3863e-09
214 1 4.7161 4.71714 7.87454 -8.90466 6.79549e-10
215 1 6.28857 3.14476 6.30535 -8.88812 1.38758e-09
216 1 7.86096 4.7171 7.87433 -8.90467 6.80665e-10
217 1 9.43346 3.14474 6.30524 -8.88812 1.38862e-09
218 1 11.0059 4.71708 7.87423 -8.90467 6.81195e-10
219 1 12.5784 3.14474 6.30524 -8.88812 1.38863e-09
220 1 14.1509 4.7171 7.87433 -8.90467 6.80707e-10
221 1 15.7233 3.14476 6.30535 -8.88812 1.38759e-09
222 1 17.2957 4.71714 7.87454 -8.90466 6.79595e-10
223 1 18.8681 3.14478 6.30549 -8.88811 1.3863e-09
224 1 20.4405 4.71717 7.8747 -8.90467 6.78783e-10
225 1 -0.00103153 6.28962 6.30544 -8.88812 1.38678e-09
226 1 1.57131 7.86203 7.87456 -8.90467 6.7963e-10
227 1 3.14373 6.2896 6.30535 -8.88812 1.3873e-09
228 1 4.71605 7.862 7.87433 -8.90467 6.80465e-10
229 1 6.28854 6.28957 6.30515 -8.88812 1.38855e-09
230 1 7.86092 7.86196 7.87401 -8.90469 6.81628e-10
231 1 9.43345 6.28955 6.30499 -8.88813 1.38956e-09
232 1 11.0059 7.86194 7.87386 -8.90471 6.82154e-10
233 1 12.5784 6.28955 6.30499 -8.88813 1.38957e-09
234 1 14.1509 7.86196 7.87401 -8.90469 6.81675e-10
235 1 15.7233 6.28957 6.30515 -8.88812 1.38857e-09
236 1 17.2958 7.862 7.87433 -8.90467 6.80518e-10
237 1 18.8681 6.2896 6.30535 -8.88812 1.38732e-09
238 1 20.4405 7.86203 7.87456 -8.90467 6.79652e-10
239 1 -0.00103152 9.4345 6.30534 -8.88812 1.38774e-09
240 1 1.5713 11.007 7.87449 -8.90467 6.80097e-10
241 1 3.14371 9.43449 6.30524 -8.88812 1.38828e-09
242 1 4.71604 11.007 7.87423 -8.90467 6.80986e-10
243 1 6.28852 9.43448 6.30499 -8.88813 1.38954e-09
244 1 7.8609 11.007 7.87386 -8.90471 6.82203e-10
245 1 9.43343 9.43447 6.30478 -8.88815 1.39052e-09
246 1 11.0059 11.007 7.87367 -8.90475 6.82729e-10
247 1 12.5784 9.43447 6.30478 -8.88815 1.39054e-09
248 1 14.1509 11.007 7.87386 -8.90471 6.82253e-10
249 1 15.7233 9.43448 6.30499 -8.88813 1.38957e-09
250 1 17.2958 11.007 7.87423 -8.90467 6.81043e-10
251 1 18.8681 9.43449 6.30524 -8.88812 1.3883e-09
252 1 20.4405 11.007 7.87449 -8.90467 6.8012e-10
253 1 -0.00103152 12.5794 6.30534 -8.88812 1.38774e-09
254 1 1.57131 14.1519 7.87456 -8.90467 6.7963e-10
255 1 3.14371 12.5794 6.30524 -8.88812 1.38828e-09
256 1 4.71605 14.1519 7.87433 -8.90467 6.80465e-10
257 1 6.28852 12.5794 6.30499 -8.88813 1.38954e-09
258 1 7.86092 14.1519 7.87401 -8.90469 6.81628e-10
259 1 9.43343 12.5794 6.30478 -8.88815 1.39052e-09
260 1 11.0059 14.152 7.87386 -8.90471 6.82154e-10
261 1 12.5784 12.5794 6.30478 -8.88815 1.39054e-09
262 1 14.1509 14.1519 7.87401 -8.90469 6.81675e-10
263 1 15.7233 12.5794 6.30499 -8.88813 1.38957e-09
264 1 17.2958 14.1519 7.87433 -8.90467 6.80518e-10
265 1 18.8681 12.5794 6.30524 -8.88812 1.3883e-09
266 1 20.4405 14.1519 7.87456 -8.90467 6.79652e-10
267 1 -0.00103153 15.7243 6.30544 -8.88812 1.38678e-09
268 1 1.57133 17.2967 7.8747 -8.90467 6.78765e-10
269 1 3.14373 15.7243 6.30535 -8.88812 1.3873e-09
270 1 4.7161 17.2968 7.87454 -8.90466 6.79549e-10
271 1 6.28854 15.7243 6.30515 -8.88812 1.38855e-09
272 1 7.86096 17.2968 7.87433 -8.90467 6.80665e-10
273 1 9.43345 15.7244 6.30499 -8.88813 1.38956e-09
274 1 11.0059 17.2968 7.87423 -8.90467 6.81195e-10
275 1 12.5784 15.7244 6.30499 -8.88813 1.38957e-09
276 1 14.1509 17.2968 7.87433 -8.90467 6.80707e-10
277 1 15.7233 15.7243 6.30515 -8.88812 1.38857e-09
278 1 17.2957 17.2968 7.87454 -8.90466 6.79595e-10
279 1 18.8681 15.7243 6.30535 -8.88812 1.38732e-09
280 1 20.4405 17.2967 7.8747 -8.90467 6.78783e-10
281 1 -0.00103155 18.8691 6.30555 -8.88811 1.38575e-09
282 1 1.57134 20.4415 7.87482 -8.90467 6.78273e-10
283 1 3.14375 18.8691 6.30549 -8.88811 1.3863e-09
284 1 4.71613 20.4415 7.8747 -8.90467 6.79087e-10
285 1 6.28857 18.8691 6.30535 -8.88812 1.38758e-09
286 1 7.86099 20.4415 7.87456 -8.90467 6.80179e-10
287 1 9.43346 18.8692 6.30524 -8.88812 1.38862e-09
288 1 11.0059 20.4416 7.87449 -8.90467 6.80699e-10
289 1 12.5784 18.8692 6.30524 -8.88812 1.38863e-09
290 1 14.1508 20.4415 7.87456 -8.90467 6.80218e-10
291 1 15.7233 18.8691 6.30535 -8.88812 1.38759e-09
292 1 17.2957 20.4415 7.8747 -8.90467 6.79128e-10
293 1 18.8681 18.8691 6.30549 -8.88811 1.3863e-09
294 1 20.4405 20.4415 7.87482 -8.90467 6.78289e-10
295 1 -0.00105512 -1.45103e-15 9.44319 -8.89866 1.77175e-10
296 1 1.57131 1.57237 11.0113 -8.9001 2.5255e-14
297 1 3.14371 -1.09173e-15 9.44312 -8.89865 1.77432e-10
298 1 4.71608 1.57234 11.0112 -8.90009 3.76746e-14
299 1 6.28853 -8.34525e-16 9.44296 -8.89865 1.78074e-10
300 1 7.86094 1.57231 11.011 -8.90009 3.96558e-14
301 1 9.43343 -1.2202e-15 9.44283 -8.89865 1.78628e-10
302 1 11.0059 1.57229 11.0109 -8.90009 3.8123e-14
303 1 12.5784 -1.17008e-15 9.44283 -8.89865 1.78625e-10
304 1 14.1508 1.57231 11.011 -8.90009 3.66609e-14
305 1 15.7233 -1.45507e-15 9.44296 -8.89865 1.78061e-10
306 1 17.2957 1.57234 11.0112 -8.90009 2.64709e-14
307 1 18.8681 -1.28461e-15 9.44312 -8.89865 1.77415e-10
308 1 20.4405 1.57237 11.0113 -8.9001 1.77549e-14
309 1 -0.00105511 3.14476 9.44312 -8.89865 1.77226e-10
310 1 1.57128 4.71715 11.0112 -8.90009 2.27987e-14
311 1 3.14369 3.14474 9.44304 -8.89865 1.77469e-10
312 1 4.716 4.71707 11.0109 -8.90006 3.629e-14
313 1 6.2885 3.14469 9.44283 -8.89864 1.78125e-10
314 1 7.86086 4.71696 11.0106 -8.90007 3.92213e-14
315 1 9.43341 3.14465 9.44265 -8.89865 1.78707e-10
316 1 11.0059 4.71692 11.0104 -8.90008 3.97374e-14
317 1 12.5784 3.14465 9.44265 -8.89865 1.78705e-10
318 1 14.1509 4.71696 11.0106 -8.90007 4.19403e-14
319 1 15.7233 3.14469 9.44283 -8.89864 1.78114e-10
320 1 17.2958 4.71707 11.0109 -8.90006 3.10744e-14
321 1 18.8681 3.14474 9.44304 -8.89865 1.77453e-10
322 1 20.4405 4.71715 11.0112 -8.90009 1.76461e-14
323 1 -0.0010551 6.28958 9.44296 -8.89865 1.77537e-10
324 1 1.57124 7.86201 11.011 -8.90009 2.34294e-14
325 1 3.14364 6.28955 9.44283 -8.89864 1.77783e-10
326 1 4.71589 7.86193 11.0106 -8.90007 3.59288e-14
327 1 6.28842 6.28947 9.44248 -8.89864 1.7846e-10
328 1 7.86074 7.8618 11.0099 -8.90011 4.39534e-14
329 1 9.43337 6.28941 9.44217 -8.89865 1.79105e-10
330 1 11.0059 7.86175 11.0096 -8.90015 5.13477e-14
331 1 12.5784 6.28941 9.44217 -8.89865 1.79106e-10
332 1 14.151 7.8618 11.0099 -8.90011 5.34588e-14
333 1 15.7234 6.28947 9.44248 -8.89864 1.78456e-10
334 1 17.2959 7.86193 11.0106 -8.90007 3.98845e-14
335 1 18.8682 6.28955 9.44283 -8.89864 1.77773e-10
336 1 20.4405 7.86201 11.011 -8.90009 2.21713e-14
337 1 -0.00105508 9.43448 9.44283 -8.89865 1.7795e-10
338 1 1.57122 11.007 11.0109 -8.90009 2.53498e-14
339 1 3.1436 9.43447 9.44265 -8.89865 1.78241e-10
340 1 4.71585 11.007 11.0104 -8.90008 3.76013e-14
341 1 6.28836 9.43443 9.44217 -8.89865 1.79024e-10
342 1 7.86068 11.007 11.0096 -8.90015 5.08757e-14
343 1 9.43334 9.43439 9.44171 -8.89872 1.79736e-10
344 1 11.0059 11.007 11.0091 -8.90037 6.27838e-14
345 1 12.5785 9.43439 9.44171 -8.89872 1.79738e-10
346 1 14.1511 11.007 11.0096 -8.90015 6.14077e-14
347 1 15.7234 9.43443 9.44217 -8.89865 1.79025e-10
348 1 17.2959 11.007 11.0104 -8.90008 4.49836e-14
349 1 18.8682 9.43447 9.44265 -8.89865 1.78236e-10
350 1 20.4405 11.007 11.0109 -8.90009 2.57804e-14
351 1 -0.00105508 12.5794 9.44283 -8.89865 1.7795e-10
352 1 1.57124 14.1519 11.011 -8.90009 2.34294e-14
353 1 3.1436 12.5794 9.44265 -8.89865 1.78241e-10
354 1 4.71589 14.152 11.0106 -8.90007 3.59288e-14
355 1 6.28836 12.5795 9.44217 -8.89865 1.79024e-10
356 1 7.86074 14.1521 11.0099 -8.90011 4.39534e-14
357 1 9.43334 12.5795 9.44171 -8.89872 1.79736e-10
358 1 11.0059 14.1522 11.0096 -8.90015 5.13478e-14
359 1 12.5785 12.5795 9.44171 -8.89872 1.79738e-10
360 1 14.151 14.1521 11.0099 -8.90011 5.34588e-14
361 1 15.7234 12.5795 9.44217 -8.89865 1.79025e-10
362 1 17.2959 14.152 11.0106 -8.90007 3.98845e-14
363 1 18.8682 12.5794 9.44265 -8.89865 1.78236e-10
364 1 20.4405 14.1519 11.011 -8.90009 2.21713e-14
365 1 -0.0010551 15.7243 9.44296 -8.89865 1.77537e-10
366 1 1.57128 17.2968 11.0112 -8.90009 2.27987e-14
367 1 3.14364 15.7243 9.44283 -8.89864 1.77783e-10
368 1 4.716 17.2968 11.0109 -8.90006 3.629e-14
369 1 6.28842 15.7244 9.44248 -8.89864 1.7846e-10
370 1 7.86086 17.2969 11.0106 -8.90007 3.92213e-14
371 1 9.43337 15.7245 9.44217 -8.89865 1.79105e-10
372 1 11.0059 17.297 11.0104 -8.90008 3.97374e-14
373 1 12.5784 15.7245 9.44217 -8.89865 1.79106e-10
374 1 14.1509 17.2969 11.0106 -8.90007 4.19403e-14
375 1 15.7234 15.7244 9.44248 -8.89864 1.78456e-10
376 1 17.2958 17.2968 11.0109 -8.90006 3.10744e-14
377 1 18.8682 15.7243 9.44283 -8.89864 1.77773e-10
378 1 20.4405 17.2968 11.0112 -8.90009 1.76461e-14
379 1 -0.00105511 18.8691 9.44312 -8.89865 1.77226e-10
380 1 1.57131 20.4415 11.0113 -8.9001 2.5255e-14
381 1 3.14369 18.8692 9.44304 -8.89865 1.77469e-10
382 1 4.71608 20.4416 11.0112 -8.90009 3.76746e-14
383 1 6.2885 18.8692 9.44283 -8.89864 1.78125e-10
384 1 7.86094 20.4416 11.011 -8.90009 3.96558e-14
385 1 9.43341 18.8692 9.44265 -8.89865 1.78707e-10
386 1 11.0059 20.4416 11.0109 -8.90009 3.8123e-14
387 1 12.5784 18.8692 9.44265 -8.89865 1.78705e-10
388 1 14.1508 20.4416 11.011 -8.90009 3.66609e-14
389 1 15.7233 18.8692 9.44283 -8.89864 1.78114e-10
390 1 17.2957 20.4416 11.0112 -8.90009 2.64709e-14
391 1 18.8681 18.8692 9.44304 -8.89865 1.77453e-10
392 1 20.4405 20.4415 11.0113 -8.9001 1.77549e-14
393 1 -0.00108108 -1.59321e-15 12.5796 -8.89868 1.7018e-10
394 1 3.1437 -1.29711e-15 12.5795 -8.89867 1.69993e-10
395 1 6.28851 -5.62853e-16 12.5793 -8.89867 1.69309e-10
396 1 9.4334 2.21927e-16 12.5791 -8.89868 1.68618e-10
397 1 12.5783 4.15377e-17 12.5791 -8.89868 1.68652e-10
398 1 15.7232 -8.18616e-16 12.5793 -8.89867 1.69379e-10
399 1 18.868 -1.62448e-15 12.5795 -8.89867 1.70044e-10
400 1 22.0128 3.14478 12.5795 -8.89867 1.70446e-10
401 1 3.14366 3.14474 12.5794 -8.89866 1.70287e-10
402 1 6.28844 3.14464 12.5791 -8.89864 1.69588e-10
403 1 9.43337 3.14455 12.5788 -8.89865 1.68785e-10
404 1 12.5784 3.14455 12.5788 -8.89865 1.68822e-10
405 1 15.7233 3.14464 12.5791 -8.89864 1.69664e-10
406 1 18.8681 3.14474 12.5794 -8.89866 1.70341e-10
407 1 22.0128 6.28959 12.5793 -8.89867 1.7061e-10
408 1 3.14356 6.28952 12.5791 -8.89864 1.70486e-10
409 1 6.28825 6.28933 12.5785 -8.89854 1.69863e-10
410 1 9.43326 6.28917 12.5779 -8.8986 1.68724e-10
411 1 12.5785 6.28917 12.5779 -8.8986 1.68769e-10
412 1 15.7235 6.28933 12.5785 -8.89854 1.69955e-10
413 1 18.8682 6.28952 12.5791 -8.89864 1.7055e-10
414 1 22.0128 9.43448 12.5791 -8.89868 1.70361e-10
415 1 3.14347 9.43445 12.5788 -8.89865 1.70113e-10
416 1 6.28809 9.43434 12.5779 -8.8986 1.69157e-10
417 1 9.43313 9.43421 12.5768 -8.89878 1.67732e-10
418 1 12.5786 9.43421 12.5768 -8.89878 1.67776e-10
419 1 15.7236 9.43434 12.5779 -8.8986 1.69256e-10
420 1 18.8683 9.43445 12.5788 -8.89865 1.70183e-10
421 1 22.0128 12.5794 12.5791 -8.89868 1.70361e-10
422 1 3.14347 12.5795 12.5788 -8.89865 1.70113e-10
423 1 6.28809 12.5796 12.5779 -8.8986 1.69157e-10
424 1 9.43313 12.5797 12.5768 -8.89878 1.67732e-10
425 1 12.5786 12.5797 12.5768 -8.89878 1.67776e-10
426 1 15.7236 12.5796 12.5779 -8.8986 1.69256e-10
427 1 18.8683 12.5795 12.5788 -8.89865 1.70183e-10
428 1 22.0128 15.7243 12.5793 -8.89867 1.7061e-10
429 1 3.14356 15.7244 12.5791 -8.89864 1.70486e-10
430 1 6.28825 15.7246 12.5785 -8.89854 1.69863e-10
431 1 9.43326 15.7247 12.5779 -8.8986 1.68724e-10
432 1 12.5785 15.7247 12.5779 -8.8986 1.68769e-10
433 1 15.7235 15.7246 12.5785 -8.89854 1.69955e-10
434 1 18.8682 15.7244 12.5791 -8.89864 1.7055e-10
435 1 22.0128 18.8691 12.5795 -8.89867 1.70446e-10
436 1 3.14366 18.8692 12.5794 -8.89866 1.70287e-10
437 1 6.28844 18.8693 12.5791 -8.89864 1.69588e-10
438 1 9.43337 18.8693 12.5788 -8.89865 1.68785e-10
439 1 12.5784 18.8693 12.5788 -8.89865 1.68822e-10
440 1 15.7233 18.8693 12.5791 -8.89864 1.69664e-10
441 1 18.8681 18.8692 12.5794 -8.89866 1.70341e-10
442 1 1.57132 1.57241 14.1479 -8.9047 6.64482e-10
443 1 4.71612 1.57237 14.1478 -8.90468 6.63905e-10
444 1 7.86095 1.5723 14.1475 -8.9047 6.62275e-10
445 1 11.0059 1.57227 14.1474 -8.9047 6.61418e-10
446 1 14.1508 1.5723 14.1475 -8.9047 6.62438e-10
447 1 17.2956 1.57237 14.1478 -8.90468 6.64101e-10
448 1 20.4404 1.57241 14.1479 -8.9047 6.64566e-10
449 1 1.57128 4.71722 14.1478 -8.90468 6.65979e-10
450 1 4.71599 4.71708 14.1475 -8.90465 6.65946e-10
451 1 7.86078 4.71685 14.1469 -8.90465 6.63835e-10
452 1 11.0059 4.71676 14.1466 -8.90466 6.62495e-10
453 1 14.1509 4.71685 14.1469 -8.90465 6.64018e-10
454 1 17.2957 4.71708 14.1475 -8.90465 6.66164e-10
455 1 20.4404 4.71722 14.1478 -8.90468 6.6607e-10
456 1 1.57121 7.86204 14.1475 -8.9047 6.66484e-10
457 1 4.71576 7.86188 14.1469 -8.90465 6.66261e-10
458 1 7.86041 7.8615 14.1455 -8.9044 6.64339e-10
459 1 11.0059 7.86138 14.1447 -8.90466 6.61749e-10
460 1 14.1513 7.8615 14.1455 -8.9044 6.64547e-10
461 1 17.296 7.86188 14.1469 -8.90465 6.66499e-10
462 1 20.4405 7.86204 14.1475 -8.9047 6.66583e-10
463 1 1.57118 11.007 14.1474 -8.9047 6.66204e-10
464 1 4.71567 11.007 14.1466 -8.90466 6.65414e-10
465 1 7.86028 11.007 14.1447 -8.90466 6.62448e-10
466 1 11.0059 11.007 14.1432 -8.90674 6.59304e-10
467 1 14.1514 11.007 14.1447 -8.90466 6.62655e-10
468 1 17.296 11.007 14.1466 -8.90466 6.65655e-10
469 1 20.4405 11.007 14.1474 -8.9047 6.66305e-10
470 1 1.57121 14.1519 14.1475 -8.9047 6.66484e-10
471 1 4.71576 14.152 14.1469 -8.90465 6.66261e-10
472 1 7.86041 14.1524 14.1455 -8.9044 6.64339e-10
473 1 11.0059 14.1525 14.1447 -8.90466 6.61749e-10
474 1 14.1513 14.1524 14.1455 -8.9044 6.64547e-10
475 1 17.296 14.152 14.1469 -8.90465 6.66499e-10
476 1 20.4405 14.1519 14.1475 -8.9047 6.66583e-10
477 1 1.57128 17.2967 14.1478 -8.90468 6.65979e-10
478 1 4.71599 17.2968 14.1475 -8.90465 6.65946e-10
479 1 7.86078 17.297 14.1469 -8.90465 6.63835e-10
480 1 11.0059 17.2971 14.1466 -8.90466 6.62495e-10
481 1 14.1509 17.297 14.1469 -8.90465 6.64018e-10
482 1 17.2957 17.2968 14.1475 -8.90465 6.66164e-10
483 1 20.4404 17.2967 14.1478 -8.90468 6.6607e-10
484 1 1.57132 20.4415 14.1479 -8.9047 6.64482e-10
485 1 4.71612 20.4415 14.1478 -8.90468 6.63905e-10
486 1 7.86095 20.4416 14.1475 -8.9047 6.62275e-10
487 1 11.0059 20.4416 14.1474 -8.9047 6.61418e-10
488 1 14.1508 20.4416 14.1475 -8.9047 6.62438e-10
489 1 17.2956 20.4415 14.1478 -8.90468 6.64101e-10
490 1 20.4404 20.4415 14.1479 -8.9047 6.64566e-10
491 1 22.0128 -1.8808e-16 15.7172 -8.88818 1.36642e-09
492 1 1.57144 1.57255 17.279 -8.90297 2.24688e-09
493 1 3.14382 3.79572e-17 15.7172 -8.88819 1.36578e-09
494 1 4.71643 1.5726 17.279 -8.90302 2.24549e-09
495 1 6.28863 1.34041e-15 15.7171 -8.88817 1.36436e-09
496 1 7.86115 1.57254 17.2788 -8.9031 2.24316e-09
497 1 9.43344 2.10908e-15 15.7169 -8.8882 1.36242e-09
498 1 11.0058 1.5725 17.2787 -8.90309 2.2414e-09
499 1 12.5783 1.71125e-15 15.7169 -8.8882 1.36251e-09
500 1 14.1505 1.57254 17.2788 -8.9031 2.24328e-09
501 1 15.7231 1.57228e-15 15.7171 -8.88817 1.36455e-09
502 1 17.2952 1.5726 17.279 -8.90302 2.24564e-09
503 1 18.8679 -3.76703e-18 15.7172 -8.88819 1.36593e-09
504 1 20.4402 1.57255 17.279 -8.90297 2.24694e-09
505 1 22.0128 3.14492 15.7172 -8.88819 1.36773e-09
506 1 1.57149 4.71755 17.279 -8.90302 2.25071e-09
507 1 3.1438 3.14491 15.7171 -8.88818 1.3671e-09
508 1 4.71653 4.71764 17.2789 -8.90324 2.24987e-09
509 1 6.28857 3.14478 15.7169 -8.88809 1.36639e-09
510 1 7.86099 4.71722 17.2782 -8.90292 2.25096e-09
511 1 9.43339 3.14464 15.7165 -8.88817 1.36397e-09
512 1 11.0058 4.71706 17.2777 -8.90284 2.24725e-09
513 1 12.5783 3.14464 15.7165 -8.88817 1.36407e-09
514 1 14.1507 4.71722 17.2782 -8.90292 2.25114e-09
515 1 15.7231 3.14478 15.7169 -8.88809 1.3666e-09
516 1 17.2951 4.71764 17.2789 -8.90324 2.25004e-09
517 1 18.8679 3.14491 15.7171 -8.88818 1.36726e-09
518 1 20.4402 4.71755 17.279 -8.90302 2.25078e-09
519 1 22.0128 6.28974 15.7171 -8.88817 1.37052e-09
520 1 1.57143 7.86227 17.2788 -8.9031 2.25499e-09
521 1 3.14368 6.28967 15.7169 -8.88809 1.37084e-09
522 1 4.71611 7.86211 17.2782 -8.90292 2.25812e-09
523 1 6.28825 6.28936 15.7161 -8.8877 1.37305e-09
524 1 7.85993 7.86105 17.2759 -8.90267 2.2635e-09
525 1 9.43317 6.28897 15.7149 -8.88787 1.36771e-09
526 1 11.0058 7.86102 17.2737 -8.90497 2.25227e-09
527 1 12.5785 6.28897 15.7149 -8.88787 1.36784e-09
528 1 14.1517 7.86105 17.2759 -8.90267 2.26383e-09
529 1 15.7234 6.28936 15.7161 -8.8877 1.37333e-09
530 1 17.2956 7.86211 17.2782 -8.90292 2.25837e-09
531 1 18.868 6.28967 15.7169 -8.88809 1.37103e-09
532 1 20.4402 7.86227 17.2788 -8.9031 2.25508e-09
533 1 22.0128 9.43454 15.7169 -8.8882 1.37127e-09
534 1 1.57139 11.007 17.2787 -8.90309 2.25577e-09
535 1 3.14353 9.4345 15.7165 -8.88817 1.37136e-09
536 1 4.71595 11.007 17.2777 -8.90284 2.25809e-09
537 1 6.28786 9.43427 15.7149 -8.88787 1.37189e-09
538 1 7.8599 11.007 17.2737 -8.90497 2.25957e-09
539 1 9.43258 9.43369 15.7118 -8.88714 1.36468e-09
540 1 11.0058 11.007 17.2662 -8.91709 2.25729e-09
541 1 12.5791 9.43369 15.7118 -8.88714 1.3648e-09
542 1 14.1518 11.007 17.2737 -8.90497 2.25986e-09
543 1 15.7238 9.43427 15.7149 -8.88787 1.37218e-09
544 1 17.2957 11.007 17.2777 -8.90284 2.25835e-09
545 1 18.8682 9.4345 15.7165 -8.88817 1.37156e-09
546 1 20.4403 11.007 17.2787 -8.90309 2.25587e-09
547 1 22.0128 12.5794 15.7169 -8.8882 1.37127e-09
548 1 1.57143 14.1516 17.2788 -8.9031 2.25499e-09
549 1 3.14353 12.5794 15.7165 -8.88817 1.37136e-09
550 1 4.71611 14.1518 17.2782 -8.90292 2.25812e-09
551 1 6.28786 12.5796 15.7149 -8.88787 1.37189e-09
552 1 7.85993 14.1529 17.2759 -8.90267 2.2635e-09
553 1 9.43258 12.5802 15.7118 -8.88714 1.36468e-09
554 1 11.0058 14.1529 17.2737 -8.90497 2.25227e-09
555 1 12.5791 12.5802 15.7118 -8.88714 1.3648e-09
556 1 14.1517 14.1529 17.2759 -8.90267 2.26383e-09
557 1 15.7238 12.5796 15.7149 -8.88787 1.37218e-09
558 1 17.2956 14.1518 17.2782 -8.90292 2.25837e-09
559 1 18.8682 12.5794 15.7165 -8.88817 1.37156e-09
560 1 20.4402 14.1516 17.2788 -8.9031 2.25508e-09
561 1 22.0128 15.7242 15.7171 -8.88817 1.37052e-09
562 1 1.57149 17.2964 17.279 -8.90302 2.25071e-09
563 1 3.14368 15.7242 15.7169 -8.88809 1.37084e-09
564 1 4.71653 17.2963 17.2789 -8.90324 2.24987e-09
565 1 6.28825 15.7245 15.7161 -8.8877 1.37305e-09
566 1 7.86099 17.2967 17.2782 -8.90292 2.25096e-09
567 1 9.43317 15.7249 15.7149 -8.88787 1.36771e-09
568 1 11.0058 17.2968 17.2777 -8.90284 2.24725e-09
569 1 12.5785 15.7249 15.7149 -8.88787 1.36784e-09
570 1 14.1507 17.2967 17.2782 -8.90292 2.25114e-09
571 1 15.7234 15.7245 15.7161 -8.8877 1.37333e-09
572 1 17.2951 17.2963 17.2789 -8.90324 2.25004e-09
573 1 18.868 15.7242 15.7169 -8.88809 1.37103e-09
574 1 20.4402 17.2964 17.279 -8.90302 2.25078e-09
575 1 22.0128 18.869 15.7172 -8.88819 1.36773e-09
576 1 1.57144 20.4413 17.279 -8.90297 2.24688e-09
577 1 3.1438 18.869 15.7171 -8.88818 1.3671e-09
578 1 4.71643 20.4413 17.279 -8.90302 2.24549e-09
579 1 6.28857 18.8691 15.7169 -8.88809 1.36639e-09
580 1 7.86115 20.4414 17.2788 -8.9031 2.24316e-09
581 1 9.43339 18.8693 15.7165 -8.88817 1.36397e-09
582 1 11.0058 20.4414 17.2787 -8.90309 2.2414e-09