ITEM: TIMESTEP
340
ITEM: NUMBER OF ATOMS
736
ITEM: BOX BOUNDS pp pp pp
0.0000000000000000e+00 2.2013900999999997e+01
0.0000000000000000e+00 2.2013900999999997e+01
0.0000000000000000e+00 5.3462330999999999e+01
ITEM: ATOMS id type x y z c_pot c_ke
1 1 -0.00098031 -5.51871e-16 0.097635 -7.40188 3.12719e-09
2 1 1.57141 1.5724 1.62442 -8.68379 2.78829e-09
3 1 3.14381 1.77618e-17 0.0976085 -7.40187 3.13214e-09
4 1 4.71623 1.57239 1.62435 -8.68379 2.79152e-09
5 1 6.28864 -6.1825e-16 0.0975491 -7.40185 3.13751e-09
6 1 7.86108 1.57239 1.62427 -8.68378 2.79393e-09
7 1 9.43352 -1.23504e-15 0.0975016 -7.40183 3.13926e-09
8 1 11.006 1.57239 1.62423 -8.68378 2.79372e-09
9 1 12.5784 -1.81361e-15 0.0975016 -7.40183 3.13607e-09
10 1 14.1509 1.57239 1.62427 -8.68378 2.79105e-09
11 1 15.7233 -1.81327e-15 0.0975492 -7.40185 3.13036e-09
12 1 17.2957 1.57239 1.62435 -8.68379 2.78792e-09
13 1 18.8681 -1.36059e-15 0.0976086 -7.40187 3.1264e-09
14 1 20.4405 1.5724 1.62442 -8.68379 2.78669e-09
15 1 -0.000980305 3.14479 0.0976085 -7.40187 3.1273e-09
16 1 1.57141 4.71721 1.62435 -8.68379 2.78853e-09
17 1 3.14381 3.14479 0.0975792 -7.40186 3.13221e-09
18 1 4.71622 4.7172 1.62427 -8.68378 2.79167e-09
19 1 6.28864 3.14478 0.0975135 -7.40184 3.13749e-09
20 1 7.86107 4.71719 1.62417 -8.68377 2.79396e-09
21 1 9.43352 3.14477 0.0974609 -7.40182 3.13916e-09
22 1 11.006 4.71719 1.62412 -8.68377 2.7937e-09
23 1 12.5784 3.14477 0.0974609 -7.40182 3.13598e-09
24 1 14.1509 4.71719 1.62417 -8.68377 2.7911e-09
25 1 15.7233 3.14478 0.0975136 -7.40184 3.13034e-09
26 1 17.2957 4.7172 1.62427 -8.68378 2.78808e-09
27 1 18.8681 3.14479 0.0975793 -7.40186 3.12647e-09
28 1 20.4405 4.71721 1.62435 -8.68379 2.78693e-09
29 1 -0.000980294 6.28962 0.0975491 -7.40185 3.12755e-09
30 1 1.57141 7.86206 1.62427 -8.68378 2.78886e-09
31 1 3.1438 6.28962 0.0975135 -7.40184 3.13238e-09
32 1 4.71621 7.86206 1.62417 -8.68377 2.79189e-09
33 1 6.28863 6.28961 0.0974333 -7.40181 3.13746e-09
34 1 7.86107 7.86205 1.62404 -8.68377 2.79404e-09
35 1 9.43351 6.2896 0.0973686 -7.40178 3.13895e-09
36 1 11.006 7.86205 1.62398 -8.68376 2.79371e-09
37 1 12.5784 6.2896 0.0973686 -7.40178 3.13577e-09
38 1 14.1509 7.86205 1.62404 -8.68377 2.79119e-09
39 1 15.7233 6.28961 0.0974333 -7.40181 3.13031e-09
40 1 17.2957 7.86206 1.62417 -8.68377 2.78832e-09
41 1 18.8681 6.28962 0.0975136 -7.40184 3.12664e-09
42 1 20.4405 7.86206 1.62427 -8.68378 2.78727e-09
43 1 -0.000980286 9.4345 0.0975016 -7.40183 3.12777e-09
44 1 1.5714 11.007 1.62423 -8.68378 2.78902e-09
45 1 3.14379 9.4345 0.0974609 -7.40182 3.13253e-09
46 1 4.71621 11.007 1.62412 -8.68377 2.792e-09
47 1 6.28862 9.43449 0.0973686 -7.40178 3.13744e-09
48 1 7.86106 11.007 1.62398 -8.68376 2.79409e-09
49 1 9.43351 9.43449 0.0972937 -7.40175 3.13879e-09
50 1 11.006 11.007 1.62392 -8.68376 2.79373e-09
51 1 12.5784 9.43449 0.0972937 -7.40175 3.13561e-09
52 1 14.1509 11.007 1.62398 -8.68376 2.79124e-09
53 1 15.7233 9.43449 0.0973686 -7.40178 3.1303e-09
54 1 17.2957 11.007 1.62412 -8.68377 2.78844e-09
55 1 18.8681 9.4345 0.0974609 -7.40182 3.1268e-09
56 1 20.4405 11.007 1.62423 -8.68378 2.78743e-09
57 1 -0.000980286 12.5794 0.0975016 -7.40183 3.12777e-09
58 1 1.57141 14.1518 1.62427 -8.68378 2.78886e-09
59 1 3.14379 12.5794 0.0974609 -7.40182 3.13253e-09
60 1 4.71621 14.1518 1.62417 -8.68377 2.79189e-09
61 1 6.28862 12.5794 0.0973686 -7.40178 3.13744e-09
62 1 7.86107 14.1519 1.62404 -8.68377 2.79404e-09
63 1 9.43351 12.5794 0.0972937 -7.40175 3.13879e-09
64 1 11.006 14.1519 1.62398 -8.68376 2.79371e-09
65 1 12.5784 12.5794 0.0972937 -7.40175 3.13561e-09
66 1 14.1509 14.1519 1.62404 -8.68377 2.79119e-09
67 1 15.7233 12.5794 0.0973686 -7.40178 3.1303e-09
68 1 17.2957 14.1518 1.62417 -8.68377 2.78832e-09
69 1 18.8681 12.5794 0.0974609 -7.40182 3.1268e-09
70 1 20.4405 14.1518 1.62427 -8.68378 2.78727e-09
71 1 -0.000980294 15.7243 0.0975491 -7.40185 3.12755e-09
72 1 1.57141 17.2967 1.62435 -8.68379 2.78853e-09
73 1 3.1438 15.7243 0.0975135 -7.40184 3.13238e-09
74 1 4.71622 17.2967 1.62427 -8.68378 2.79167e-09
75 1 6.28863 15.7243 0.0974333 -7.40181 3.13746e-09
76 1 7.86107 17.2967 1.62417 -8.68377 2.79396e-09
77 1 9.43351 15.7243 0.0973686 -7.40178 3.13895e-09
78 1 11.006 17.2967 1.62412 -8.68377 2.7937e-09
79 1 12.5784 15.7243 0.0973686 -7.40178 3.13577e-09
80 1 14.1509 17.2967 1.62417 -8.68377 2.7911e-09
81 1 15.7233 15.7243 0.0974333 -7.40181 3.13031e-09
82 1 17.2957 17.2967 1.62427 -8.68378 2.78808e-09
83 1 18.8681 15.7243 0.0975136 -7.40184 3.12664e-09
84 1 20.4405 17.2967 1.62435 -8.68379 2.78693e-09
85 1 -0.000980305 18.8691 0.0976085 -7.40187 3.1273e-09
86 1 1.57141 20.4415 1.62442 -8.68379 2.78829e-09
87 1 3.14381 18.8691 0.0975792 -7.40186 3.13221e-09
88 1 4.71623 20.4415 1.62435 -8.68379 2.79152e-09
89 1 6.28864 18.8691 0.0975135 -7.40184 3.13749e-09
90 1 7.86108 20.4415 1.62427 -8.68378 2.79393e-09
91 1 9.43352 18.8691 0.0974609 -7.40182 3.13916e-09
92 1 11.006 20.4415 1.62423 -8.68378 2.79372e-09
93 1 12.5784 18.8691 0.0974609 -7.40182 3.13598e-09
94 1 14.1509 20.4415 1.62427 -8.68378 2.79105e-09
95 1 15.7233 18.8691 0.0975136 -7.40184 3.13034e-09
96 1 17.2957 20.4415 1.62435 -8.68379 2.78792e-09
97 1 18.8681 18.8691 0.0975793 -7.40186 3.12647e-09
98 1 20.4405 20.4415 1.62442 -8.68379 2.78669e-09
99 1 -0.000992074 -1.32355e-15 3.15455 -8.93805 2.34825e-09
100 1 1.5714 1.5724 4.74383 -8.90301 1.75418e-09
101 1 3.14381 -8.72066e-16 3.15451 -8.93805 2.34948e-09
102 1 4.71621 1.57239 4.74374 -8.90301 1.75504e-09
103 1 6.28865 -1.31418e-15 3.15442 -8.93806 2.3512e-09
104 1 7.86106 1.57239 4.74364 -8.90301 1.75606e-09
105 1 9.43352 -1.43531e-15 3.15435 -8.93807 2.35211e-09
106 1 11.0059 1.57238 4.74359 -8.90301 1.75648e-09
107 1 12.5784 -1.42121e-15 3.15435 -8.93807 2.35155e-09
108 1 14.1508 1.57239 4.74364 -8.90301 1.75599e-09
109 1 15.7233 -1.62906e-15 3.15442 -8.93806 2.34993e-09
110 1 17.2957 1.57239 4.74374 -8.90301 1.75493e-09
111 1 18.8681 -1.81479e-15 3.15451 -8.93805 2.34845e-09
112 1 20.4405 1.5724 4.74383 -8.90301 1.75413e-09
113 1 -0.000992068 3.14481 3.15451 -8.93805 2.34843e-09
114 1 1.57139 4.71721 4.74374 -8.90301 1.75457e-09
115 1 3.14381 3.1448 3.15446 -8.93806 2.34964e-09
116 1 4.7162 4.7172 4.74364 -8.90301 1.75538e-09
117 1 6.28864 3.14479 3.15436 -8.93807 2.35132e-09
118 1 7.86105 4.71718 4.7435 -8.90301 1.75635e-09
119 1 9.43351 3.14479 3.15428 -8.93808 2.3522e-09
120 1 11.0059 4.71718 4.74344 -8.90301 1.75676e-09
121 1 12.5784 3.14479 3.15428 -8.93808 2.35165e-09
122 1 14.1508 4.71718 4.7435 -8.90301 1.75629e-09
123 1 15.7233 3.14479 3.15436 -8.93807 2.35005e-09
124 1 17.2957 4.7172 4.74364 -8.90301 1.75529e-09
125 1 18.8681 3.1448 3.15446 -8.93806 2.34862e-09
126 1 20.4405 4.71721 4.74374 -8.90301 1.75452e-09
127 1 -0.000992054 6.28964 3.15442 -8.93806 2.34888e-09
128 1 1.57138 7.86206 4.74364 -8.90301 1.75515e-09
129 1 3.1438 6.28963 3.15436 -8.93807 2.35005e-09
130 1 4.71618 7.86205 4.7435 -8.90301 1.75593e-09
131 1 6.28863 6.28962 3.15424 -8.93808 2.35164e-09
132 1 7.86104 7.86204 4.74333 -8.90301 1.75685e-09
133 1 9.43351 6.28962 3.15413 -8.9381 2.35246e-09
134 1 11.0059 7.86203 4.74325 -8.90302 1.75722e-09
135 1 12.5784 6.28962 3.15413 -8.9381 2.35191e-09
136 1 14.1509 7.86204 4.74333 -8.90301 1.7568e-09
137 1 15.7233 6.28962 3.15424 -8.93808 2.3504e-09
138 1 17.2957 7.86205 4.7435 -8.90301 1.75586e-09
139 1 18.8681 6.28963 3.15436 -8.93807 2.34904e-09
140 1 20.4405 7.86206 4.74364 -8.90301 1.75511e-09
141 1 -0.000992042 9.43451 3.15435 -8.93807 2.34928e-09
142 1 1.57138 11.007 4.74359 -8.90301 1.75544e-09
143 1 3.1438 9.43451 3.15428 -8.93808 2.35043e-09
144 1 4.71617 11.007 4.74344 -8.90301 1.75622e-09
145 1 6.28862 9.4345 3.15413 -8.9381 2.35196e-09
146 1 7.86103 11.007 4.74325 -8.90302 1.75712e-09
147 1 9.4335 9.4345 3.15401 -8.93812 2.35272e-09
148 1 11.0059 11.007 4.74316 -8.90302 1.75747e-09
149 1 12.5784 9.4345 3.15401 -8.93812 2.35217e-09
150 1 14.1509 11.007 4.74325 -8.90302 1.75707e-09
151 1 15.7233 9.4345 3.15413 -8.9381 2.35073e-09
152 1 17.2957 11.007 4.74344 -8.90301 1.75615e-09
153 1 18.8681 9.43451 3.15428 -8.93808 2.34943e-09
154 1 20.4405 11.007 4.74359 -8.90301 1.7554e-09
155 1 -0.000992042 12.5794 3.15435 -8.93807 2.34928e-09
156 1 1.57138 14.1518 4.74364 -8.90301 1.75515e-09
157 1 3.1438 12.5794 3.15428 -8.93808 2.35043e-09
158 1 4.71618 14.1518 4.7435 -8.90301 1.75593e-09
159 1 6.28862 12.5794 3.15413 -8.9381 2.35196e-09
160 1 7.86104 14.1519 4.74333 -8.90301 1.75685e-09
161 1 9.4335 12.5794 3.15401 -8.93812 2.35272e-09
162 1 11.0059 14.1519 4.74325 -8.90302 1.75722e-09
163 1 12.5784 12.5794 3.15401 -8.93812 2.35217e-09
164 1 14.1509 14.1519 4.74333 -8.90301 1.7568e-09
165 1 15.7233 12.5794 3.15413 -8.9381 2.35073e-09
166 1 17.2957 14.1518 4.7435 -8.90301 1.75586e-09
167 1 18.8681 12.5794 3.15428 -8.93808 2.34943e-09
168 1 20.4405 14.1518 4.74364 -8.90301 1.75511e-09
169 1 -0.000992054 15.7243 3.15442 -8.93806 2.34888e-09
170 1 1.57139 17.2967 4.74374 -8.90301 1.75457e-09
171 1 3.1438 15.7243 3.15436 -8.93807 2.35005e-09
172 1 4.7162 17.2967 4.74364 -8.90301 1.75538e-09
173 1 6.28863 15.7243 3.15424 -8.93808 2.35164e-09
174 1 7.86105 17.2967 4.7435 -8.90301 1.75635e-09
175 1 9.43351 15.7243 3.15413 -8.9381 2.35246e-09
176 1 11.0059 17.2967 4.74344 -8.90301 1.75676e-09
177 1 12.5784 15.7243 3.15413 -8.9381 2.35191e-09
178 1 14.1508 17.2967 4.7435 -8.90301 1.75629e-09
179 1 15.7233 15.7243 3.15424 -8.93808 2.3504e-09
180 1 17.2957 17.2967 4.74364 -8.90301 1.75529e-09
181 1 18.8681 15.7243 3.15436 -8.93807 2.34904e-09
182 1 20.4405 17.2967 4.74374 -8.90301 1.75452e-09
183 1 -0.000992068 18.8691 3.15451 -8.93805 2.34843e-09
184 1 1.5714 20.4415 4.74383 -8.90301 1.75418e-09
185 1 3.14381 18.8691 3.15446 -8.93806 2.34964e-09
186 1 4.71621 20.4415 4.74374 -8.90301 1.75504e-09
187 1 6.28864 18.8691 3.15436 -8.93807 2.35132e-09
188 1 7.86106 20.4415 4.74364 -8.90301 1.75606e-09
189 1 9.43351 18.8691 3.15428 -8.93808 2.3522e-09
190 1 11.0059 20.4415 4.74359 -8.90301 1.75648e-09
191 1 12.5784 18.8691 3.15428 -8.93808 2.35165e-09
192 1 14.1508 20.4415 4.74364 -8.90301 1.75599e-09
193 1 15.7233 18.8691 3.15436 -8.93807 2.35005e-09
194 1 17.2957 20.4415 4.74374 -8.90301 1.75493e-09
195 1 18.8681 18.8691 3.15446 -8.93806 2.34862e-09
196 1 20.4405 20.4415 4.74383 -8.90301 1.75413e-09
197 1 -0.00101681 -1.83604e-15 6.3056 -8.88811 1.07137e-09
198 1 1.57135 1.57238 7.87482 -8.90467 5.24893e-10
199 1 3.14377 -1.94383e-15 6.30555 -8.88811 1.07185e-09
200 1 4.71614 1.57237 7.8747 -8.90467 5.2554e-10
201 1 6.2886 -1.7197e-15 6.30544 -8.88812 1.07289e-09
202 1 7.861 1.57235 7.87456 -8.90467 5.26404e-10
203 1 9.43348 -1.86416e-15 6.30534 -8.88812 1.07374e-09
204 1 11.0059 1.57235 7.87449 -8.90467 5.26821e-10
205 1 12.5784 -1.76606e-15 6.30534 -8.88812 1.07374e-09
206 1 14.1508 1.57235 7.87456 -8.90467 5.26447e-10
207 1 15.7233 -2.34674e-15 6.30544 -8.88812 1.07288e-09
208 1 17.2957 1.57237 7.8747 -8.90467 5.25577e-10
209 1 18.8681 -1.97701e-15 6.30555 -8.88811 1.07182e-09
210 1 20.4405 1.57238 7.87482 -8.90467 5.24904e-10
211 1 -0.0010168 3.14479 6.30555 -8.88811 1.07156e-09
212 1 1.57134 4.71717 7.8747 -8.90467 5.25118e-10
213 1 3.14376 3.14478 6.30549 -8.88811 1.07201e-09
214 1 4.71611 4.71714 7.87454 -8.90466 5.25742e-10
215 1 6.28859 3.14476 6.30535 -8.88812 1.07305e-09
216 1 7.86097 4.7171 7.87433 -8.90467 5.26626e-10
217 1 9.43347 3.14474 6.30524 -8.88812 1.07388e-09
218 1 11.0059 4.71708 7.87423 -8.90467 5.27056e-10
219 1 12.5784 3.14474 6.30524 -8.88812 1.07388e-09
220 1 14.1509 4.7171 7.87433 -8.90467 5.26678e-10
221 1 15.7233 3.14476 6.30535 -8.88812 1.07303e-09
222 1 17.2957 4.71714 7.87454 -8.90466 5.2579e-10
223 1 18.8681 3.14478 6.30549 -8.88811 1.07199e-09
224 1 20.4405 4.71717 7.8747 -8.90467 5.25134e-10
225 1 -0.00101678 6.28962 6.30544 -8.88812 1.0721e-09
226 1 1.57132 7.86203 7.87456 -8.90467 5.25597e-10
227 1 3.14374 6.2896 6.30535 -8.88812 1.07254e-09
228 1 4.71606 7.862 7.87433 -8.90467 5.26257e-10
229 1 6.28856 6.28957 6.30515 -8.88812 1.07354e-09
230 1 7.86093 7.86196 7.87401 -8.90469 5.27182e-10
231 1 9.43346 6.28955 6.30499 -8.88813 1.07435e-09
232 1 11.0059 7.86194 7.87386 -8.90471 5.27614e-10
233 1 12.5784 6.28955 6.30499 -8.88813 1.07436e-09
234 1 14.1509 7.86196 7.87401 -8.90469 5.27246e-10
235 1 15.7233 6.28957 6.30515 -8.88812 1.07355e-09
236 1 17.2958 7.862 7.87433 -8.90467 5.26323e-10
237 1 18.8681 6.2896 6.30535 -8.88812 1.07253e-09
238 1 20.4405 7.86203 7.87456 -8.90467 5.2562e-10
239 1 -0.00101677 9.4345 6.30534 -8.88812 1.07264e-09
240 1 1.57131 11.007 7.87449 -8.90467 5.25873e-10
241 1 3.14372 9.43449 6.30524 -8.88812 1.07309e-09
242 1 4.71605 11.007 7.87423 -8.90467 5.26575e-10
243 1 6.28853 9.43448 6.30499 -8.88813 1.07411e-09
244 1 7.86091 11.007 7.87386 -8.90471 5.27544e-10
245 1 9.43345 9.43447 6.30478 -8.88815 1.07491e-09
246 1 11.0059 11.007 7.87367 -8.90475 5.27978e-10
247 1 12.5784 9.43447 6.30478 -8.88815 1.07492e-09
248 1 14.1509 11.007 7.87386 -8.90471 5.27613e-10
249 1 15.7233 9.43448 6.30499 -8.88813 1.07413e-09
250 1 17.2958 11.007 7.87423 -8.90467 5.26649e-10
251 1 18.8681 9.43449 6.30524 -8.88812 1.07309e-09
252 1 20.4405 11.007 7.87449 -8.90467 5.25901e-10
253 1 -0.00101677 12.5794 6.30534 -8.88812 1.07264e-09
254 1 1.57132 14.1519 7.87456 -8.90467 5.25597e-10
255 1 3.14372 12.5794 6.30524 -8.88812 1.07309e-09
256 1 4.71606 14.1519 7.87433 -8.90467 5.26257e-10
257 1 6.28853 12.5794 6.30499 -8.88813 1.07411e-09
258 1 7.86093 14.1519 7.87401 -8.90469 5.27182e-10
259 1 9.43345 12.5794 6.30478 -8.88815 1.07491e-09
260 1 11.0059 14.152 7.87386 -8.90471 5.27614e-10
261 1 12.5784 12.5794 6.30478 -8.88815 1.07492e-09
262 1 14.1509 14.1519 7.87401 -8.90469 5.27246e-10
263 1 15.7233 12.5794 6.30499 -8.88813 1.07413e-09
264 1 17.2958 14.1519 7.87433 -8.90467 5.26323e-10
265 1 18.8681 12.5794 6.30524 -8.88812 1.07309e-09
266 1 20.4405 14.1519 7.87456 -8.90467 5.2562e-10
267 1 -0.00101678 15.7243 6.30544 -8.88812 1.0721e-09
268 1 1.57134 17.2967 7.8747 -8.90467 5.25118e-10
269 1 3.14374 15.7243 6.30535 -8.88812 1.07254e-09
270 1 4.71611 17.2968 7.87454 -8.90466 5.25742e-10
271 1 6.28856 15.7243 6.30515 -8.88812 1.07354e-09
272 1 7.86097 17.2968 7.87433 -8.90467 5.26626e-10
273 1 9.43346 15.7244 6.30499 -8.88813 1.07435e-09
274 1 11.0059 17.2968 7.87423 -8.90467 5.27056e-10
275 1 12.5784 15.7244 6.30499 -8.88813 1.07436e-09
276 1 14.1509 17.2968 7.87433 -8.90467 5.26678e-10
277 1 15.7233 15.7243 6.30515 -8.88812 1.07355e-09
278 1 17.2957 17.2968 7.87454 -8.90466 5.2579e-10
279 1 18.8681 15.7243 6.30535 -8.88812 1.07253e-09
280 1 20.4405 17.2967 7.8747 -8.90467 5.25134e-10
281 1 -0.0010168 18.8691 6.30555 -8.88811 1.07156e-09
282 1 1.57135 20.4415 7.87482 -8.90467 5.24893e-10
283 1 3.14376 18.8691 6.30549 -8.88811 1.07201e-09
284 1 4.71614 20.4415 7.8747 -8.90467 5.2554e-10
285 1 6.28859 18.8691 6.30535 -8.88812 1.07305e-09
286 1 7.861 20.4415 7.87456 -8.90467 5.26404e-10
287 1 9.43347 18.8692 6.30524 -8.88812 1.07388e-09
288 1 11.0059 20.4416 7.87449 -8.90467 5.26821e-10
289 1 12.5784 18.8692 6.30524 -8.88812 1.07388e-09
290 1 14.1508 20.4415 7.87456 -8.90467 5.26447e-10
291 1 15.7233 18.8691 6.30535 -8.88812 1.07303e-09
292 1 17.2957 20.4415 7.8747 -8.90467 5.25577e-10
293 1 18.8681 18.8691 6.30549 -8.88811 1.07199e-09
294 1 20.4405 20.4415 7.87482 -8.90467 5.24904e-10
295 1 -0.00104984 -2.97149e-15 9.44319 -8.89866 1.37359e-10
296 1 1.57131 1.57237 11.0113 -8.9001 3.71882e-14
297 1 3.14371 -3.99864e-15 9.44312 -8.89865 1.37589e-10
298 1 4.71608 1.57234 11.0112 -8.90009 5.06321e-14
299 1 6.28853 -4.75827e-15 9.44296 -8.89865 1.38112e-10
300 1 7.86094 1.57231 11.011 -8.90009 4.36334e-14
301 1 9.43343 -4.81752e-15 9.44283 -8.89865 1.38549e-10
302 1 11.0059 1.57229 11.0109 -8.90009 3.77337e-14
303 1 12.5784 -4.61364e-15 9.44283 -8.89865 1.38536e-10
304 1 14.1508 1.57231 11.011 -8.90009 3.68223e-14
305 1 15.7233 -4.37092e-15 9.44296 -8.89865 1.38069e-10
306 1 17.2957 1.57234 11.0112 -8.90009 2.51905e-14
307 1 18.8681 -3.82046e-15 9.44312 -8.89865 1.37541e-10
308 1 20.4405 1.57237 11.0113 -8.9001 2.007e-14
309 1 -0.00104984 3.14476 9.44312 -8.89865 1.37348e-10
310 1 1.57128 4.71715 11.0112 -8.90009 2.83019e-14
311 1 3.14369 3.14474 9.44304 -8.89865 1.37566e-10
312 1 4.716 4.71707 11.0109 -8.90006 4.20162e-14
313 1 6.2885 3.14469 9.44283 -8.89864 1.38101e-10
314 1 7.86086 4.71696 11.0106 -8.90007 3.81298e-14
315 1 9.43342 3.14465 9.44265 -8.89865 1.38561e-10
316 1 11.0059 4.71692 11.0104 -8.90008 3.857e-14
317 1 12.5784 3.14465 9.44265 -8.89865 1.38551e-10
318 1 14.1509 4.71696 11.0106 -8.90007 4.40707e-14
319 1 15.7233 3.14469 9.44283 -8.89864 1.38064e-10
320 1 17.2958 4.71707 11.0109 -8.90006 3.05084e-14
321 1 18.8681 3.14474 9.44304 -8.89865 1.37523e-10
322 1 20.4405 4.71715 11.0112 -8.90009 1.68277e-14
323 1 -0.00104982 6.28958 9.44296 -8.89865 1.3748e-10
324 1 1.57124 7.86201 11.011 -8.90009 2.25468e-14
325 1 3.14364 6.28955 9.44283 -8.89864 1.37696e-10
326 1 4.71589 7.86193 11.0106 -8.90007 3.39344e-14
327 1 6.28842 6.28947 9.44248 -8.89864 1.38248e-10
328 1 7.86074 7.8618 11.0099 -8.90011 3.80992e-14
329 1 9.43338 6.28941 9.44217 -8.89865 1.38762e-10
330 1 11.0059 7.86175 11.0096 -8.90015 5.02316e-14
331 1 12.5784 6.28941 9.44217 -8.89865 1.38759e-10
332 1 14.151 7.8618 11.0099 -8.90011 5.9359e-14
333 1 15.7234 6.28947 9.44248 -8.89864 1.38228e-10
334 1 17.2959 7.86193 11.0106 -8.90007 4.269e-14
335 1 18.8682 6.28955 9.44283 -8.89864 1.37666e-10
336 1 20.4405 7.86201 11.011 -8.90009 1.97597e-14
337 1 -0.0010498 9.43448 9.44283 -8.89865 1.37713e-10
338 1 1.57122 11.007 11.0109 -8.90009 2.22073e-14
339 1 3.1436 9.43447 9.44265 -8.89865 1.37961e-10
340 1 4.71585 11.007 11.0104 -8.90008 3.27683e-14
341 1 6.28836 9.43443 9.44217 -8.89865 1.38596e-10
342 1 7.86068 11.007 11.0096 -8.90015 4.34249e-14
343 1 9.43334 9.43439 9.44171 -8.89872 1.39166e-10
344 1 11.0059 11.007 11.0091 -8.90037 6.13506e-14
345 1 12.5785 9.43439 9.44171 -8.89872 1.39168e-10
346 1 14.1511 11.007 11.0096 -8.90015 6.81054e-14
347 1 15.7234 9.43443 9.44217 -8.89865 1.38589e-10
348 1 17.2959 11.007 11.0104 -8.90008 4.94246e-14
349 1 18.8682 9.43447 9.44265 -8.89865 1.37943e-10
350 1 20.4405 11.007 11.0109 -8.90009 2.32118e-14
351 1 -0.0010498 12.5794 9.44283 -8.89865 1.37713e-10
352 1 1.57124 14.1519 11.011 -8.90009 2.25468e-14
353 1 3.1436 12.5794 9.44265 -8.89865 1.37961e-10
354 1 4.71589 14.152 11.0106 -8.90007 3.39344e-14
355 1 6.28836 12.5795 9.44217 -8.89865 1.38596e-10
356 1 7.86074 14.1521 11.0099 -8.90011 3.80992e-14
357 1 9.43334 12.5795 9.44171 -8.89872 1.39166e-10
358 1 11.0059 14.1522 11.0096 -8.90015 5.02316e-14
359 1 12.5785 12.5795 9.44171 -8.89872 1.39168e-10
360 1 14.151 14.1521 11.0099 -8.90011 5.9359e-14
361 1 15.7234 12.5795 9.44217 -8.89865 1.38589e-10
362 1 17.2959 14.152 11.0106 -8.90007 4.269e-14
363 1 18.8682 12.5794 9.44265 -8.89865 1.37943e-10
364 1 20.4405 14.1519 11.011 -8.90009 1.97597e-14
365 1 -0.00104982 15.7243 9.44296 -8.89865 1.3748e-10
366 1 1.57128 17.2968 11.0112 -8.90009 2.83019e-14
367 1 3.14364 15.7243 9.44283 -8.89864 1.37696e-10
368 1 4.716 17.2968 11.0109 -8.90006 4.20162e-14
369 1 6.28842 15.7244 9.44248 -8.89864 1.38248e-10
370 1 7.86086 17.2969 11.0106 -8.90007 3.81298e-14
371 1 9.43338 15.7245 9.44217 -8.89865 1.38762e-10
372 1 11.0059 17.297 11.0104 -8.90008 3.857e-14
373 1 12.5784 15.7245 9.44217 -8.89865 1.38759e-10
374 1 14.1509 17.2969 11.0106 -8.90007 4.40707e-14
375 1 15.7234 15.7244 9.44248 -8.89864 1.38228e-10
376 1 17.2958 17.2968 11.0109 -8.90006 3.05084e-14
377 1 18.8682 15.7243 9.44283 -8.89864 1.37666e-10
378 1 20.4405 17.2968 11.0112 -8.90009 1.68277e-14
379 1 -0.00104984 18.8691 9.44312 -8.89865 1.37348e-10
380 1 1.57131 20.4415 11.0113 -8.9001 3.71882e-14
381 1 3.14369 18.8692 9.44304 -8.89865 1.37566e-10
382 1 4.71608 20.4416 11.0112 -8.90009 5.06321e-14
383 1 6.2885 18.8692 9.44283 -8.89864 1.38101e-10
384 1 7.86094 20.4416 11.011 -8.90009 4.36334e-14
385 1 9.43342 18.8692 9.44265 -8.89865 1.38561e-10
386 1 11.0059 20.4416 11.0109 -8.90009 3.77337e-14
387 1 12.5784 18.8692 9.44265 -8.89865 1.38551e-10
388 1 14.1508 20.4416 11.011 -8.90009 3.68223e-14
389 1 15.7233 18.8692 9.44283 -8.89864 1.38064e-10
390 1 17.2957 20.4416 11.0112 -8.90009 2.51906e-14
391 1 18.8681 18.8692 9.44304 -8.89865 1.37523e-10
392 1 20.4405 20.4415 11.0113 -8.9001 2.007e-14
393 1 -0.00108625 -5.11062e-15 12.5796 -8.89868 1.31144e-10
394 1 3.14369 -5.32164e-15 12.5795 -8.89867 1.30948e-10
395 1 6.2885 -5.46058e-15 12.5793 -8.89867 1.30347e-10
396 1 9.43339 -4.66361e-15 12.5791 -8.89868 1.29779e-10
397 1 12.5783 -3.82299e-15 12.5791 -8.89868 1.29843e-10
398 1 15.7232 -3.98955e-15 12.5793 -8.89867 1.30476e-10
399 1 18.868 -4.26748e-15 12.5795 -8.89867 1.31039e-10
400 1 22.0128 3.14478 12.5795 -8.89867 1.31405e-10
401 1 3.14365 3.14474 12.5794 -8.89866 1.31229e-10
402 1 6.28844 3.14464 12.5791 -8.89864 1.30617e-10
403 1 9.43336 3.14455 12.5788 -8.89865 1.29966e-10
404 1 12.5784 3.14455 12.5788 -8.89865 1.30035e-10
405 1 15.7233 3.14464 12.5791 -8.89864 1.30759e-10
406 1 18.8681 3.14474 12.5794 -8.89866 1.31328e-10
407 1 22.0128 6.28959 12.5793 -8.89867 1.31659e-10
408 1 3.14355 6.28952 12.5791 -8.89864 1.31507e-10
409 1 6.28825 6.28933 12.5785 -8.89854 1.30955e-10
410 1 9.43326 6.28917 12.5779 -8.8986 1.30051e-10
411 1 12.5785 6.28917 12.5779 -8.8986 1.30135e-10
412 1 15.7235 6.28933 12.5785 -8.89854 1.31129e-10
413 1 18.8682 6.28952 12.5791 -8.89864 1.31626e-10
414 1 22.0128 9.43448 12.5791 -8.89868 1.31572e-10
415 1 3.14347 9.43445 12.5788 -8.89865 1.31321e-10
416 1 6.28809 9.43434 12.5779 -8.8986 1.30513e-10
417 1 9.43312 9.43421 12.5768 -8.89878 1.29396e-10
418 1 12.5786 9.43421 12.5768 -8.89878 1.29481e-10
419 1 15.7236 9.43434 12.5779 -8.8986 1.30703e-10
420 1 18.8683 9.43445 12.5788 -8.89865 1.31454e-10
421 1 22.0128 12.5794 12.5791 -8.89868 1.31572e-10
422 1 3.14347 12.5795 12.5788 -8.89865 1.31321e-10
423 1 6.28809 12.5796 12.5779 -8.8986 1.30513e-10
424 1 9.43312 12.5797 12.5768 -8.89878 1.29396e-10
425 1 12.5786 12.5797 12.5768 -8.89878 1.29481e-10
426 1 15.7236 12.5796 12.5779 -8.8986 1.30703e-10
427 1 18.8683 12.5795 12.5788 -8.89865 1.31454e-10
428 1 22.0128 15.7243 12.5793 -8.89867 1.31659e-10
429 1 3.14355 15.7244 12.5791 -8.89864 1.31507e-10
430 1 6.28825 15.7246 12.5785 -8.89854 1.30955e-10
431 1 9.43326 15.7247 12.5779 -8.8986 1.30051e-10
432 1 12.5785 15.7247 12.5779 -8.8986 1.30135e-10
433 1 15.7235 15.7246 12.5785 -8.89854 1.31129e-10
434 1 18.8682 15.7244 12.5791 -8.89864 1.31626e-10
435 1 22.0128 18.8691 12.5795 -8.89867 1.31405e-10
436 1 3.14365 18.8692 12.5794 -8.89866 1.31229e-10
437 1 6.28844 18.8693 12.5791 -8.89864 1.30617e-10
438 1 9.43336 18.8693 12.5788 -8.89865 1.29966e-10
439 1 12.5784 18.8693 12.5788 -8.89865 1.30035e-10
440 1 15.7233 18.8693 12.5791 -8.89864 1.30759e-10
441 1 18.8681 18.8692 12.5794 -8.89866 1.31328e-10
442 1 1.57131 1.57241 14.1479 -8.9047 5.12922e-10
443 1 4.71611 1.57237 14.1478 -8.90468 5.12311e-10
444 1 7.86094 1.5723 14.1475 -8.9047 5.10924e-10
445 1 11.0058 1.57227 14.1474 -8.9047 5.10284e-10
446 1 14.1508 1.5723 14.1475 -8.9047 5.11223e-10
447 1 17.2956 1.57237 14.1478 -8.90468 5.12665e-10
448 1 20.4404 1.57241 14.1479 -8.9047 5.13072e-10
449 1 1.57127 4.71722 14.1478 -8.90468 5.14311e-10
450 1 4.71598 4.71708 14.1475 -8.90465 5.14117e-10
451 1 7.86077 4.71685 14.1469 -8.90465 5.12364e-10
452 1 11.0058 4.71676 14.1466 -8.90466 5.1136e-10
453 1 14.1509 4.71685 14.1469 -8.90465 5.127e-10
454 1 17.2957 4.71708 14.1475 -8.90465 5.14513e-10
455 1 20.4404 4.71722 14.1478 -8.90468 5.14475e-10
456 1 1.5712 7.86204 14.1475 -8.9047 5.14993e-10
457 1 4.71575 7.86188 14.1469 -8.90465 5.14653e-10
458 1 7.8604 7.8615 14.1455 -8.9044 5.13052e-10
459 1 11.0058 7.86138 14.1447 -8.90466 5.11098e-10
460 1 14.1513 7.8615 14.1455 -8.9044 5.13434e-10
461 1 17.2959 7.86188 14.1469 -8.90465 5.15087e-10
462 1 20.4405 7.86204 14.1475 -8.9047 5.15171e-10
463 1 1.57117 11.007 14.1474 -8.9047 5.14907e-10
464 1 4.71566 11.007 14.1466 -8.90466 5.14132e-10
465 1 7.86027 11.007 14.1447 -8.90466 5.1173e-10
466 1 11.0058 11.007 14.1432 -8.90674 5.09352e-10
467 1 14.1514 11.007 14.1447 -8.90466 5.12113e-10
468 1 17.296 11.007 14.1466 -8.90466 5.14574e-10
469 1 20.4405 11.007 14.1474 -8.9047 5.15091e-10
470 1 1.5712 14.1519 14.1475 -8.9047 5.14993e-10
471 1 4.71575 14.152 14.1469 -8.90465 5.14653e-10
472 1 7.8604 14.1524 14.1455 -8.9044 5.13052e-10
473 1 11.0058 14.1525 14.1447 -8.90466 5.11098e-10
474 1 14.1513 14.1524 14.1455 -8.9044 5.13434e-10
475 1 17.2959 14.152 14.1469 -8.90465 5.15087e-10
476 1 20.4405 14.1519 14.1475 -8.9047 5.15171e-10
477 1 1.57127 17.2967 14.1478 -8.90468 5.14311e-10
478 1 4.71598 17.2968 14.1475 -8.90465 5.14117e-10
479 1 7.86077 17.297 14.1469 -8.90465 5.12364e-10
480 1 11.0058 17.2971 14.1466 -8.90466 5.1136e-10
481 1 14.1509 17.297 14.1469 -8.90465 5.127e-10
482 1 17.2957 17.2968 14.1475 -8.90465 5.14513e-10
483 1 20.4404 17.2967 14.1478 -8.90468 5.14475e-10
484 1 1.57131 20.4415 14.1479 -8.9047 5.12922e-10
485 1 4.71611 20.4415 14.1478 -8.90468 5.12311e-10
486 1 7.86094 20.4416 14.1475 -8.9047 5.10924e-10
487 1 11.0058 20.4416 14.1474 -8.9047 5.10284e-10
488 1 14.1508 20.4416 14.1475 -8.9047 5.11223e-10
489 1 17.2956 20.4415 14.1478 -8.90468 5.12665e-10
490 1 20.4404 20.4415 14.1479 -8.9047 5.13072e-10
491 1 22.0128 -3.92949e-15 15.7172 -8.88818 1.0554e-09
492 1 1.57142 1.57255 17.279 -8.90297 1.73611e-09
493 1 3.1438 -4.1812e-15 15.7172 -8.88819 1.05476e-09
494 1 4.71641 1.5726 17.279 -8.90302 1.7349e-09
495 1 6.28862 -1.65223e-15 15.7171 -8.88817 1.05348e-09
496 1 7.86113 1.57254 17.2788 -8.9031 1.73296e-09
497 1 9.43342 1.67407e-15 15.7169 -8.8882 1.05192e-09
498 1 11.0058 1.5725 17.2787 -8.90309 1.73161e-09
499 1 12.5782 2.34425e-15 15.7169 -8.8882 1.05208e-09
500 1 14.1505 1.57254 17.2788 -8.9031 1.7332e-09
501 1 15.723 8.42477e-16 15.7171 -8.88817 1.05385e-09
502 1 17.2952 1.5726 17.279 -8.90302 1.73517e-09
503 1 18.8679 -1.70805e-15 15.7172 -8.88819 1.05504e-09
504 1 20.4402 1.57255 17.279 -8.90297 1.73623e-09
505 1 22.0128 3.14492 15.7172 -8.88819 1.05662e-09
506 1 1.57147 4.71755 17.279 -8.90302 1.73964e-09
507 1 3.14379 3.14491 15.7171 -8.88818 1.056e-09
508 1 4.71651 4.71764 17.2789 -8.90324 1.73885e-09
509 1 6.28855 3.14478 15.7169 -8.88809 1.05527e-09
510 1 7.86098 4.71722 17.2782 -8.90292 1.73958e-09
511 1 9.43338 3.14464 15.7165 -8.88817 1.05333e-09
512 1 11.0058 4.71706 17.2777 -8.90284 1.73674e-09
513 1 12.5783 3.14464 15.7165 -8.88817 1.05352e-09
514 1 14.1507 4.71722 17.2782 -8.90292 1.73991e-09
515 1 15.7231 3.14478 15.7169 -8.88809 1.05566e-09
516 1 17.2951 4.71764 17.2789 -8.90324 1.73917e-09
517 1 18.8679 3.14491 15.7171 -8.88818 1.05628e-09
518 1 20.4402 4.71755 17.279 -8.90302 1.73977e-09
519 1 22.0128 6.28974 15.7171 -8.88817 1.05927e-09
520 1 1.57141 7.86227 17.2788 -8.9031 1.74365e-09
521 1 3.14366 6.28967 15.7169 -8.88809 1.05937e-09
522 1 4.71609 7.86211 17.2782 -8.90292 1.74595e-09
523 1 6.28824 6.28936 15.7161 -8.8877 1.0609e-09
524 1 7.85991 7.86105 17.2759 -8.90267 1.74998e-09
525 1 9.43315 6.28897 15.7149 -8.88787 1.05673e-09
526 1 11.0058 7.86102 17.2737 -8.90497 1.74142e-09
527 1 12.5785 6.28897 15.7149 -8.88787 1.05696e-09
528 1 14.1517 7.86105 17.2759 -8.90267 1.75058e-09
529 1 15.7234 6.28936 15.7161 -8.8877 1.06141e-09
530 1 17.2955 7.86211 17.2782 -8.90292 1.74641e-09
531 1 18.868 6.28967 15.7169 -8.88809 1.0597e-09
532 1 20.4402 7.86227 17.2788 -8.9031 1.74382e-09
533 1 22.0128 9.43454 15.7169 -8.8882 1.06023e-09
534 1 1.57137 11.007 17.2787 -8.90309 1.74457e-09
535 1 3.14352 9.4345 15.7165 -8.88817 1.06016e-09
536 1 4.71593 11.007 17.2777 -8.90284 1.74625e-09
537 1 6.28785 9.43427 15.7149 -8.88787 1.0604e-09
538 1 7.85989 11.007 17.2737 -8.90497 1.74731e-09
539 1 9.43257 9.43369 15.7118 -8.88714 1.05481e-09
540 1 11.0058 11.007 17.2662 -8.91709 1.74568e-09
541 1 12.5791 9.43369 15.7118 -8.88714 1.05503e-09
542 1 14.1517 11.007 17.2737 -8.90497 1.74785e-09
543 1 15.7238 9.43427 15.7149 -8.88787 1.06094e-09
544 1 17.2957 11.007 17.2777 -8.90284 1.74674e-09
545 1 18.8681 9.4345 15.7165 -8.88817 1.06052e-09
546 1 20.4403 11.007 17.2787 -8.90309 1.74475e-09
547 1 22.0128 12.5794 15.7169 -8.8882 1.06023e-09
548 1 1.57141 14.1516 17.2788 -8.9031 1.74365e-09
549 1 3.14352 12.5794 15.7165 -8.88817 1.06016e-09
550 1 4.71609 14.1518 17.2782 -8.90292 1.74595e-09
551 1 6.28785 12.5796 15.7149 -8.88787 1.0604e-09
552 1 7.85991 14.1529 17.2759 -8.90267 1.74998e-09
553 1 9.43257 12.5802 15.7118 -8.88714 1.05481e-09
554 1 11.0058 14.1529 17.2737 -8.90497 1.74142e-09
555 1 12.5791 12.5802 15.7118 -8.88714 1.05503e-09
556 1 14.1517 14.1529 17.2759 -8.90267 1.75058e-09
557 1 15.7238 12.5796 15.7149 -8.88787 1.06094e-09
558 1 17.2955 14.1518 17.2782 -8.90292 1.74641e-09
559 1 18.8681 12.5794 15.7165 -8.88817 1.06052e-09
560 1 20.4402 14.1516 17.2788 -8.9031 1.74382e-09
561 1 22.0128 15.7242 15.7171 -8.88817 1.05927e-09
562 1 1.57147 17.2964 17.279 -8.90302 1.73964e-09
563 1 3.14366 15.7242 15.7169 -8.88809 1.05937e-09
564 1 4.71651 17.2963 17.2789 -8.90324 1.73885e-09
565 1 6.28824 15.7245 15.7161 -8.8877 1.0609e-09
566 1 7.86098 17.2967 17.2782 -8.90292 1.73958e-09
567 1 9.43315 15.7249 15.7149 -8.88787 1.05673e-09
568 1 11.0058 17.2968 17.2777 -8.90284 1.73674e-09
569 1 12.5785 15.7249 15.7149 -8.88787 1.05696e-09
570 1 14.1507 17.2967 17.2782 -8.90292 1.73991e-09
571 1 15.7234 15.7245 15.7161 -8.8877 1.06141e-09
572 1 17.2951 17.2963 17.2789 -8.90324 1.73917e-09
573 1 18.868 15.7242 15.7169 -8.88809 1.0597e-09
574 1 20.4402 17.2964 17.279 -8.90302 1.73977e-09
575 1 22.0128 18.869 15.7172 -8.88819 1.05662e-09
576 1 1.57142 20.4413 17.279 -8.90297 1.73611e-09
577 1 3.14379 18.869 15.7171 -8.88818 1.056e-09
578 1 4.71641 20.4413 17.279 -8.90302 1.7349e-09
579 1 6.28855 18.8691 15.7169 -8.88809 1.05527e-09
580 1 7.86113 20.4414 17.2788 -8.9031 1.73296e-09
581 1 9.43338 18.8693 15.7165 -8.88817 1.05333e-09
582 1 11.0058 20.4414 17.2787 -8.90309 1.73161e-09