ITEM: TIMESTEP
378
ITEM: NUMBER OF ATOMS
736
ITEM: BOX BOUNDS pp pp pp
0.0000000000000000e+00 2.2013900999999997e+01
0.0000000000000000e+00 2.2013900999999997e+01
0.0000000000000000e+00 5.3462330999999999e+01
ITEM: ATOMS id type x y z c_pot c_ke
1 1 -0.00100356 -8.48921e-16 0.097635 -7.40188 3.9892e-09
2 1 1.57139 1.5724 1.62442 -8.68379 3.55514e-09
3 1 3.14379 -1.04872e-15 0.0976085 -7.40187 3.99282e-09
4 1 4.7162 1.57239 1.62435 -8.68379 3.55784e-09
5 1 6.28862 -1.11615e-15 0.0975491 -7.40185 3.99732e-09
6 1 7.86106 1.57239 1.62427 -8.68378 3.56018e-09
7 1 9.4335 -1.17996e-15 0.0975016 -7.40183 3.99932e-09
8 1 11.0059 1.57239 1.62423 -8.68378 3.56042e-09
9 1 12.5784 -1.06277e-15 0.0975016 -7.40183 3.99732e-09
10 1 14.1508 1.57239 1.62427 -8.68378 3.55838e-09
11 1 15.7233 -1.0103e-15 0.0975492 -7.40185 3.99283e-09
12 1 17.2957 1.57239 1.62435 -8.68379 3.55559e-09
13 1 18.8681 -2.45999e-16 0.0976086 -7.40187 3.98921e-09
14 1 20.4405 1.5724 1.62442 -8.68379 3.55414e-09
15 1 -0.00100355 3.14479 0.0976086 -7.40187 3.98956e-09
16 1 1.57139 4.71721 1.62435 -8.68379 3.55582e-09
17 1 3.14378 3.14479 0.0975793 -7.40186 3.99313e-09
18 1 4.7162 4.7172 1.62427 -8.68378 3.5584e-09
19 1 6.28861 3.14478 0.0975136 -7.40184 3.99752e-09
20 1 7.86105 4.71719 1.62417 -8.68377 3.56059e-09
21 1 9.43349 3.14477 0.0974609 -7.40182 3.99942e-09
22 1 11.0059 4.71719 1.62412 -8.68377 3.56076e-09
23 1 12.5784 3.14477 0.0974609 -7.40182 3.99742e-09
24 1 14.1508 4.71719 1.62417 -8.68377 3.5588e-09
25 1 15.7233 3.14478 0.0975136 -7.40184 3.99303e-09
26 1 17.2957 4.7172 1.62427 -8.68378 3.55616e-09
27 1 18.8681 3.14479 0.0975793 -7.40186 3.98953e-09
28 1 20.4405 4.71721 1.62435 -8.68379 3.55482e-09
29 1 -0.00100354 6.28962 0.0975492 -7.40185 3.99039e-09
30 1 1.57138 7.86206 1.62427 -8.68378 3.5567e-09
31 1 3.14378 6.28962 0.0975136 -7.40184 3.99385e-09
32 1 4.71619 7.86206 1.62417 -8.68377 3.55914e-09
33 1 6.2886 6.28961 0.0974333 -7.40181 3.99798e-09
34 1 7.86104 7.86205 1.62404 -8.68377 3.56114e-09
35 1 9.43349 6.2896 0.0973686 -7.40178 3.99965e-09
36 1 11.0059 7.86205 1.62398 -8.68376 3.56122e-09
37 1 12.5784 6.2896 0.0973686 -7.40178 3.99765e-09
38 1 14.1508 7.86205 1.62404 -8.68377 3.55935e-09
39 1 15.7233 6.28961 0.0974333 -7.40181 3.99349e-09
40 1 17.2957 7.86206 1.62417 -8.68377 3.55691e-09
41 1 18.8681 6.28962 0.0975136 -7.40184 3.99025e-09
42 1 20.4405 7.86206 1.62427 -8.68378 3.5557e-09
43 1 -0.00100354 9.4345 0.0975016 -7.40183 3.99108e-09
44 1 1.57138 11.007 1.62423 -8.68378 3.55711e-09
45 1 3.14377 9.4345 0.0974609 -7.40182 3.99444e-09
46 1 4.71618 11.007 1.62412 -8.68377 3.55949e-09
47 1 6.28859 9.43449 0.0973686 -7.40178 3.99836e-09
48 1 7.86104 11.007 1.62398 -8.68376 3.5614e-09
49 1 9.43349 9.43449 0.0972937 -7.40175 3.99984e-09
50 1 11.0059 11.007 1.62392 -8.68376 3.56143e-09
51 1 12.5784 9.43449 0.0972937 -7.40175 3.99785e-09
52 1 14.1508 11.007 1.62398 -8.68376 3.55961e-09
53 1 15.7233 9.43449 0.0973686 -7.40178 3.99387e-09
54 1 17.2957 11.007 1.62412 -8.68377 3.55725e-09
55 1 18.8681 9.4345 0.0974609 -7.40182 3.99084e-09
56 1 20.4405 11.007 1.62423 -8.68378 3.55611e-09
57 1 -0.00100354 12.5794 0.0975016 -7.40183 3.99108e-09
58 1 1.57138 14.1518 1.62427 -8.68378 3.5567e-09
59 1 3.14377 12.5794 0.0974609 -7.40182 3.99444e-09
60 1 4.71619 14.1518 1.62417 -8.68377 3.55914e-09
61 1 6.28859 12.5794 0.0973686 -7.40178 3.99836e-09
62 1 7.86104 14.1519 1.62404 -8.68377 3.56114e-09
63 1 9.43349 12.5794 0.0972937 -7.40175 3.99984e-09
64 1 11.0059 14.1519 1.62398 -8.68376 3.56122e-09
65 1 12.5784 12.5794 0.0972937 -7.40175 3.99785e-09
66 1 14.1508 14.1519 1.62404 -8.68377 3.55935e-09
67 1 15.7233 12.5794 0.0973686 -7.40178 3.99387e-09
68 1 17.2957 14.1518 1.62417 -8.68377 3.55691e-09
69 1 18.8681 12.5794 0.0974609 -7.40182 3.99084e-09
70 1 20.4405 14.1518 1.62427 -8.68378 3.5557e-09
71 1 -0.00100354 15.7243 0.0975492 -7.40185 3.99039e-09
72 1 1.57139 17.2967 1.62435 -8.68379 3.55582e-09
73 1 3.14378 15.7243 0.0975136 -7.40184 3.99385e-09
74 1 4.7162 17.2967 1.62427 -8.68378 3.5584e-09
75 1 6.2886 15.7243 0.0974333 -7.40181 3.99798e-09
76 1 7.86105 17.2967 1.62417 -8.68377 3.56059e-09
77 1 9.43349 15.7243 0.0973686 -7.40178 3.99965e-09
78 1 11.0059 17.2967 1.62412 -8.68377 3.56076e-09
79 1 12.5784 15.7243 0.0973686 -7.40178 3.99765e-09
80 1 14.1508 17.2967 1.62417 -8.68377 3.5588e-09
81 1 15.7233 15.7243 0.0974333 -7.40181 3.99349e-09
82 1 17.2957 17.2967 1.62427 -8.68378 3.55616e-09
83 1 18.8681 15.7243 0.0975136 -7.40184 3.99025e-09
84 1 20.4405 17.2967 1.62435 -8.68379 3.55482e-09
85 1 -0.00100355 18.8691 0.0976086 -7.40187 3.98956e-09
86 1 1.57139 20.4415 1.62442 -8.68379 3.55514e-09
87 1 3.14378 18.8691 0.0975793 -7.40186 3.99313e-09
88 1 4.7162 20.4415 1.62435 -8.68379 3.55784e-09
89 1 6.28861 18.8691 0.0975136 -7.40184 3.99752e-09
90 1 7.86106 20.4415 1.62427 -8.68378 3.56018e-09
91 1 9.43349 18.8691 0.0974609 -7.40182 3.99942e-09
92 1 11.0059 20.4415 1.62423 -8.68378 3.56042e-09
93 1 12.5784 18.8691 0.0974609 -7.40182 3.99742e-09
94 1 14.1508 20.4415 1.62427 -8.68378 3.55838e-09
95 1 15.7233 18.8691 0.0975136 -7.40184 3.99303e-09
96 1 17.2957 20.4415 1.62435 -8.68379 3.55559e-09
97 1 18.8681 18.8691 0.0975793 -7.40186 3.98953e-09
98 1 20.4405 20.4415 1.62442 -8.68379 3.55414e-09
99 1 -0.00101222 -9.02135e-16 3.15455 -8.93805 2.99368e-09
100 1 1.57138 1.5724 4.74383 -8.90301 2.23558e-09
101 1 3.14379 -1.23239e-15 3.15451 -8.93805 2.99474e-09
102 1 4.71619 1.57239 4.74374 -8.90301 2.2366e-09
103 1 6.28863 -1.33995e-15 3.15442 -8.93806 2.99648e-09
104 1 7.86104 1.57239 4.74364 -8.90301 2.23784e-09
105 1 9.4335 -1.56833e-15 3.15435 -8.93807 2.99758e-09
106 1 11.0059 1.57238 4.74359 -8.90301 2.23838e-09
107 1 12.5784 -1.56864e-15 3.15435 -8.93807 2.99724e-09
108 1 14.1508 1.57239 4.74364 -8.90301 2.23781e-09
109 1 15.7233 -1.14101e-15 3.15442 -8.93806 2.9957e-09
110 1 17.2957 1.57239 4.74374 -8.90301 2.23656e-09
111 1 18.8681 -9.09168e-16 3.15451 -8.93805 2.99411e-09
112 1 20.4405 1.5724 4.74383 -8.90301 2.23556e-09
113 1 -0.00101221 3.14481 3.15451 -8.93805 2.99409e-09
114 1 1.57137 4.71721 4.74374 -8.90301 2.23637e-09
115 1 3.14379 3.1448 3.15446 -8.93806 2.99513e-09
116 1 4.71618 4.7172 4.74364 -8.90301 2.23733e-09
117 1 6.28862 3.14479 3.15436 -8.93807 2.99681e-09
118 1 7.86103 4.71718 4.7435 -8.90301 2.23851e-09
119 1 9.43349 3.14479 3.15428 -8.93808 2.99788e-09
120 1 11.0059 4.71718 4.74344 -8.90301 2.23901e-09
121 1 12.5784 3.14479 3.15428 -8.93808 2.99754e-09
122 1 14.1508 4.71718 4.7435 -8.90301 2.23848e-09
123 1 15.7233 3.14479 3.15436 -8.93807 2.99604e-09
124 1 17.2957 4.7172 4.74364 -8.90301 2.23729e-09
125 1 18.8681 3.1448 3.15446 -8.93806 2.9945e-09
126 1 20.4405 4.71721 4.74374 -8.90301 2.23636e-09
127 1 -0.0010122 6.28964 3.15442 -8.93806 2.99507e-09
128 1 1.57137 7.86206 4.74364 -8.90301 2.23747e-09
129 1 3.14378 6.28963 3.15436 -8.93807 2.99606e-09
130 1 4.71616 7.86205 4.7435 -8.90301 2.23839e-09
131 1 6.28861 6.28962 3.15424 -8.93808 2.99764e-09
132 1 7.86102 7.86204 4.74333 -8.90301 2.23949e-09
133 1 9.43349 6.28962 3.15413 -8.9381 2.9986e-09
134 1 11.0059 7.86203 4.74325 -8.90302 2.23995e-09
135 1 12.5784 6.28962 3.15413 -8.9381 2.99826e-09
136 1 14.1508 7.86204 4.74333 -8.90301 2.23948e-09
137 1 15.7233 6.28962 3.15424 -8.93808 2.99687e-09
138 1 17.2957 7.86205 4.7435 -8.90301 2.23836e-09
139 1 18.8681 6.28963 3.15436 -8.93807 2.99543e-09
140 1 20.4405 7.86206 4.74364 -8.90301 2.23746e-09
141 1 -0.00101219 9.43451 3.15435 -8.93807 2.9959e-09
142 1 1.57136 11.007 4.74359 -8.90301 2.238e-09
143 1 3.14378 9.43451 3.15428 -8.93808 2.99686e-09
144 1 4.71616 11.007 4.74344 -8.90301 2.23891e-09
145 1 6.2886 9.4345 3.15413 -8.9381 2.99837e-09
146 1 7.86101 11.007 4.74325 -8.90302 2.23999e-09
147 1 9.43348 9.4345 3.15401 -8.93812 2.99925e-09
148 1 11.0059 11.007 4.74316 -8.90302 2.24043e-09
149 1 12.5784 9.4345 3.15401 -8.93812 2.99891e-09
150 1 14.1508 11.007 4.74325 -8.90302 2.23998e-09
151 1 15.7233 9.4345 3.15413 -8.9381 2.9976e-09
152 1 17.2957 11.007 4.74344 -8.90301 2.23889e-09
153 1 18.8681 9.43451 3.15428 -8.93808 2.99624e-09
154 1 20.4405 11.007 4.74359 -8.90301 2.23798e-09
155 1 -0.00101219 12.5794 3.15435 -8.93807 2.9959e-09
156 1 1.57137 14.1518 4.74364 -8.90301 2.23747e-09
157 1 3.14378 12.5794 3.15428 -8.93808 2.99686e-09
158 1 4.71616 14.1518 4.7435 -8.90301 2.23839e-09
159 1 6.2886 12.5794 3.15413 -8.9381 2.99837e-09
160 1 7.86102 14.1519 4.74333 -8.90301 2.23949e-09
161 1 9.43348 12.5794 3.15401 -8.93812 2.99925e-09
162 1 11.0059 14.1519 4.74325 -8.90302 2.23995e-09
163 1 12.5784 12.5794 3.15401 -8.93812 2.99891e-09
164 1 14.1508 14.1519 4.74333 -8.90301 2.23948e-09
165 1 15.7233 12.5794 3.15413 -8.9381 2.9976e-09
166 1 17.2957 14.1518 4.7435 -8.90301 2.23836e-09
167 1 18.8681 12.5794 3.15428 -8.93808 2.99624e-09
168 1 20.4405 14.1518 4.74364 -8.90301 2.23746e-09
169 1 -0.0010122 15.7243 3.15442 -8.93806 2.99507e-09
170 1 1.57137 17.2967 4.74374 -8.90301 2.23637e-09
171 1 3.14378 15.7243 3.15436 -8.93807 2.99606e-09
172 1 4.71618 17.2967 4.74364 -8.90301 2.23733e-09
173 1 6.28861 15.7243 3.15424 -8.93808 2.99764e-09
174 1 7.86103 17.2967 4.7435 -8.90301 2.23851e-09
175 1 9.43349 15.7243 3.15413 -8.9381 2.9986e-09
176 1 11.0059 17.2967 4.74344 -8.90301 2.23901e-09
177 1 12.5784 15.7243 3.15413 -8.9381 2.99826e-09
178 1 14.1508 17.2967 4.7435 -8.90301 2.23848e-09
179 1 15.7233 15.7243 3.15424 -8.93808 2.99687e-09
180 1 17.2957 17.2967 4.74364 -8.90301 2.23729e-09
181 1 18.8681 15.7243 3.15436 -8.93807 2.99543e-09
182 1 20.4405 17.2967 4.74374 -8.90301 2.23636e-09
183 1 -0.00101221 18.8691 3.15451 -8.93805 2.99409e-09
184 1 1.57138 20.4415 4.74383 -8.90301 2.23558e-09
185 1 3.14379 18.8691 3.15446 -8.93806 2.99513e-09
186 1 4.71619 20.4415 4.74374 -8.90301 2.2366e-09
187 1 6.28862 18.8691 3.15436 -8.93807 2.99681e-09
188 1 7.86104 20.4415 4.74364 -8.90301 2.23784e-09
189 1 9.43349 18.8691 3.15428 -8.93808 2.99788e-09
190 1 11.0059 20.4415 4.74359 -8.90301 2.23838e-09
191 1 12.5784 18.8691 3.15428 -8.93808 2.99754e-09
192 1 14.1508 20.4415 4.74364 -8.90301 2.23781e-09
193 1 15.7233 18.8691 3.15436 -8.93807 2.99604e-09
194 1 17.2957 20.4415 4.74374 -8.90301 2.23656e-09
195 1 18.8681 18.8691 3.15446 -8.93806 2.9945e-09
196 1 20.4405 20.4415 4.74383 -8.90301 2.23556e-09
197 1 -0.00103041 -1.8041e-15 6.3056 -8.88811 1.36483e-09
198 1 1.57134 1.57238 7.87482 -8.90467 6.68246e-10
199 1 3.14376 -1.59066e-15 6.30555 -8.88811 1.3654e-09
200 1 4.71613 1.57237 7.8747 -8.90467 6.69048e-10
201 1 6.28859 -1.14712e-15 6.30544 -8.88812 1.36668e-09
202 1 7.86099 1.57235 7.87456 -8.90467 6.70125e-10
203 1 9.43347 -1.38841e-15 6.30534 -8.88812 1.36773e-09
204 1 11.0059 1.57235 7.87449 -8.90467 6.70639e-10
205 1 12.5784 -1.26539e-15 6.30534 -8.88812 1.36773e-09
206 1 14.1508 1.57235 7.87456 -8.90467 6.70166e-10
207 1 15.7233 -1.85221e-15 6.30544 -8.88812 1.36669e-09
208 1 17.2957 1.57237 7.8747 -8.90467 6.6909e-10
209 1 18.8681 -1.87536e-15 6.30555 -8.88811 1.3654e-09
210 1 20.4405 1.57238 7.87482 -8.90467 6.68262e-10
211 1 -0.00103041 3.14479 6.30555 -8.88811 1.3652e-09
212 1 1.57133 4.71717 7.8747 -8.90467 6.68719e-10
213 1 3.14375 3.14478 6.30549 -8.88811 1.36574e-09
214 1 4.7161 4.71714 7.87454 -8.90466 6.69493e-10
215 1 6.28857 3.14476 6.30535 -8.88812 1.36701e-09
216 1 7.86096 4.7171 7.87433 -8.90467 6.70593e-10
217 1 9.43346 3.14474 6.30524 -8.88812 1.36804e-09
218 1 11.0059 4.71708 7.87423 -8.90467 6.71117e-10
219 1 12.5784 3.14474 6.30524 -8.88812 1.36805e-09
220 1 14.1509 4.7171 7.87433 -8.90467 6.70637e-10
221 1 15.7233 3.14476 6.30535 -8.88812 1.36702e-09
222 1 17.2957 4.71714 7.87454 -8.90466 6.6954e-10
223 1 18.8681 3.14478 6.30549 -8.88811 1.36575e-09
224 1 20.4405 4.71717 7.8747 -8.90467 6.68737e-10
225 1 -0.00103039 6.28962 6.30544 -8.88812 1.3662e-09
226 1 1.57131 7.86203 7.87456 -8.90467 6.69558e-10
227 1 3.14373 6.2896 6.30535 -8.88812 1.36672e-09
228 1 4.71606 7.862 7.87433 -8.90467 6.70381e-10
229 1 6.28854 6.28957 6.30515 -8.88812 1.36795e-09
230 1 7.86092 7.86196 7.87401 -8.90469 6.71528e-10
231 1 9.43345 6.28955 6.30499 -8.88813 1.36894e-09
232 1 11.0059 7.86194 7.87386 -8.90471 6.72048e-10
233 1 12.5784 6.28955 6.30499 -8.88813 1.36895e-09
234 1 14.1509 7.86196 7.87401 -8.90469 6.71578e-10
235 1 15.7233 6.28957 6.30515 -8.88812 1.36797e-09
236 1 17.2958 7.862 7.87433 -8.90467 6.70436e-10
237 1 18.8681 6.2896 6.30535 -8.88812 1.36673e-09
238 1 20.4405 7.86203 7.87456 -8.90467 6.6958e-10
239 1 -0.00103038 9.4345 6.30534 -8.88812 1.36713e-09
240 1 1.5713 11.007 7.87449 -8.90467 6.70012e-10
241 1 3.14371 9.43449 6.30524 -8.88812 1.36767e-09
242 1 4.71604 11.007 7.87423 -8.90467 6.70888e-10
243 1 6.28852 9.43448 6.30499 -8.88813 1.36891e-09
244 1 7.8609 11.007 7.87386 -8.90471 6.72089e-10
245 1 9.43344 9.43447 6.30478 -8.88815 1.36988e-09
246 1 11.0059 11.007 7.87367 -8.90475 6.72609e-10
247 1 12.5784 9.43447 6.30478 -8.88815 1.36989e-09
248 1 14.1509 11.007 7.87386 -8.90471 6.72141e-10
249 1 15.7233 9.43448 6.30499 -8.88813 1.36894e-09
250 1 17.2958 11.007 7.87423 -8.90467 6.70947e-10
251 1 18.8681 9.43449 6.30524 -8.88812 1.36768e-09
252 1 20.4405 11.007 7.87449 -8.90467 6.70035e-10
253 1 -0.00103038 12.5794 6.30534 -8.88812 1.36713e-09
254 1 1.57131 14.1519 7.87456 -8.90467 6.69558e-10
255 1 3.14371 12.5794 6.30524 -8.88812 1.36767e-09
256 1 4.71606 14.1519 7.87433 -8.90467 6.70381e-10
257 1 6.28852 12.5794 6.30499 -8.88813 1.36891e-09
258 1 7.86092 14.1519 7.87401 -8.90469 6.71528e-10
259 1 9.43344 12.5794 6.30478 -8.88815 1.36988e-09
260 1 11.0059 14.152 7.87386 -8.90471 6.72048e-10
261 1 12.5784 12.5794 6.30478 -8.88815 1.36989e-09
262 1 14.1509 14.1519 7.87401 -8.90469 6.71578e-10
263 1 15.7233 12.5794 6.30499 -8.88813 1.36894e-09
264 1 17.2958 14.1519 7.87433 -8.90467 6.70436e-10
265 1 18.8681 12.5794 6.30524 -8.88812 1.36768e-09
266 1 20.4405 14.1519 7.87456 -8.90467 6.6958e-10
267 1 -0.00103039 15.7243 6.30544 -8.88812 1.3662e-09
268 1 1.57133 17.2967 7.8747 -8.90467 6.68719e-10
269 1 3.14373 15.7243 6.30535 -8.88812 1.36672e-09
270 1 4.7161 17.2968 7.87454 -8.90466 6.69493e-10
271 1 6.28854 15.7243 6.30515 -8.88812 1.36795e-09
272 1 7.86096 17.2968 7.87433 -8.90467 6.70593e-10
273 1 9.43345 15.7244 6.30499 -8.88813 1.36894e-09
274 1 11.0059 17.2968 7.87423 -8.90467 6.71117e-10
275 1 12.5784 15.7244 6.30499 -8.88813 1.36895e-09
276 1 14.1509 17.2968 7.87433 -8.90467 6.70637e-10
277 1 15.7233 15.7243 6.30515 -8.88812 1.36797e-09
278 1 17.2957 17.2968 7.87454 -8.90466 6.6954e-10
279 1 18.8681 15.7243 6.30535 -8.88812 1.36673e-09
280 1 20.4405 17.2967 7.8747 -8.90467 6.68737e-10
281 1 -0.00103041 18.8691 6.30555 -8.88811 1.3652e-09
282 1 1.57134 20.4415 7.87482 -8.90467 6.68246e-10
283 1 3.14375 18.8691 6.30549 -8.88811 1.36574e-09
284 1 4.71613 20.4415 7.8747 -8.90467 6.69048e-10
285 1 6.28857 18.8691 6.30535 -8.88812 1.36701e-09
286 1 7.86099 20.4415 7.87456 -8.90467 6.70125e-10
287 1 9.43346 18.8692 6.30524 -8.88812 1.36804e-09
288 1 11.0059 20.4416 7.87449 -8.90467 6.70639e-10
289 1 12.5784 18.8692 6.30524 -8.88812 1.36805e-09
290 1 14.1508 20.4415 7.87456 -8.90467 6.70166e-10
291 1 15.7233 18.8691 6.30535 -8.88812 1.36702e-09
292 1 17.2957 20.4415 7.8747 -8.90467 6.6909e-10
293 1 18.8681 18.8691 6.30549 -8.88811 1.36575e-09
294 1 20.4405 20.4415 7.87482 -8.90467 6.68262e-10
295 1 -0.00105471 -1.49497e-15 9.44319 -8.89866 1.74574e-10
296 1 1.57131 1.57237 11.0113 -8.9001 2.59456e-14
297 1 3.14371 -1.34497e-15 9.44312 -8.89865 1.74829e-10
298 1 4.71608 1.57234 11.0112 -8.90009 3.85e-14
299 1 6.28853 -8.83326e-16 9.44296 -8.89865 1.75464e-10
300 1 7.86094 1.57231 11.011 -8.90009 3.9941e-14
301 1 9.43343 -1.29332e-15 9.44283 -8.89865 1.7601e-10
302 1 11.0059 1.57229 11.0109 -8.90009 3.81228e-14
303 1 12.5784 -1.34983e-15 9.44283 -8.89865 1.76006e-10
304 1 14.1508 1.57231 11.011 -8.90009 3.67049e-14
305 1 15.7233 -1.54007e-15 9.44296 -8.89865 1.75449e-10
306 1 17.2957 1.57234 11.0112 -8.90009 2.63964e-14
307 1 18.8681 -1.90012e-15 9.44312 -8.89865 1.74811e-10
308 1 20.4405 1.57237 11.0113 -8.9001 1.78398e-14
309 1 -0.00105471 3.14476 9.44312 -8.89865 1.7462e-10
310 1 1.57128 4.71715 11.0112 -8.90009 2.31381e-14
311 1 3.14369 3.14474 9.44304 -8.89865 1.74862e-10
312 1 4.716 4.71707 11.0109 -8.90006 3.66975e-14
313 1 6.2885 3.14469 9.44283 -8.89864 1.7551e-10
314 1 7.86086 4.71696 11.0106 -8.90007 3.91867e-14
315 1 9.43341 3.14465 9.44265 -8.89865 1.76084e-10
316 1 11.0059 4.71692 11.0104 -8.90008 3.96741e-14
317 1 12.5784 3.14465 9.44265 -8.89865 1.76081e-10
318 1 14.1509 4.71696 11.0106 -8.90007 4.21147e-14
319 1 15.7233 3.14469 9.44283 -8.89864 1.75497e-10
320 1 17.2958 4.71707 11.0109 -8.90006 3.1076e-14
321 1 18.8681 3.14474 9.44304 -8.89865 1.74845e-10
322 1 20.4405 4.71715 11.0112 -8.90009 1.75806e-14
323 1 -0.00105469 6.28958 9.44296 -8.89865 1.7492e-10
324 1 1.57124 7.86201 11.011 -8.90009 2.33906e-14
325 1 3.14364 6.28955 9.44283 -8.89864 1.75163e-10
326 1 4.71589 7.86193 11.0106 -8.90007 3.58398e-14
327 1 6.28842 6.28947 9.44248 -8.89864 1.75832e-10
328 1 7.86074 7.8618 11.0099 -8.90011 4.35771e-14
329 1 9.43337 6.28941 9.44217 -8.89865 1.76468e-10
330 1 11.0059 7.86175 11.0096 -8.90015 5.12337e-14
331 1 12.5784 6.28941 9.44217 -8.89865 1.76469e-10
332 1 14.151 7.8618 11.0099 -8.90011 5.38321e-14
333 1 15.7234 6.28947 9.44248 -8.89864 1.75827e-10
334 1 17.2959 7.86193 11.0106 -8.90007 4.01035e-14
335 1 18.8682 6.28955 9.44283 -8.89864 1.75153e-10
336 1 20.4405 7.86201 11.011 -8.90009 2.20339e-14
337 1 -0.00105467 9.43448 9.44283 -8.89865 1.7532e-10
338 1 1.57122 11.007 11.0109 -8.90009 2.51657e-14
339 1 3.1436 9.43447 9.44265 -8.89865 1.75608e-10
340 1 4.71585 11.007 11.0104 -8.90008 3.7316e-14
341 1 6.28836 9.43443 9.44217 -8.89865 1.76381e-10
342 1 7.86068 11.007 11.0096 -8.90015 5.03748e-14
343 1 9.43334 9.43439 9.44171 -8.89872 1.77084e-10
344 1 11.0059 11.007 11.0091 -8.90037 6.26109e-14
345 1 12.5785 9.43439 9.44171 -8.89872 1.77086e-10
346 1 14.1511 11.007 11.0096 -8.90015 6.17803e-14
347 1 15.7234 9.43443 9.44217 -8.89865 1.76382e-10
348 1 17.2959 11.007 11.0104 -8.90008 4.52855e-14
349 1 18.8682 9.43447 9.44265 -8.89865 1.75603e-10
350 1 20.4405 11.007 11.0109 -8.90009 2.56314e-14
351 1 -0.00105467 12.5794 9.44283 -8.89865 1.7532e-10
352 1 1.57124 14.1519 11.011 -8.90009 2.33906e-14
353 1 3.1436 12.5794 9.44265 -8.89865 1.75608e-10
354 1 4.71589 14.152 11.0106 -8.90007 3.58398e-14
355 1 6.28836 12.5795 9.44217 -8.89865 1.76381e-10
356 1 7.86074 14.1521 11.0099 -8.90011 4.35772e-14
357 1 9.43334 12.5795 9.44171 -8.89872 1.77084e-10
358 1 11.0059 14.1522 11.0096 -8.90015 5.12337e-14
359 1 12.5785 12.5795 9.44171 -8.89872 1.77086e-10
360 1 14.151 14.1521 11.0099 -8.90011 5.38321e-14
361 1 15.7234 12.5795 9.44217 -8.89865 1.76382e-10
362 1 17.2959 14.152 11.0106 -8.90007 4.01035e-14
363 1 18.8682 12.5794 9.44265 -8.89865 1.75603e-10
364 1 20.4405 14.1519 11.011 -8.90009 2.20339e-14
365 1 -0.00105469 15.7243 9.44296 -8.89865 1.7492e-10
366 1 1.57128 17.2968 11.0112 -8.90009 2.31381e-14
367 1 3.14364 15.7243 9.44283 -8.89864 1.75163e-10
368 1 4.716 17.2968 11.0109 -8.90006 3.66975e-14
369 1 6.28842 15.7244 9.44248 -8.89864 1.75832e-10
370 1 7.86086 17.2969 11.0106 -8.90007 3.91867e-14
371 1 9.43337 15.7245 9.44217 -8.89865 1.76468e-10
372 1 11.0059 17.297 11.0104 -8.90008 3.96741e-14
373 1 12.5784 15.7245 9.44217 -8.89865 1.76469e-10
374 1 14.1509 17.2969 11.0106 -8.90007 4.21147e-14
375 1 15.7234 15.7244 9.44248 -8.89864 1.75827e-10
376 1 17.2958 17.2968 11.0109 -8.90006 3.1076e-14
377 1 18.8682 15.7243 9.44283 -8.89864 1.75153e-10
378 1 20.4405 17.2968 11.0112 -8.90009 1.75806e-14
379 1 -0.00105471 18.8691 9.44312 -8.89865 1.7462e-10
380 1 1.57131 20.4415 11.0113 -8.9001 2.59456e-14
381 1 3.14369 18.8692 9.44304 -8.89865 1.74862e-10
382 1 4.71608 20.4416 11.0112 -8.90009 3.85e-14
383 1 6.2885 18.8692 9.44283 -8.89864 1.7551e-10
384 1 7.86094 20.4416 11.011 -8.90009 3.9941e-14
385 1 9.43341 18.8692 9.44265 -8.89865 1.76084e-10
386 1 11.0059 20.4416 11.0109 -8.90009 3.81228e-14
387 1 12.5784 18.8692 9.44265 -8.89865 1.76081e-10
388 1 14.1508 20.4416 11.011 -8.90009 3.67049e-14
389 1 15.7233 18.8692 9.44283 -8.89864 1.75497e-10
390 1 17.2957 20.4416 11.0112 -8.90009 2.63965e-14
391 1 18.8681 18.8692 9.44304 -8.89865 1.74845e-10
392 1 20.4405 20.4415 11.0113 -8.9001 1.78398e-14
393 1 -0.00108148 -1.37332e-15 12.5796 -8.89868 1.67624e-10
394 1 3.1437 -1.46794e-15 12.5795 -8.89867 1.67436e-10
395 1 6.28851 -1.32238e-15 12.5793 -8.89867 1.66757e-10
396 1 9.4334 -4.1759e-16 12.5791 -8.89868 1.66074e-10
397 1 12.5783 -2.34329e-16 12.5791 -8.89868 1.66109e-10
398 1 15.7232 -9.18555e-16 12.5793 -8.89867 1.66831e-10
399 1 18.868 -1.62425e-15 12.5795 -8.89867 1.6749e-10
400 1 22.0128 3.14478 12.5795 -8.89867 1.6789e-10
401 1 3.14366 3.14474 12.5794 -8.89866 1.67729e-10
402 1 6.28844 3.14464 12.5791 -8.89864 1.67036e-10
403 1 9.43337 3.14455 12.5788 -8.89865 1.66242e-10
404 1 12.5784 3.14455 12.5788 -8.89865 1.66281e-10
405 1 15.7233 3.14464 12.5791 -8.89864 1.67117e-10
406 1 18.8681 3.14474 12.5794 -8.89866 1.67787e-10
407 1 22.0128 6.28959 12.5793 -8.89867 1.6806e-10
408 1 3.14355 6.28952 12.5791 -8.89864 1.67934e-10
409 1 6.28825 6.28933 12.5785 -8.89854 1.67316e-10
410 1 9.43326 6.28917 12.5779 -8.8986 1.66192e-10
411 1 12.5785 6.28917 12.5779 -8.8986 1.66239e-10
412 1 15.7235 6.28933 12.5785 -8.89854 1.67414e-10
413 1 18.8682 6.28952 12.5791 -8.89864 1.68002e-10
414 1 22.0128 9.43448 12.5791 -8.89868 1.67822e-10
415 1 3.14347 9.43445 12.5788 -8.89865 1.67574e-10
416 1 6.28809 9.43434 12.5779 -8.8986 1.66627e-10
417 1 9.43313 9.43421 12.5768 -8.89878 1.65222e-10
418 1 12.5786 9.43421 12.5768 -8.89878 1.65269e-10
419 1 15.7236 9.43434 12.5779 -8.8986 1.66733e-10
420 1 18.8683 9.43445 12.5788 -8.89865 1.67649e-10
421 1 22.0128 12.5794 12.5791 -8.89868 1.67822e-10
422 1 3.14347 12.5795 12.5788 -8.89865 1.67574e-10
423 1 6.28809 12.5796 12.5779 -8.8986 1.66627e-10
424 1 9.43313 12.5797 12.5768 -8.89878 1.65222e-10
425 1 12.5786 12.5797 12.5768 -8.89878 1.65269e-10
426 1 15.7236 12.5796 12.5779 -8.8986 1.66733e-10
427 1 18.8683 12.5795 12.5788 -8.89865 1.67649e-10
428 1 22.0128 15.7243 12.5793 -8.89867 1.6806e-10
429 1 3.14355 15.7244 12.5791 -8.89864 1.67934e-10
430 1 6.28825 15.7246 12.5785 -8.89854 1.67316e-10
431 1 9.43326 15.7247 12.5779 -8.8986 1.66192e-10
432 1 12.5785 15.7247 12.5779 -8.8986 1.66239e-10
433 1 15.7235 15.7246 12.5785 -8.89854 1.67414e-10
434 1 18.8682 15.7244 12.5791 -8.89864 1.68002e-10
435 1 22.0128 18.8691 12.5795 -8.89867 1.6789e-10
436 1 3.14366 18.8692 12.5794 -8.89866 1.67729e-10
437 1 6.28844 18.8693 12.5791 -8.89864 1.67036e-10
438 1 9.43337 18.8693 12.5788 -8.89865 1.66242e-10
439 1 12.5784 18.8693 12.5788 -8.89865 1.66281e-10
440 1 15.7233 18.8693 12.5791 -8.89864 1.67117e-10
441 1 18.8681 18.8692 12.5794 -8.89866 1.67787e-10
442 1 1.57132 1.57241 14.1479 -8.9047 6.54564e-10
443 1 4.71612 1.57237 14.1478 -8.90468 6.53983e-10
444 1 7.86095 1.5723 14.1475 -8.9047 6.52368e-10
445 1 11.0059 1.57227 14.1474 -8.9047 6.51526e-10
446 1 14.1508 1.5723 14.1475 -8.9047 6.52542e-10
447 1 17.2956 1.57237 14.1478 -8.90468 6.54192e-10
448 1 20.4404 1.57241 14.1479 -8.9047 6.54653e-10
449 1 1.57128 4.71722 14.1478 -8.90468 6.56056e-10
450 1 4.71599 4.71708 14.1475 -8.90465 6.5601e-10
451 1 7.86078 4.71685 14.1469 -8.90465 6.53922e-10
452 1 11.0059 4.71676 14.1466 -8.90466 6.52604e-10
453 1 14.1509 4.71685 14.1469 -8.90465 6.54117e-10
454 1 17.2957 4.71708 14.1475 -8.90465 6.56242e-10
455 1 20.4404 4.71722 14.1478 -8.90468 6.56152e-10
456 1 1.57121 7.86204 14.1475 -8.9047 6.56574e-10
457 1 4.71576 7.86188 14.1469 -8.90465 6.56342e-10
458 1 7.86041 7.8615 14.1455 -8.9044 6.54439e-10
459 1 11.0059 7.86138 14.1447 -8.90466 6.51891e-10
460 1 14.1513 7.8615 14.1455 -8.9044 6.54661e-10
461 1 17.296 7.86188 14.1469 -8.90465 6.56594e-10
462 1 20.4405 7.86204 14.1475 -8.9047 6.56678e-10
463 1 1.57118 11.007 14.1474 -8.9047 6.56307e-10
464 1 4.71567 11.007 14.1466 -8.90466 6.55517e-10
465 1 7.86028 11.007 14.1447 -8.90466 6.52586e-10
466 1 11.0059 11.007 14.1432 -8.90674 6.49493e-10
467 1 14.1514 11.007 14.1447 -8.90466 6.52807e-10
468 1 17.296 11.007 14.1466 -8.90466 6.55773e-10
469 1 20.4405 11.007 14.1474 -8.9047 6.56414e-10
470 1 1.57121 14.1519 14.1475 -8.9047 6.56574e-10
471 1 4.71576 14.152 14.1469 -8.90465 6.56342e-10
472 1 7.86041 14.1524 14.1455 -8.9044 6.54439e-10
473 1 11.0059 14.1525 14.1447 -8.90466 6.51891e-10
474 1 14.1513 14.1524 14.1455 -8.9044 6.54661e-10
475 1 17.296 14.152 14.1469 -8.90465 6.56594e-10
476 1 20.4405 14.1519 14.1475 -8.9047 6.56678e-10
477 1 1.57128 17.2967 14.1478 -8.90468 6.56056e-10
478 1 4.71599 17.2968 14.1475 -8.90465 6.5601e-10
479 1 7.86078 17.297 14.1469 -8.90465 6.53922e-10
480 1 11.0059 17.2971 14.1466 -8.90466 6.52604e-10
481 1 14.1509 17.297 14.1469 -8.90465 6.54117e-10
482 1 17.2957 17.2968 14.1475 -8.90465 6.56242e-10
483 1 20.4404 17.2967 14.1478 -8.90468 6.56152e-10
484 1 1.57132 20.4415 14.1479 -8.9047 6.54564e-10
485 1 4.71612 20.4415 14.1478 -8.90468 6.53983e-10
486 1 7.86095 20.4416 14.1475 -8.9047 6.52368e-10
487 1 11.0059 20.4416 14.1474 -8.9047 6.51526e-10
488 1 14.1508 20.4416 14.1475 -8.9047 6.52542e-10
489 1 17.2956 20.4415 14.1478 -8.90468 6.54192e-10
490 1 20.4404 20.4415 14.1479 -8.9047 6.54653e-10
491 1 22.0128 -4.70425e-16 15.7172 -8.88818 1.34608e-09
492 1 1.57144 1.57255 17.279 -8.90297 2.21346e-09
493 1 3.14382 -3.85138e-17 15.7172 -8.88819 1.34543e-09
494 1 4.71643 1.5726 17.279 -8.90302 2.21209e-09
495 1 6.28863 1.33599e-15 15.7171 -8.88817 1.34401e-09
496 1 7.86115 1.57254 17.2788 -8.9031 2.20978e-09
497 1 9.43344 1.65276e-15 15.7169 -8.8882 1.3421e-09
498 1 11.0058 1.5725 17.2787 -8.90309 2.20805e-09
499 1 12.5783 1.67409e-15 15.7169 -8.8882 1.3422e-09
500 1 14.1505 1.57254 17.2788 -8.9031 2.20992e-09
501 1 15.7231 1.69342e-15 15.7171 -8.88817 1.34422e-09
502 1 17.2952 1.5726 17.279 -8.90302 2.21225e-09
503 1 18.8679 2.18989e-16 15.7172 -8.88819 1.34559e-09
504 1 20.4402 1.57255 17.279 -8.90297 2.21353e-09
505 1 22.0128 3.14492 15.7172 -8.88819 1.34738e-09
506 1 1.57148 4.71755 17.279 -8.90302 2.21729e-09
507 1 3.1438 3.14491 15.7171 -8.88818 1.34675e-09
508 1 4.71653 4.71764 17.2789 -8.90324 2.21644e-09
509 1 6.28857 3.14478 15.7169 -8.88809 1.34604e-09
510 1 7.86099 4.71722 17.2782 -8.90292 2.21751e-09
511 1 9.43339 3.14464 15.7165 -8.88817 1.34365e-09
512 1 11.0058 4.71706 17.2777 -8.90284 2.21386e-09
513 1 12.5783 3.14464 15.7165 -8.88817 1.34375e-09
514 1 14.1507 4.71722 17.2782 -8.90292 2.2177e-09
515 1 15.7231 3.14478 15.7169 -8.88809 1.34626e-09
516 1 17.2951 4.71764 17.2789 -8.90324 2.21662e-09
517 1 18.8679 3.14491 15.7171 -8.88818 1.34692e-09
518 1 20.4402 4.71755 17.279 -8.90302 2.21736e-09
519 1 22.0128 6.28974 15.7171 -8.88817 1.35016e-09
520 1 1.57142 7.86227 17.2788 -8.9031 2.22155e-09
521 1 3.14368 6.28967 15.7169 -8.88809 1.35047e-09
522 1 4.71611 7.86211 17.2782 -8.90292 2.22463e-09
523 1 6.28825 6.28936 15.7161 -8.8877 1.35263e-09
524 1 7.85993 7.86105 17.2759 -8.90267 2.22991e-09
525 1 9.43317 6.28897 15.7149 -8.88787 1.34737e-09
526 1 11.0058 7.86102 17.2737 -8.90497 2.21886e-09
527 1 12.5785 6.28897 15.7149 -8.88787 1.3475e-09
528 1 14.1517 7.86105 17.2759 -8.90267 2.23026e-09
529 1 15.7234 6.28936 15.7161 -8.8877 1.35293e-09
530 1 17.2956 7.86211 17.2782 -8.90292 2.22489e-09
531 1 18.868 6.28967 15.7169 -8.88809 1.35066e-09
532 1 20.4402 7.86227 17.2788 -8.9031 2.22165e-09
533 1 22.0128 9.43454 15.7169 -8.8882 1.35093e-09
534 1 1.57139 11.007 17.2787 -8.90309 2.22234e-09
535 1 3.14353 9.4345 15.7165 -8.88817 1.35101e-09
536 1 4.71594 11.007 17.2777 -8.90284 2.22462e-09
537 1 6.28786 9.43427 15.7149 -8.88787 1.35151e-09
538 1 7.8599 11.007 17.2737 -8.90497 2.22607e-09
539 1 9.43258 9.43369 15.7118 -8.88714 1.34441e-09
540 1 11.0058 11.007 17.2662 -8.91709 2.22383e-09
541 1 12.5791 9.43369 15.7118 -8.88714 1.34454e-09
542 1 14.1518 11.007 17.2737 -8.90497 2.22638e-09
543 1 15.7238 9.43427 15.7149 -8.88787 1.35182e-09
544 1 17.2957 11.007 17.2777 -8.90284 2.2249e-09
545 1 18.8682 9.4345 15.7165 -8.88817 1.35122e-09
546 1 20.4403 11.007 17.2787 -8.90309 2.22244e-09
547 1 22.0128 12.5794 15.7169 -8.8882 1.35093e-09
548 1 1.57142 14.1516 17.2788 -8.9031 2.22155e-09
549 1 3.14353 12.5794 15.7165 -8.88817 1.35101e-09
550 1 4.71611 14.1518 17.2782 -8.90292 2.22463e-09
551 1 6.28786 12.5796 15.7149 -8.88787 1.35151e-09
552 1 7.85993 14.1529 17.2759 -8.90267 2.22991e-09
553 1 9.43258 12.5802 15.7118 -8.88714 1.34441e-09
554 1 11.0058 14.1529 17.2737 -8.90497 2.21886e-09
555 1 12.5791 12.5802 15.7118 -8.88714 1.34454e-09
556 1 14.1517 14.1529 17.2759 -8.90267 2.23026e-09
557 1 15.7238 12.5796 15.7149 -8.88787 1.35182e-09
558 1 17.2956 14.1518 17.2782 -8.90292 2.22489e-09
559 1 18.8682 12.5794 15.7165 -8.88817 1.35122e-09
560 1 20.4402 14.1516 17.2788 -8.9031 2.22165e-09
561 1 22.0128 15.7242 15.7171 -8.88817 1.35016e-09
562 1 1.57148 17.2964 17.279 -8.90302 2.21729e-09
563 1 3.14368 15.7242 15.7169 -8.88809 1.35047e-09
564 1 4.71653 17.2963 17.2789 -8.90324 2.21644e-09
565 1 6.28825 15.7245 15.7161 -8.8877 1.35263e-09
566 1 7.86099 17.2967 17.2782 -8.90292 2.21751e-09
567 1 9.43317 15.7249 15.7149 -8.88787 1.34737e-09
568 1 11.0058 17.2968 17.2777 -8.90284 2.21386e-09
569 1 12.5785 15.7249 15.7149 -8.88787 1.3475e-09
570 1 14.1507 17.2967 17.2782 -8.90292 2.2177e-09
571 1 15.7234 15.7245 15.7161 -8.8877 1.35293e-09
572 1 17.2951 17.2963 17.2789 -8.90324 2.21662e-09
573 1 18.868 15.7242 15.7169 -8.88809 1.35066e-09
574 1 20.4402 17.2964 17.279 -8.90302 2.21736e-09
575 1 22.0128 18.869 15.7172 -8.88819 1.34738e-09
576 1 1.57144 20.4413 17.279 -8.90297 2.21346e-09
577 1 3.1438 18.869 15.7171 -8.88818 1.34675e-09
578 1 4.71643 20.4413 17.279 -8.90302 2.21209e-09
579 1 6.28857 18.8691 15.7169 -8.88809 1.34604e-09
580 1 7.86115 20.4414 17.2788 -8.9031 2.20978e-09
581 1 9.43339 18.8693 15.7165 -8.88817 1.34365e-09
582 1 11.0058 20.4414 17.2787 -8.90309 2.20805e-09
583 1 12.5783 18.8693 15.7165 -8.88817 1.34375e-09