ITEM: TIMESTEP
448
ITEM: NUMBER OF ATOMS
736
ITEM: BOX BOUNDS pp pp pp
0.0000000000000000e+00 2.2013900999999997e+01
0.0000000000000000e+00 2.2013900999999997e+01
0.0000000000000000e+00 5.3462330999999999e+01
ITEM: ATOMS id type x y z c_pot c_ke
1 1 -0.00105066 6.29802e-16 0.0976351 -7.40188 1.65752e-10
2 1 1.57135 1.5724 1.62442 -8.68379 1.4765e-10
3 1 3.14374 7.56575e-17 0.0976086 -7.40187 1.65797e-10
4 1 4.71616 1.57239 1.62435 -8.68379 1.47706e-10
5 1 6.28857 -9.34082e-17 0.0975492 -7.40185 1.65891e-10
6 1 7.86101 1.57239 1.62427 -8.68378 1.47774e-10
7 1 9.43345 1.7866e-16 0.0975016 -7.40183 1.65962e-10
8 1 11.0059 1.57239 1.62423 -8.68378 1.47803e-10
9 1 12.5784 6.36808e-16 0.0975016 -7.40183 1.65959e-10
10 1 14.1508 1.57239 1.62427 -8.68378 1.47771e-10
11 1 15.7232 1.47212e-16 0.0975492 -7.40185 1.65883e-10
12 1 17.2956 1.57239 1.62435 -8.68379 1.47702e-10
13 1 18.8681 5.17755e-16 0.0976086 -7.40187 1.65791e-10
14 1 20.4405 1.5724 1.62442 -8.68379 1.47648e-10
15 1 -0.00105066 3.14479 0.0976086 -7.40187 1.65774e-10
16 1 1.57134 4.71721 1.62435 -8.68379 1.47689e-10
17 1 3.14374 3.14479 0.0975793 -7.40186 1.65817e-10
18 1 4.71615 4.7172 1.62427 -8.68378 1.47741e-10
19 1 6.28856 3.14478 0.0975136 -7.40184 1.65906e-10
20 1 7.86101 4.71719 1.62417 -8.68377 1.47802e-10
21 1 9.43345 3.14477 0.0974609 -7.40182 1.65973e-10
22 1 11.0059 4.71719 1.62412 -8.68377 1.47827e-10
23 1 12.5784 3.14477 0.0974609 -7.40182 1.65969e-10
24 1 14.1508 4.71719 1.62417 -8.68377 1.47799e-10
25 1 15.7232 3.14478 0.0975136 -7.40184 1.65897e-10
26 1 17.2956 4.7172 1.62427 -8.68378 1.47736e-10
27 1 18.8681 3.14479 0.0975793 -7.40186 1.6581e-10
28 1 20.4405 4.71721 1.62435 -8.68379 1.47687e-10
29 1 -0.00105066 6.28962 0.0975492 -7.40185 1.65824e-10
30 1 1.57134 7.86206 1.62427 -8.68378 1.47739e-10
31 1 3.14373 6.28962 0.0975136 -7.40184 1.65862e-10
32 1 4.71614 7.86206 1.62417 -8.68377 1.47785e-10
33 1 6.28855 6.28961 0.0974333 -7.40181 1.65939e-10
34 1 7.861 7.86205 1.62404 -8.68377 1.47838e-10
35 1 9.43344 6.2896 0.0973686 -7.40178 1.65997e-10
36 1 11.0059 7.86205 1.62398 -8.68376 1.4786e-10
37 1 12.5784 6.2896 0.0973686 -7.40178 1.65994e-10
38 1 14.1508 7.86205 1.62404 -8.68377 1.47835e-10
39 1 15.7232 6.28961 0.0974333 -7.40181 1.65931e-10
40 1 17.2957 7.86206 1.62417 -8.68377 1.47781e-10
41 1 18.8681 6.28962 0.0975136 -7.40184 1.65855e-10
42 1 20.4405 7.86206 1.62427 -8.68378 1.47737e-10
43 1 -0.00105066 9.4345 0.0975016 -7.40183 1.65864e-10
44 1 1.57134 11.007 1.62423 -8.68378 1.47762e-10
45 1 3.14372 9.4345 0.0974609 -7.40182 1.65899e-10
46 1 4.71614 11.007 1.62412 -8.68377 1.47806e-10
47 1 6.28855 9.43449 0.0973686 -7.40178 1.65967e-10
48 1 7.861 11.007 1.62398 -8.68376 1.47855e-10
49 1 9.43344 9.43449 0.0972937 -7.40175 1.66017e-10
50 1 11.0059 11.007 1.62392 -8.68376 1.47875e-10
51 1 12.5784 9.43449 0.0972937 -7.40175 1.66013e-10
52 1 14.1508 11.007 1.62398 -8.68376 1.47852e-10
53 1 15.7233 9.43449 0.0973686 -7.40178 1.65959e-10
54 1 17.2957 11.007 1.62412 -8.68377 1.47801e-10
55 1 18.8681 9.4345 0.0974609 -7.40182 1.65892e-10
56 1 20.4405 11.007 1.62423 -8.68378 1.4776e-10
57 1 -0.00105066 12.5794 0.0975016 -7.40183 1.65864e-10
58 1 1.57134 14.1518 1.62427 -8.68378 1.47739e-10
59 1 3.14372 12.5794 0.0974609 -7.40182 1.65899e-10
60 1 4.71614 14.1518 1.62417 -8.68377 1.47785e-10
61 1 6.28855 12.5794 0.0973686 -7.40178 1.65967e-10
62 1 7.861 14.1519 1.62404 -8.68377 1.47838e-10
63 1 9.43344 12.5794 0.0972937 -7.40175 1.66017e-10
64 1 11.0059 14.1519 1.62398 -8.68376 1.4786e-10
65 1 12.5784 12.5794 0.0972937 -7.40175 1.66013e-10
66 1 14.1508 14.1519 1.62404 -8.68377 1.47835e-10
67 1 15.7233 12.5794 0.0973686 -7.40178 1.65959e-10
68 1 17.2957 14.1518 1.62417 -8.68377 1.47781e-10
69 1 18.8681 12.5794 0.0974609 -7.40182 1.65892e-10
70 1 20.4405 14.1518 1.62427 -8.68378 1.47737e-10
71 1 -0.00105066 15.7243 0.0975492 -7.40185 1.65824e-10
72 1 1.57134 17.2967 1.62435 -8.68379 1.47689e-10
73 1 3.14373 15.7243 0.0975136 -7.40184 1.65862e-10
74 1 4.71615 17.2967 1.62427 -8.68378 1.47741e-10
75 1 6.28855 15.7243 0.0974333 -7.40181 1.65939e-10
76 1 7.86101 17.2967 1.62417 -8.68377 1.47802e-10
77 1 9.43344 15.7243 0.0973686 -7.40178 1.65997e-10
78 1 11.0059 17.2967 1.62412 -8.68377 1.47827e-10
79 1 12.5784 15.7243 0.0973686 -7.40178 1.65994e-10
80 1 14.1508 17.2967 1.62417 -8.68377 1.47799e-10
81 1 15.7232 15.7243 0.0974333 -7.40181 1.65931e-10
82 1 17.2956 17.2967 1.62427 -8.68378 1.47736e-10
83 1 18.8681 15.7243 0.0975136 -7.40184 1.65855e-10
84 1 20.4405 17.2967 1.62435 -8.68379 1.47687e-10
85 1 -0.00105066 18.8691 0.0976086 -7.40187 1.65774e-10
86 1 1.57135 20.4415 1.62442 -8.68379 1.4765e-10
87 1 3.14374 18.8691 0.0975793 -7.40186 1.65817e-10
88 1 4.71616 20.4415 1.62435 -8.68379 1.47706e-10
89 1 6.28856 18.8691 0.0975136 -7.40184 1.65906e-10
90 1 7.86101 20.4415 1.62427 -8.68378 1.47774e-10
91 1 9.43345 18.8691 0.0974609 -7.40182 1.65973e-10
92 1 11.0059 20.4415 1.62423 -8.68378 1.47803e-10
93 1 12.5784 18.8691 0.0974609 -7.40182 1.65969e-10
94 1 14.1508 20.4415 1.62427 -8.68378 1.47771e-10
95 1 15.7232 18.8691 0.0975136 -7.40184 1.65897e-10
96 1 17.2956 20.4415 1.62435 -8.68379 1.47702e-10
97 1 18.8681 18.8691 0.0975793 -7.40186 1.6581e-10
98 1 20.4405 20.4415 1.62442 -8.68379 1.47648e-10
99 1 -0.00105301 1.71043e-15 3.15455 -8.93805 1.24318e-10
100 1 1.57134 1.5724 4.74383 -8.90301 9.28117e-11
101 1 3.14375 -6.13888e-16 3.15451 -8.93805 1.24343e-10
102 1 4.71616 1.57239 4.74374 -8.90301 9.28518e-11
103 1 6.28859 -1.51021e-16 3.15442 -8.93806 1.24398e-10
104 1 7.86101 1.57239 4.74364 -8.90301 9.29018e-11
105 1 9.43345 -2.16861e-15 3.15435 -8.93807 1.24442e-10
106 1 11.0059 1.57238 4.74359 -8.90301 9.2924e-11
107 1 12.5783 -1.53238e-15 3.15435 -8.93807 1.24441e-10
108 1 14.1508 1.57239 4.74364 -8.90301 9.29017e-11
109 1 15.7232 -1.421e-15 3.15442 -8.93806 1.24397e-10
110 1 17.2956 1.57239 4.74374 -8.90301 9.28515e-11
111 1 18.868 7.73456e-16 3.15451 -8.93805 1.24342e-10
112 1 20.4404 1.5724 4.74383 -8.90301 9.28115e-11
113 1 -0.00105301 3.14481 3.15451 -8.93805 1.2434e-10
114 1 1.57134 4.71721 4.74374 -8.90301 9.28527e-11
115 1 3.14375 3.1448 3.15446 -8.93806 1.24365e-10
116 1 4.71614 4.7172 4.74364 -8.90301 9.28902e-11
117 1 6.28858 3.14479 3.15436 -8.93807 1.24418e-10
118 1 7.861 4.71718 4.7435 -8.90301 9.29373e-11
119 1 9.43345 3.14479 3.15428 -8.93808 1.24459e-10
120 1 11.0059 4.71718 4.74344 -8.90301 9.29585e-11
121 1 12.5783 3.14479 3.15428 -8.93808 1.24458e-10
122 1 14.1508 4.71718 4.7435 -8.90301 9.29382e-11
123 1 15.7232 3.14479 3.15436 -8.93807 1.24416e-10
124 1 17.2956 4.7172 4.74364 -8.90301 9.28909e-11
125 1 18.868 3.1448 3.15446 -8.93806 1.24363e-10
126 1 20.4405 4.71721 4.74374 -8.90301 9.28528e-11
127 1 -0.00105301 6.28964 3.15442 -8.93806 1.24393e-10
128 1 1.57133 7.86206 4.74364 -8.90301 9.29085e-11
129 1 3.14374 6.28963 3.15436 -8.93807 1.24415e-10
130 1 4.71613 7.86205 4.7435 -8.90301 9.29441e-11
131 1 6.28857 6.28962 3.15424 -8.93808 1.24464e-10
132 1 7.86098 7.86204 4.74333 -8.90301 9.2988e-11
133 1 9.43345 6.28962 3.15413 -8.9381 1.24501e-10
134 1 11.0059 7.86203 4.74325 -8.90302 9.30077e-11
135 1 12.5783 6.28962 3.15413 -8.9381 1.245e-10
136 1 14.1508 7.86204 4.74333 -8.90301 9.29903e-11
137 1 15.7232 6.28962 3.15424 -8.93808 1.24462e-10
138 1 17.2957 7.86205 4.7435 -8.90301 9.29462e-11
139 1 18.8681 6.28963 3.15436 -8.93807 1.24414e-10
140 1 20.4405 7.86206 4.74364 -8.90301 9.2909e-11
141 1 -0.00105301 9.43451 3.15435 -8.93807 1.24437e-10
142 1 1.57133 11.007 4.74359 -8.90301 9.29348e-11
143 1 3.14373 9.43451 3.15428 -8.93808 1.24458e-10
144 1 4.71612 11.007 4.74344 -8.90301 9.297e-11
145 1 6.28856 9.4345 3.15413 -8.9381 1.24503e-10
146 1 7.86098 11.007 4.74325 -8.90302 9.30129e-11
147 1 9.43344 9.4345 3.15401 -8.93812 1.24537e-10
148 1 11.0059 11.007 4.74316 -8.90302 9.3032e-11
149 1 12.5784 9.4345 3.15401 -8.93812 1.24537e-10
150 1 14.1508 11.007 4.74325 -8.90302 9.3016e-11
151 1 15.7232 9.4345 3.15413 -8.9381 1.24502e-10
152 1 17.2957 11.007 4.74344 -8.90301 9.29729e-11
153 1 18.8681 9.43451 3.15428 -8.93808 1.24457e-10
154 1 20.4405 11.007 4.74359 -8.90301 9.29356e-11
155 1 -0.00105301 12.5794 3.15435 -8.93807 1.24437e-10
156 1 1.57133 14.1518 4.74364 -8.90301 9.29085e-11
157 1 3.14373 12.5794 3.15428 -8.93808 1.24458e-10
158 1 4.71613 14.1518 4.7435 -8.90301 9.2944e-11
159 1 6.28856 12.5794 3.15413 -8.9381 1.24503e-10
160 1 7.86098 14.1519 4.74333 -8.90301 9.29879e-11
161 1 9.43344 12.5794 3.15401 -8.93812 1.24537e-10
162 1 11.0059 14.1519 4.74325 -8.90302 9.30077e-11
163 1 12.5784 12.5794 3.15401 -8.93812 1.24537e-10
164 1 14.1508 14.1519 4.74333 -8.90301 9.29904e-11
165 1 15.7232 12.5794 3.15413 -8.9381 1.24502e-10
166 1 17.2957 14.1518 4.7435 -8.90301 9.29462e-11
167 1 18.8681 12.5794 3.15428 -8.93808 1.24457e-10
168 1 20.4405 14.1518 4.74364 -8.90301 9.2909e-11
169 1 -0.00105301 15.7243 3.15442 -8.93806 1.24393e-10
170 1 1.57134 17.2967 4.74374 -8.90301 9.28527e-11
171 1 3.14374 15.7243 3.15436 -8.93807 1.24415e-10
172 1 4.71614 17.2967 4.74364 -8.90301 9.28902e-11
173 1 6.28857 15.7243 3.15424 -8.93808 1.24464e-10
174 1 7.861 17.2967 4.7435 -8.90301 9.29372e-11
175 1 9.43345 15.7243 3.15413 -8.9381 1.24501e-10
176 1 11.0059 17.2967 4.74344 -8.90301 9.29585e-11
177 1 12.5783 15.7243 3.15413 -8.9381 1.245e-10
178 1 14.1508 17.2967 4.7435 -8.90301 9.29383e-11
179 1 15.7232 15.7243 3.15424 -8.93808 1.24462e-10
180 1 17.2956 17.2967 4.74364 -8.90301 9.2891e-11
181 1 18.8681 15.7243 3.15436 -8.93807 1.24414e-10
182 1 20.4405 17.2967 4.74374 -8.90301 9.28528e-11
183 1 -0.00105301 18.8691 3.15451 -8.93805 1.2434e-10
184 1 1.57134 20.4415 4.74383 -8.90301 9.28117e-11
185 1 3.14375 18.8691 3.15446 -8.93806 1.24365e-10
186 1 4.71616 20.4415 4.74374 -8.90301 9.28518e-11
187 1 6.28858 18.8691 3.15436 -8.93807 1.24418e-10
188 1 7.86101 20.4415 4.74364 -8.90301 9.29018e-11
189 1 9.43345 18.8691 3.15428 -8.93808 1.24459e-10
190 1 11.0059 20.4415 4.74359 -8.90301 9.2924e-11
191 1 12.5783 18.8691 3.15428 -8.93808 1.24458e-10
192 1 14.1508 20.4415 4.74364 -8.90301 9.29017e-11
193 1 15.7232 18.8691 3.15436 -8.93807 1.24416e-10
194 1 17.2956 20.4415 4.74374 -8.90301 9.28515e-11
195 1 18.868 18.8691 3.15446 -8.93806 1.24363e-10
196 1 20.4404 20.4415 4.74383 -8.90301 9.28114e-11
197 1 -0.00105796 -4.77509e-15 6.3056 -8.88811 5.66443e-11
198 1 1.57132 1.57238 7.87482 -8.90467 2.77209e-11
199 1 3.14373 -3.7888e-15 6.30555 -8.88811 5.66673e-11
200 1 4.71611 1.57237 7.8747 -8.90467 2.77542e-11
201 1 6.28856 -3.99523e-16 6.30544 -8.88812 5.67195e-11
202 1 7.86097 1.57235 7.87456 -8.90467 2.77988e-11
203 1 9.43344 2.88754e-15 6.30534 -8.88812 5.67621e-11
204 1 11.0059 1.57235 7.87449 -8.90467 2.78196e-11
205 1 12.5783 2.71163e-15 6.30534 -8.88812 5.67622e-11
206 1 14.1508 1.57235 7.87456 -8.90467 2.77997e-11
207 1 15.7232 -7.62938e-16 6.30544 -8.88812 5.67196e-11
208 1 17.2957 1.57237 7.8747 -8.90467 2.77554e-11
209 1 18.8681 -2.94775e-15 6.30555 -8.88811 5.66671e-11
210 1 20.4405 1.57238 7.87482 -8.90467 2.77216e-11
211 1 -0.00105795 3.14479 6.30555 -8.88811 5.66636e-11
212 1 1.57131 4.71717 7.8747 -8.90467 2.77453e-11
213 1 3.14372 3.14478 6.30549 -8.88811 5.66851e-11
214 1 4.71608 4.71714 7.87454 -8.90466 2.77788e-11
215 1 6.28855 3.14476 6.30535 -8.88812 5.67366e-11
216 1 7.86094 4.7171 7.87433 -8.90467 2.78249e-11
217 1 9.43343 3.14474 6.30524 -8.88812 5.67788e-11
218 1 11.0059 4.71708 7.87423 -8.90467 2.78447e-11
219 1 12.5784 3.14474 6.30524 -8.88812 5.67794e-11
220 1 14.1508 4.7171 7.87433 -8.90467 2.78228e-11
221 1 15.7232 3.14476 6.30535 -8.88812 5.67377e-11
222 1 17.2957 4.71714 7.87454 -8.90466 2.77781e-11
223 1 18.8681 3.14478 6.30549 -8.88811 5.66861e-11
224 1 20.4405 4.71717 7.8747 -8.90467 2.77471e-11
225 1 -0.00105795 6.28962 6.30544 -8.88812 5.67134e-11
226 1 1.57129 7.86203 7.87456 -8.90467 2.77864e-11
227 1 3.1437 6.2896 6.30535 -8.88812 5.67335e-11
228 1 4.71604 7.862 7.87433 -8.90467 2.78247e-11
229 1 6.28852 6.28957 6.30515 -8.88812 5.67843e-11
230 1 7.8609 7.86196 7.87401 -8.90469 2.78738e-11
231 1 9.43342 6.28955 6.30499 -8.88813 5.68248e-11
232 1 11.0059 7.86194 7.87386 -8.90471 2.78901e-11
233 1 12.5784 6.28955 6.30499 -8.88813 5.68251e-11
234 1 14.1509 7.86196 7.87401 -8.90469 2.78645e-11
235 1 15.7233 6.28957 6.30515 -8.88812 5.67855e-11
236 1 17.2957 7.862 7.87433 -8.90467 2.78189e-11
237 1 18.8681 6.2896 6.30535 -8.88812 5.67362e-11
238 1 20.4405 7.86203 7.87456 -8.90467 2.77888e-11
239 1 -0.00105795 9.4345 6.30534 -8.88812 5.6759e-11
240 1 1.57128 11.007 7.87449 -8.90467 2.78081e-11
241 1 3.14368 9.43449 6.30524 -8.88812 5.67792e-11
242 1 4.71602 11.007 7.87423 -8.90467 2.78503e-11
243 1 6.28849 9.43448 6.30499 -8.88813 5.6832e-11
244 1 7.86088 11.007 7.87386 -8.90471 2.79025e-11
245 1 9.43341 9.43447 6.30478 -8.88815 5.68714e-11
246 1 11.0059 11.007 7.87367 -8.90475 2.79164e-11
247 1 12.5784 9.43447 6.30478 -8.88815 5.687e-11
248 1 14.1509 11.007 7.87386 -8.90471 2.78881e-11
249 1 15.7233 9.43448 6.30499 -8.88813 5.6832e-11
250 1 17.2958 11.007 7.87423 -8.90467 2.78411e-11
251 1 18.8681 9.43449 6.30524 -8.88812 5.67832e-11
252 1 20.4405 11.007 7.87449 -8.90467 2.78107e-11
253 1 -0.00105795 12.5794 6.30534 -8.88812 5.6759e-11
254 1 1.57129 14.1519 7.87456 -8.90467 2.77863e-11
255 1 3.14368 12.5794 6.30524 -8.88812 5.67791e-11
256 1 4.71604 14.1519 7.87433 -8.90467 2.78249e-11
257 1 6.28849 12.5794 6.30499 -8.88813 5.68319e-11
258 1 7.8609 14.1519 7.87401 -8.90469 2.78742e-11
259 1 9.43341 12.5794 6.30478 -8.88815 5.68714e-11
260 1 11.0059 14.152 7.87386 -8.90471 2.78901e-11
261 1 12.5784 12.5794 6.30478 -8.88815 5.68701e-11
262 1 14.1509 14.1519 7.87401 -8.90469 2.78641e-11
263 1 15.7233 12.5794 6.30499 -8.88813 5.68321e-11
264 1 17.2957 14.1519 7.87433 -8.90467 2.78187e-11
265 1 18.8681 12.5794 6.30524 -8.88812 5.67833e-11
266 1 20.4405 14.1519 7.87456 -8.90467 2.77889e-11
267 1 -0.00105795 15.7243 6.30544 -8.88812 5.67134e-11
268 1 1.57131 17.2967 7.8747 -8.90467 2.77451e-11
269 1 3.1437 15.7243 6.30535 -8.88812 5.67333e-11
270 1 4.71608 17.2968 7.87454 -8.90466 2.77788e-11
271 1 6.28852 15.7243 6.30515 -8.88812 5.6784e-11
272 1 7.86094 17.2968 7.87433 -8.90467 2.78249e-11
273 1 9.43342 15.7244 6.30499 -8.88813 5.68247e-11
274 1 11.0059 17.2968 7.87423 -8.90467 2.78447e-11
275 1 12.5784 15.7244 6.30499 -8.88813 5.68252e-11
276 1 14.1508 17.2968 7.87433 -8.90467 2.78227e-11
277 1 15.7233 15.7243 6.30515 -8.88812 5.67857e-11
278 1 17.2957 17.2968 7.87454 -8.90466 2.77782e-11
279 1 18.8681 15.7243 6.30535 -8.88812 5.67364e-11
280 1 20.4405 17.2967 7.8747 -8.90467 2.77473e-11
281 1 -0.00105795 18.8691 6.30555 -8.88811 5.66636e-11
282 1 1.57132 20.4415 7.87482 -8.90467 2.77208e-11
283 1 3.14372 18.8691 6.30549 -8.88811 5.6685e-11
284 1 4.71611 20.4415 7.8747 -8.90467 2.77541e-11
285 1 6.28855 18.8691 6.30535 -8.88812 5.67364e-11
286 1 7.86097 20.4415 7.87456 -8.90467 2.77987e-11
287 1 9.43343 18.8692 6.30524 -8.88812 5.67788e-11
288 1 11.0059 20.4416 7.87449 -8.90467 2.78196e-11
289 1 12.5784 18.8692 6.30524 -8.88812 5.67794e-11
290 1 14.1508 20.4415 7.87456 -8.90467 2.77997e-11
291 1 15.7232 18.8691 6.30535 -8.88812 5.67378e-11
292 1 17.2957 20.4415 7.8747 -8.90467 2.77556e-11
293 1 18.8681 18.8691 6.30549 -8.88811 5.66862e-11
294 1 20.4405 20.4415 7.87482 -8.90467 2.77217e-11
295 1 -0.00106455 6.9843e-15 9.44319 -8.89866 7.23289e-12
296 1 1.57131 1.57237 11.0113 -8.9001 6.29646e-16
297 1 3.1437 3.00763e-14 9.44312 -8.89865 7.24199e-12
298 1 4.71608 1.57234 11.0112 -8.90009 9.60503e-16
299 1 6.28852 5.79206e-14 9.44296 -8.89865 7.26767e-12
300 1 7.86094 1.57231 11.011 -8.90009 1.23178e-15
301 1 9.43342 7.47407e-14 9.44283 -8.89865 7.29027e-12
302 1 11.0059 1.57229 11.0109 -8.90009 1.31842e-15
303 1 12.5784 7.38675e-14 9.44283 -8.89865 7.2908e-12
304 1 14.1508 1.57231 11.011 -8.90009 1.25198e-15
305 1 15.7233 5.76348e-14 9.44296 -8.89865 7.26874e-12
306 1 17.2957 1.57234 11.0112 -8.90009 9.49859e-16
307 1 18.8681 3.0072e-14 9.44312 -8.89865 7.2434e-12
308 1 20.4405 1.57237 11.0113 -8.9001 6.22635e-16
309 1 -0.00106455 3.14476 9.44312 -8.89865 7.23652e-12
310 1 1.57128 4.71715 11.0112 -8.90009 6.76796e-16
311 1 3.14368 3.14474 9.44304 -8.89865 7.24587e-12
312 1 4.716 4.71707 11.0109 -8.90006 1.06287e-15
313 1 6.28849 3.14469 9.44283 -8.89864 7.27296e-12
314 1 7.86086 4.71696 11.0106 -8.90007 1.36863e-15
315 1 9.4334 3.14465 9.44265 -8.89865 7.29587e-12
316 1 11.0059 4.71692 11.0104 -8.90008 1.40701e-15
317 1 12.5784 3.14465 9.44265 -8.89865 7.29484e-12
318 1 14.1509 4.71696 11.0106 -8.90007 1.35423e-15
319 1 15.7233 3.14469 9.44283 -8.89864 7.2705e-12
320 1 17.2958 4.71707 11.0109 -8.90006 1.06083e-15
321 1 18.8681 3.14474 9.44304 -8.89865 7.2454e-12
322 1 20.4405 4.71715 11.0112 -8.90009 6.28529e-16
323 1 -0.00106455 6.28958 9.44296 -8.89865 7.25268e-12
324 1 1.57124 7.86201 11.011 -8.90009 8.71241e-16
325 1 3.14363 6.28955 9.44283 -8.89864 7.26456e-12
326 1 4.71589 7.86193 11.0106 -8.90007 1.2545e-15
327 1 6.28841 6.28947 9.44248 -8.89864 7.29205e-12
328 1 7.86074 7.8618 11.0099 -8.90011 1.98884e-15
329 1 9.43336 6.28941 9.44217 -8.89865 7.31688e-12
330 1 11.0059 7.86175 11.0096 -8.90015 2.31298e-15
331 1 12.5784 6.28941 9.44217 -8.89865 7.31363e-12
332 1 14.151 7.8618 11.0099 -8.90011 1.86614e-15
333 1 15.7234 6.28947 9.44248 -8.89864 7.28544e-12
334 1 17.2959 7.86193 11.0106 -8.90007 1.26961e-15
335 1 18.8681 6.28955 9.44283 -8.89864 7.259e-12
336 1 20.4405 7.86201 11.011 -8.90009 7.62442e-16
337 1 -0.00106454 9.43448 9.44283 -8.89865 7.27225e-12
338 1 1.57122 11.007 11.0109 -8.90009 1.02165e-15
339 1 3.14359 9.43447 9.44265 -8.89865 7.2882e-12
340 1 4.71585 11.007 11.0104 -8.90008 1.40574e-15
341 1 6.28835 9.43443 9.44217 -8.89865 7.31821e-12
342 1 7.86068 11.007 11.0096 -8.90015 2.37125e-15
343 1 9.43333 9.43439 9.44171 -8.89872 7.34402e-12
344 1 11.0059 11.007 11.0091 -8.90037 4.02282e-15
345 1 12.5784 9.43439 9.44171 -8.89872 7.34403e-12
346 1 14.1511 11.007 11.0096 -8.90015 2.67873e-15
347 1 15.7234 9.43443 9.44217 -8.89865 7.31053e-12
348 1 17.2959 11.007 11.0104 -8.90008 1.4166e-15
349 1 18.8682 9.43447 9.44265 -8.89865 7.27802e-12
350 1 20.4405 11.007 11.0109 -8.90009 8.68549e-16
351 1 -0.00106454 12.5794 9.44283 -8.89865 7.27225e-12
352 1 1.57124 14.1519 11.011 -8.90009 8.76386e-16
353 1 3.14359 12.5794 9.44265 -8.89865 7.28841e-12
354 1 4.71589 14.152 11.0106 -8.90007 1.25956e-15
355 1 6.28835 12.5795 9.44217 -8.89865 7.31867e-12
356 1 7.86074 14.1521 11.0099 -8.90011 2.09991e-15
357 1 9.43333 12.5795 9.44171 -8.89872 7.34429e-12
358 1 11.0059 14.1522 11.0096 -8.90015 2.46957e-15
359 1 12.5784 12.5795 9.44171 -8.89872 7.34376e-12
360 1 14.151 14.1521 11.0099 -8.90011 1.90266e-15
361 1 15.7234 12.5795 9.44217 -8.89865 7.31007e-12
362 1 17.2959 14.152 11.0106 -8.90007 1.26458e-15
363 1 18.8682 12.5794 9.44265 -8.89865 7.27781e-12
364 1 20.4405 14.1519 11.011 -8.90009 7.58136e-16
365 1 -0.00106455 15.7243 9.44296 -8.89865 7.25268e-12
366 1 1.57128 17.2968 11.0112 -8.90009 6.80779e-16
367 1 3.14363 15.7243 9.44283 -8.89864 7.26494e-12
368 1 4.716 17.2968 11.0109 -8.90006 1.06184e-15
369 1 6.28841 15.7244 9.44248 -8.89864 7.29262e-12
370 1 7.86086 17.2969 11.0106 -8.90007 1.36901e-15
371 1 9.43336 15.7245 9.44217 -8.89865 7.31737e-12
372 1 11.0059 17.297 11.0104 -8.90008 1.40678e-15
373 1 12.5784 15.7245 9.44217 -8.89865 7.31315e-12
374 1 14.1509 17.2969 11.0106 -8.90007 1.35373e-15
375 1 15.7234 15.7244 9.44248 -8.89864 7.28487e-12
376 1 17.2958 17.2968 11.0109 -8.90006 1.06456e-15
377 1 18.8681 15.7243 9.44283 -8.89864 7.25863e-12
378 1 20.4405 17.2968 11.0112 -8.90009 6.24821e-16
379 1 -0.00106455 18.8691 9.44312 -8.89865 7.23652e-12
380 1 1.57131 20.4415 11.0113 -8.9001 6.30052e-16
381 1 3.14368 18.8692 9.44304 -8.89865 7.24588e-12
382 1 4.71608 20.4416 11.0112 -8.90009 9.60326e-16
383 1 6.28849 18.8692 9.44283 -8.89864 7.27311e-12
384 1 7.86094 20.4416 11.011 -8.90009 1.22953e-15
385 1 9.4334 18.8692 9.44265 -8.89865 7.29595e-12
386 1 11.0059 20.4416 11.0109 -8.90009 1.31965e-15
387 1 12.5784 18.8692 9.44265 -8.89865 7.29476e-12
388 1 14.1508 20.4416 11.011 -8.90009 1.25569e-15
389 1 15.7233 18.8692 9.44283 -8.89864 7.27034e-12
390 1 17.2957 20.4416 11.0112 -8.90009 9.50216e-16
391 1 18.8681 18.8692 9.44304 -8.89865 7.2454e-12
392 1 20.4405 20.4415 11.0113 -8.9001 6.22274e-16
393 1 -0.00107182 6.71826e-14 12.5796 -8.89868 6.97356e-12
394 1 3.14371 -2.17685e-14 12.5795 -8.89867 6.96759e-12
395 1 6.28852 -2.16901e-13 12.5793 -8.89867 6.94013e-12
396 1 9.43341 -3.46612e-13 12.5791 -8.89868 6.91377e-12
397 1 12.5783 -3.48053e-13 12.5791 -8.89868 6.91609e-12
398 1 15.7232 -2.15245e-13 12.5793 -8.89867 6.94496e-12
399 1 18.8681 -2.00573e-14 12.5795 -8.89867 6.96842e-12
400 1 22.0128 3.14478 12.5795 -8.89867 6.9829e-12
401 1 3.14367 3.14474 12.5794 -8.89866 6.97355e-12
402 1 6.28845 3.14464 12.5791 -8.89864 6.95112e-12
403 1 9.43338 3.14455 12.5788 -8.89865 6.92079e-12
404 1 12.5784 3.14455 12.5788 -8.89865 6.91906e-12
405 1 15.7233 3.14464 12.5791 -8.89864 6.95254e-12
406 1 18.8681 3.14474 12.5794 -8.89866 6.98385e-12
407 1 22.0128 6.28959 12.5793 -8.89867 6.98611e-12
408 1 3.14356 6.28952 12.5791 -8.89864 6.98077e-12
409 1 6.28826 6.28933 12.5785 -8.89854 7.00786e-12
410 1 9.43327 6.28917 12.5779 -8.8986 6.92883e-12
411 1 12.5785 6.28917 12.5779 -8.8986 6.90562e-12
412 1 15.7235 6.28933 12.5785 -8.89854 6.90504e-12
413 1 18.8682 6.28952 12.5791 -8.89864 6.98473e-12
414 1 22.0128 9.43448 12.5791 -8.89868 6.97304e-12
415 1 3.14348 9.43445 12.5788 -8.89865 6.96839e-12
416 1 6.2881 9.43434 12.5779 -8.8986 7.01056e-12
417 1 9.43314 9.43421 12.5768 -8.89878 6.85627e-12
418 1 12.5786 9.43421 12.5768 -8.89878 6.89347e-12
419 1 15.7237 9.43434 12.5779 -8.8986 6.83375e-12
420 1 18.8683 9.43445 12.5788 -8.89865 6.95979e-12
421 1 22.0128 12.5794 12.5791 -8.89868 6.97304e-12
422 1 3.14348 12.5795 12.5788 -8.89865 6.96924e-12
423 1 6.2881 12.5796 12.5779 -8.8986 7.0149e-12
424 1 9.43314 12.5797 12.5768 -8.89878 6.86119e-12
425 1 12.5786 12.5797 12.5768 -8.89878 6.88863e-12
426 1 15.7237 12.5796 12.5779 -8.8986 6.82967e-12
427 1 18.8683 12.5795 12.5788 -8.89865 6.95895e-12
428 1 22.0128 15.7243 12.5793 -8.89867 6.98611e-12
429 1 3.14356 15.7244 12.5791 -8.89864 6.98039e-12
430 1 6.28826 15.7246 12.5785 -8.89854 7.01595e-12
431 1 9.43327 15.7247 12.5779 -8.8986 6.92992e-12
432 1 12.5785 15.7247 12.5779 -8.8986 6.90513e-12
433 1 15.7235 15.7246 12.5785 -8.89854 6.89728e-12
434 1 18.8682 15.7244 12.5791 -8.89864 6.98511e-12
435 1 22.0128 18.8691 12.5795 -8.89867 6.9829e-12
436 1 3.14367 18.8692 12.5794 -8.89866 6.97226e-12
437 1 6.28845 18.8693 12.5791 -8.89864 6.95066e-12
438 1 9.43338 18.8693 12.5788 -8.89865 6.92063e-12
439 1 12.5784 18.8693 12.5788 -8.89865 6.91922e-12
440 1 15.7233 18.8693 12.5791 -8.89864 6.95299e-12
441 1 18.8681 18.8692 12.5794 -8.89866 6.98515e-12
442 1 1.57134 1.57241 14.1479 -8.9047 2.71968e-11
443 1 4.71614 1.57237 14.1478 -8.90468 2.71762e-11
444 1 7.86097 1.5723 14.1475 -8.9047 2.71182e-11
445 1 11.0059 1.57227 14.1474 -8.9047 2.70841e-11
446 1 14.1508 1.5723 14.1475 -8.9047 2.71219e-11
447 1 17.2956 1.57237 14.1478 -8.90468 2.71914e-11
448 1 20.4404 1.57241 14.1479 -8.9047 2.72048e-11
449 1 1.5713 4.71722 14.1478 -8.90468 2.72459e-11
450 1 4.71601 4.71708 14.1475 -8.90465 2.7342e-11
451 1 7.8608 4.71685 14.1469 -8.90465 2.72471e-11
452 1 11.0059 4.71676 14.1466 -8.90466 2.71364e-11
453 1 14.1509 4.71685 14.1469 -8.90465 2.71047e-11
454 1 17.2957 4.71708 14.1475 -8.90465 2.7162e-11
455 1 20.4405 4.71722 14.1478 -8.90468 2.72661e-11
456 1 1.57123 7.86204 14.1475 -8.9047 2.72755e-11
457 1 4.71578 7.86188 14.1469 -8.90465 2.74498e-11
458 1 7.86043 7.8615 14.1455 -8.9044 2.6865e-11
459 1 11.0059 7.86138 14.1447 -8.90466 2.7083e-11
460 1 14.1513 7.8615 14.1455 -8.9044 2.75642e-11
461 1 17.296 7.86188 14.1469 -8.90465 2.7047e-11
462 1 20.4405 7.86204 14.1475 -8.9047 2.72586e-11
463 1 1.5712 11.007 14.1474 -8.9047 2.72728e-11
464 1 4.71569 11.007 14.1466 -8.90466 2.74295e-11
465 1 7.8603 11.007 14.1447 -8.90466 2.66137e-11
466 1 11.0059 11.007 14.1432 -8.90674 2.7119e-11
467 1 14.1514 11.007 14.1447 -8.90466 2.76541e-11
468 1 17.2961 11.007 14.1466 -8.90466 2.69875e-11
469 1 20.4406 11.007 14.1474 -8.9047 2.72301e-11
470 1 1.57123 14.1519 14.1475 -8.9047 2.72782e-11
471 1 4.71578 14.152 14.1469 -8.90465 2.74747e-11
472 1 7.86043 14.1524 14.1455 -8.9044 2.68569e-11
473 1 11.0059 14.1525 14.1447 -8.90466 2.70875e-11
474 1 14.1513 14.1524 14.1455 -8.9044 2.75771e-11
475 1 17.296 14.152 14.1469 -8.90465 2.70225e-11
476 1 20.4405 14.1519 14.1475 -8.9047 2.72559e-11
477 1 1.5713 17.2967 14.1478 -8.90468 2.72434e-11
478 1 4.71601 17.2968 14.1475 -8.90465 2.73602e-11
479 1 7.8608 17.297 14.1469 -8.90465 2.72587e-11
480 1 11.0059 17.2971 14.1466 -8.90466 2.71367e-11
481 1 14.1509 17.297 14.1469 -8.90465 2.70937e-11
482 1 17.2957 17.2968 14.1475 -8.90465 2.7144e-11
483 1 20.4405 17.2967 14.1478 -8.90468 2.72685e-11
484 1 1.57134 20.4415 14.1479 -8.9047 2.71954e-11
485 1 4.71614 20.4415 14.1478 -8.90468 2.71746e-11
486 1 7.86097 20.4416 14.1475 -8.9047 2.71182e-11
487 1 11.0059 20.4416 14.1474 -8.9047 2.70841e-11
488 1 14.1508 20.4416 14.1475 -8.9047 2.71219e-11
489 1 17.2956 20.4415 14.1478 -8.90468 2.7193e-11
490 1 20.4404 20.4415 14.1479 -8.9047 2.72061e-11
491 1 22.0128 8.46941e-14 15.7172 -8.88818 5.59121e-11
492 1 1.57147 1.57255 17.279 -8.90297 9.19033e-11
493 1 3.14384 -2.13561e-13 15.7172 -8.88819 5.58808e-11
494 1 4.71647 1.5726 17.279 -8.90302 9.18588e-11
495 1 6.28866 -4.76004e-13 15.7171 -8.88817 5.58238e-11
496 1 7.86119 1.57254 17.2788 -8.9031 9.17941e-11
497 1 9.43346 -3.65442e-13 15.7169 -8.8882 5.57474e-11
498 1 11.0059 1.5725 17.2787 -8.90309 9.17072e-11
499 1 12.5783 -3.66344e-13 15.7169 -8.8882 5.57739e-11
500 1 14.1506 1.57254 17.2788 -8.9031 9.1753e-11
501 1 15.7231 -4.7783e-13 15.7171 -8.88817 5.5857e-11
502 1 17.2953 1.5726 17.279 -8.90302 9.18737e-11
503 1 18.8679 -2.17116e-13 15.7172 -8.88819 5.59048e-11
504 1 20.4403 1.57255 17.279 -8.90297 9.19352e-11
505 1 22.0128 3.14492 15.7172 -8.88819 5.59611e-11
506 1 1.57152 4.71755 17.279 -8.90302 9.20696e-11
507 1 3.14383 3.14491 15.7171 -8.88818 5.59302e-11
508 1 4.71656 4.71764 17.2789 -8.90324 9.23149e-11
509 1 6.2886 3.14478 15.7169 -8.88809 5.60281e-11
510 1 7.86103 4.71722 17.2782 -8.90292 9.18894e-11
511 1 9.43342 3.14464 15.7165 -8.88817 5.58401e-11
512 1 11.0059 4.71706 17.2777 -8.90284 9.1906e-11
513 1 12.5783 3.14464 15.7165 -8.88817 5.58172e-11
514 1 14.1507 4.71722 17.2782 -8.90292 9.23416e-11
515 1 15.7231 3.14478 15.7169 -8.88809 5.57849e-11
516 1 17.2952 4.71764 17.2789 -8.90324 9.16885e-11
517 1 18.8679 3.14491 15.7171 -8.88818 5.5949e-11
518 1 20.4402 4.71755 17.279 -8.90302 9.2045e-11
519 1 22.0128 6.28974 15.7171 -8.88817 5.60625e-11
520 1 1.57146 7.86227 17.2788 -8.9031 9.25049e-11
521 1 3.1437 6.28967 15.7169 -8.88809 5.62668e-11
522 1 4.71614 7.86211 17.2782 -8.90292 9.08413e-11
523 1 6.28828 6.28936 15.7161 -8.8877 5.57236e-11
524 1 7.85997 7.86105 17.2759 -8.90267 8.7151e-11
525 1 9.43319 6.28897 15.7149 -8.88787 5.55547e-11
526 1 11.0059 7.86102 17.2737 -8.90497 9.12026e-11
527 1 12.5786 6.28897 15.7149 -8.88787 5.64064e-11
528 1 14.1518 7.86105 17.2759 -8.90267 9.99242e-11
529 1 15.7235 6.28936 15.7161 -8.8877 5.67086e-11
530 1 17.2956 7.86211 17.2782 -8.90292 9.40863e-11
531 1 18.868 6.28967 15.7169 -8.88809 5.58493e-11
532 1 20.4403 7.86227 17.2788 -8.9031 9.18823e-11
533 1 22.0128 9.43454 15.7169 -8.8882 5.60802e-11
534 1 1.57142 11.007 17.2787 -8.90309 9.27307e-11
535 1 3.14356 9.4345 15.7165 -8.88817 5.63945e-11
536 1 4.71598 11.007 17.2777 -8.90284 8.98809e-11
537 1 6.28789 9.43427 15.7149 -8.88787 5.44553e-11
538 1 7.85994 11.007 17.2737 -8.90497 9.57297e-11
539 1 9.43261 9.43369 15.7118 -8.88714 5.48117e-11
540 1 11.0059 11.007 17.2662 -8.91709 1.12424e-10
541 1 12.5791 9.43369 15.7118 -8.88714 5.70246e-11
542 1 14.1518 11.007 17.2737 -8.90497 8.94276e-11
543 1 15.7239 9.43427 15.7149 -8.88787 5.80256e-11
544 1 17.2958 11.007 17.2777 -8.90284 9.51057e-11
545 1 18.8682 9.4345 15.7165 -8.88817 5.57303e-11
546 1 20.4403 11.007 17.2787 -8.90309 9.16903e-11
547 1 22.0128 12.5794 15.7169 -8.8882 5.60802e-11
548 1 1.57146 14.1516 17.2788 -8.9031 9.25658e-11
549 1 3.14356 12.5794 15.7165 -8.88817 5.64287e-11
550 1 4.71614 14.1518 17.2782 -8.90292 9.05598e-11
551 1 6.28789 12.5796 15.7149 -8.88787 5.42096e-11
552 1 7.85997 14.1529 17.2759 -8.90267 8.61e-11
553 1 9.43261 12.5802 15.7118 -8.88714 5.48747e-11
554 1 11.0059 14.1529 17.2737 -8.90497 9.11964e-11
555 1 12.5791 12.5802 15.7118 -8.88714 5.70553e-11
556 1 14.1518 14.1529 17.2759 -8.90267 1.01292e-10
557 1 15.7239 12.5796 15.7149 -8.88787 5.82883e-11
558 1 17.2956 14.1518 17.2782 -8.90292 9.43737e-11
559 1 18.8682 12.5794 15.7165 -8.88817 5.56964e-11
560 1 20.4403 14.1516 17.2788 -8.9031 9.18216e-11
561 1 22.0128 15.7242 15.7171 -8.88817 5.60625e-11
562 1 1.57152 17.2964 17.279 -8.90302 9.20747e-11
563 1 3.1437 15.7242 15.7169 -8.88809 5.63099e-11
564 1 4.71656 17.2963 17.2789 -8.90324 9.23766e-11
565 1 6.28828 15.7245 15.7161 -8.8877 5.56569e-11
566 1 7.86103 17.2967 17.2782 -8.90292 9.18015e-11
567 1 9.43319 15.7249 15.7149 -8.88787 5.55305e-11
568 1 11.0059 17.2968 17.2777 -8.90284 9.19109e-11
569 1 12.5786 15.7249 15.7149 -8.88787 5.64471e-11
570 1 14.1507 17.2967 17.2782 -8.90292 9.24354e-11
571 1 15.7235 15.7245 15.7161 -8.8877 5.67777e-11
572 1 17.2952 17.2963 17.2789 -8.90324 9.16274e-11
573 1 18.868 15.7242 15.7169 -8.88809 5.58065e-11
574 1 20.4402 17.2964 17.279 -8.90302 9.20399e-11
575 1 22.0128 18.869 15.7172 -8.88819 5.59611e-11
576 1 1.57147 20.4413 17.279 -8.90297 9.18991e-11
577 1 3.14383 18.869 15.7171 -8.88818 5.59281e-11
578 1 4.71647 20.4413 17.279 -8.90302 9.18627e-11
579 1 6.2886 18.8691 15.7169 -8.88809 5.60528e-11
580 1 7.86119 20.4414 17.2788 -8.9031 9.18052e-11
581 1 9.43342 18.8693 15.7165 -8.88817 5.58405e-11
582 1 11.0059 20.4414 17.2787 -8.90309 9.17074e-11
583 1 12.5783 18.8693 15.7165 -8.88817 5.58173e-11