ITEM: TIMESTEP
104
ITEM: NUMBER OF ATOMS
736
ITEM: BOX BOUNDS pp pp pp
0.0000000000000000e+00 2.2013900999999997e+01
0.0000000000000000e+00 2.2013900999999997e+01
0.0000000000000000e+00 5.3462330999999999e+01
ITEM: ATOMS id type x y z c_pot c_ke
1 1 0.000121123 5.2653e-16 0.0963659 -7.40176 9.51886e-10
2 1 1.57257 1.57245 1.62311 -8.6838 8.62593e-10
3 1 3.14501 1.58009e-16 0.0963882 -7.40177 8.63925e-10
4 1 4.71745 1.57245 1.62317 -8.6838 7.99164e-10
5 1 6.28987 2.56172e-16 0.0964401 -7.40178 8.828e-10
6 1 7.86229 1.57245 1.62324 -8.6838 8.87025e-10
7 1 9.43469 3.35849e-16 0.0964823 -7.4018 9.9274e-10
8 1 11.0071 1.57246 1.62328 -8.68381 1.0661e-09
9 1 12.5795 -2.94263e-17 0.0964832 -7.4018 1.10997e-09
10 1 14.1519 1.57246 1.62326 -8.68381 1.20469e-09
11 1 15.7243 1.89328e-16 0.0964422 -7.40178 1.14814e-09
12 1 17.2967 1.57245 1.62318 -8.6838 1.19061e-09
13 1 18.8691 1.4919e-15 0.09639 -7.40176 1.07861e-09
14 1 20.4416 1.57245 1.62312 -8.6838 1.03521e-09
15 1 0.000120611 3.1449 0.0963911 -7.40176 9.81214e-10
16 1 1.57257 4.71732 1.62318 -8.6838 9.16537e-10
17 1 3.14502 3.1449 0.0964148 -7.40178 8.85873e-10
18 1 4.71746 4.71733 1.62324 -8.6838 8.36878e-10
19 1 6.28988 3.1449 0.0964724 -7.4018 9.05924e-10
20 1 7.8623 4.71734 1.62334 -8.68381 9.26042e-10
21 1 9.43469 3.14491 0.0965205 -7.40181 1.02472e-09
22 1 11.0071 4.71735 1.62339 -8.68382 1.1261e-09
23 1 12.5795 3.14491 0.0965229 -7.40181 1.15223e-09
24 1 14.1519 4.71734 1.62336 -8.68382 1.29276e-09
25 1 15.7243 3.14491 0.0964779 -7.40179 1.19399e-09
26 1 17.2967 4.71734 1.62327 -8.68381 1.28898e-09
27 1 18.8691 3.1449 0.0964192 -7.40177 1.1186e-09
28 1 20.4416 4.71733 1.62319 -8.6838 1.11627e-09
29 1 0.000119469 6.28975 0.0964474 -7.40179 1.04738e-09
30 1 1.57257 7.86215 1.62326 -8.68381 9.86583e-10
31 1 3.14502 6.28975 0.0964745 -7.4018 9.35117e-10
32 1 4.71746 7.86216 1.62334 -8.68381 8.83091e-10
33 1 6.28989 6.28976 0.0965454 -7.40182 9.55225e-10
34 1 7.86231 7.86217 1.62346 -8.68382 9.59684e-10
35 1 9.4347 6.28977 0.0966072 -7.40185 1.08967e-09
36 1 11.0071 7.86217 1.62353 -8.68383 1.17368e-09
37 1 12.5795 6.28977 0.0966131 -7.40185 1.23978e-09
38 1 14.1519 7.86217 1.62349 -8.68383 1.38563e-09
39 1 15.7243 6.28977 0.0965583 -7.40182 1.29425e-09
40 1 17.2967 7.86217 1.62338 -8.68382 1.41381e-09
41 1 18.8691 6.28976 0.0964845 -7.4018 1.20913e-09
42 1 20.4416 7.86216 1.62327 -8.68381 1.22201e-09
43 1 0.000118562 9.43456 0.0964924 -7.4018 1.10047e-09
44 1 1.57257 11.007 1.62329 -8.68381 1.01866e-09
45 1 3.14503 9.43456 0.0965224 -7.40182 9.74434e-10
46 1 4.71747 11.007 1.62338 -8.68381 9.03605e-10
47 1 6.2899 9.43456 0.0966044 -7.40185 9.92831e-10
48 1 7.86231 11.007 1.62351 -8.68382 9.70342e-10
49 1 9.4347 9.43457 0.0966778 -7.40187 1.13556e-09
50 1 11.0071 11.007 1.62359 -8.68383 1.1855e-09
51 1 12.5795 9.43457 0.0966864 -7.40187 1.30339e-09
52 1 14.1519 11.007 1.62355 -8.68383 1.42216e-09
53 1 15.7243 9.43457 0.0966231 -7.40185 1.37287e-09
54 1 17.2967 11.007 1.62343 -8.68382 1.47037e-09
55 1 18.8691 9.43456 0.0965367 -7.40182 1.28212e-09
56 1 20.4416 11.007 1.62331 -8.68381 1.27059e-09
57 1 0.000118562 12.5793 0.0964924 -7.4018 1.10047e-09
58 1 1.57257 14.1517 1.62326 -8.68381 9.86583e-10
59 1 3.14503 12.5793 0.0965224 -7.40182 9.74434e-10
60 1 4.71746 14.1517 1.62334 -8.68381 8.83091e-10
61 1 6.2899 12.5793 0.0966044 -7.40185 9.92831e-10
62 1 7.86231 14.1517 1.62346 -8.68382 9.59684e-10
63 1 9.4347 12.5793 0.0966778 -7.40187 1.13556e-09
64 1 11.0071 14.1517 1.62353 -8.68383 1.17368e-09
65 1 12.5795 12.5793 0.0966864 -7.40187 1.30339e-09
66 1 14.1519 14.1517 1.62349 -8.68383 1.38563e-09
67 1 15.7243 12.5793 0.0966231 -7.40185 1.37287e-09
68 1 17.2967 14.1517 1.62338 -8.68382 1.41381e-09
69 1 18.8691 12.5793 0.0965367 -7.40182 1.28212e-09
70 1 20.4416 14.1517 1.62327 -8.68381 1.22201e-09
71 1 0.000119469 15.7241 0.0964474 -7.40179 1.04738e-09
72 1 1.57257 17.2966 1.62318 -8.6838 9.16537e-10
73 1 3.14502 15.7241 0.0964745 -7.4018 9.35117e-10
74 1 4.71746 17.2966 1.62324 -8.6838 8.36878e-10
75 1 6.28989 15.7241 0.0965454 -7.40182 9.55225e-10
76 1 7.8623 17.2966 1.62334 -8.68381 9.26042e-10
77 1 9.4347 15.7241 0.0966072 -7.40185 1.08967e-09
78 1 11.0071 17.2966 1.62339 -8.68382 1.1261e-09
79 1 12.5795 15.7241 0.0966131 -7.40185 1.23978e-09
80 1 14.1519 17.2966 1.62336 -8.68382 1.29276e-09
81 1 15.7243 15.7241 0.0965583 -7.40182 1.29425e-09
82 1 17.2967 17.2966 1.62327 -8.68381 1.28898e-09
83 1 18.8691 15.7241 0.0964845 -7.4018 1.20913e-09
84 1 20.4416 17.2966 1.62319 -8.6838 1.11627e-09
85 1 0.000120611 18.869 0.0963911 -7.40176 9.81214e-10
86 1 1.57257 20.4415 1.62311 -8.6838 8.62593e-10
87 1 3.14502 18.869 0.0964148 -7.40178 8.85873e-10
88 1 4.71745 20.4415 1.62317 -8.6838 7.99164e-10
89 1 6.28988 18.869 0.0964724 -7.4018 9.05924e-10
90 1 7.86229 20.4414 1.62324 -8.6838 8.87025e-10
91 1 9.43469 18.869 0.0965205 -7.40181 1.02472e-09
92 1 11.0071 20.4414 1.62328 -8.68381 1.0661e-09
93 1 12.5795 18.869 0.0965229 -7.40181 1.15223e-09
94 1 14.1519 20.4414 1.62326 -8.68381 1.20469e-09
95 1 15.7243 18.869 0.0964779 -7.40179 1.19399e-09
96 1 17.2967 20.4414 1.62318 -8.6838 1.19061e-09
97 1 18.8691 18.869 0.0964192 -7.40177 1.1186e-09
98 1 20.4416 20.4415 1.62312 -8.6838 1.03521e-09
99 1 0.000122031 -3.75842e-15 3.15322 -8.93809 9.60294e-10
100 1 1.57257 1.57245 4.74253 -8.90303 8.89067e-10
101 1 3.14501 9.0204e-16 3.15324 -8.93809 8.12216e-10
102 1 4.71748 1.57246 4.74259 -8.90303 7.67613e-10
103 1 6.28989 -6.86432e-15 3.15332 -8.93808 8.12679e-10
104 1 7.86234 1.57247 4.7427 -8.90303 8.33573e-10
105 1 9.43472 4.4903e-16 3.15339 -8.93807 9.61302e-10
106 1 11.0071 1.57247 4.74277 -8.90303 1.04599e-09
107 1 12.5795 8.00122e-16 3.15341 -8.93807 1.15556e-09
108 1 14.1519 1.57247 4.74275 -8.90303 1.2501e-09
109 1 15.7243 1.06817e-15 3.15335 -8.93807 1.2444e-09
110 1 17.2967 1.57247 4.74265 -8.90303 1.28032e-09
111 1 18.8691 1.42167e-15 3.15327 -8.93808 1.1539e-09
112 1 20.4416 1.57246 4.74256 -8.90303 1.11564e-09
113 1 0.000119652 3.14489 3.15326 -8.93808 9.92609e-10
114 1 1.57257 4.71734 4.74262 -8.90303 9.22812e-10
115 1 3.14502 3.14489 3.15328 -8.93808 8.27529e-10
116 1 4.71748 4.71735 4.74269 -8.90303 7.41738e-10
117 1 6.28989 3.1449 3.15337 -8.93807 8.12359e-10
118 1 7.86235 4.71736 4.74283 -8.90303 7.4156e-10
119 1 9.43472 3.14491 3.15346 -8.93806 9.5629e-10
120 1 11.0071 4.71738 4.74293 -8.90302 9.25122e-10
121 1 12.5795 3.14491 3.15348 -8.93805 1.16294e-09
122 1 14.1519 4.71738 4.74291 -8.90302 1.17331e-09
123 1 15.7243 3.14491 3.15341 -8.93806 1.27284e-09
124 1 17.2967 4.71737 4.74278 -8.90302 1.29027e-09
125 1 18.8691 3.1449 3.15332 -8.93807 1.1937e-09
126 1 20.4416 4.71735 4.74265 -8.90303 1.1721e-09
127 1 0.000114334 6.28975 3.15335 -8.93807 1.07002e-09
128 1 1.57257 7.86217 4.74272 -8.90303 9.74171e-10
129 1 3.14502 6.28975 3.15338 -8.93807 8.64115e-10
130 1 4.71749 7.86217 4.74283 -8.90303 7.16228e-10
131 1 6.2899 6.28976 3.1535 -8.93806 7.9998e-10
132 1 7.86236 7.86219 4.74301 -8.90302 5.98511e-10
133 1 9.43472 6.28977 3.15361 -8.93804 9.10284e-10
134 1 11.0071 7.8622 4.74314 -8.90301 6.98217e-10
135 1 12.5795 6.28978 3.15364 -8.93803 1.13799e-09
136 1 14.1519 7.8622 4.74311 -8.90301 1.00721e-09
137 1 15.7243 6.28977 3.15356 -8.93804 1.31792e-09
138 1 17.2967 7.86219 4.74294 -8.90302 1.29276e-09
139 1 18.8691 6.28976 3.15343 -8.93806 1.28614e-09
140 1 20.4415 7.86217 4.74277 -8.90303 1.25194e-09
141 1 0.000110082 9.43456 3.15342 -8.93806 1.13628e-09
142 1 1.57257 11.007 4.74277 -8.90303 9.99989e-10
143 1 3.14502 9.43456 3.15346 -8.93806 8.95587e-10
144 1 4.7175 11.007 4.74289 -8.90303 7.07305e-10
145 1 6.28991 9.43456 3.1536 -8.93804 7.82944e-10
146 1 7.86236 11.007 4.74309 -8.90302 5.30964e-10
147 1 9.43473 9.43457 3.15374 -8.93802 8.40921e-10
148 1 11.0071 11.007 4.74323 -8.90301 5.73512e-10
149 1 12.5795 9.43457 3.15377 -8.93801 1.07872e-09
150 1 14.1519 11.007 4.7432 -8.90301 9.17744e-10
151 1 15.7243 9.43457 3.15367 -8.93802 1.3422e-09
152 1 17.2967 11.007 4.74302 -8.90302 1.29275e-09
153 1 18.8691 9.43456 3.15352 -8.93805 1.36393e-09
154 1 20.4415 11.007 4.74283 -8.90302 1.29074e-09
155 1 0.000110082 12.5793 3.15342 -8.93806 1.13628e-09
156 1 1.57257 14.1517 4.74272 -8.90303 9.74171e-10
157 1 3.14502 12.5793 3.15346 -8.93806 8.95587e-10
158 1 4.71749 14.1517 4.74283 -8.90303 7.16228e-10
159 1 6.28991 12.5793 3.1536 -8.93804 7.82944e-10
160 1 7.86236 14.1517 4.74301 -8.90302 5.98511e-10
161 1 9.43473 12.5793 3.15374 -8.93802 8.40921e-10
162 1 11.0071 14.1517 4.74314 -8.90301 6.98217e-10
163 1 12.5795 12.5793 3.15377 -8.93801 1.07872e-09
164 1 14.1519 14.1517 4.74311 -8.90301 1.00721e-09
165 1 15.7243 12.5793 3.15367 -8.93802 1.3422e-09
166 1 17.2967 14.1517 4.74294 -8.90302 1.29276e-09
167 1 18.8691 12.5793 3.15352 -8.93805 1.36393e-09
168 1 20.4415 14.1517 4.74277 -8.90303 1.25194e-09
169 1 0.000114334 15.7242 3.15335 -8.93807 1.07002e-09
170 1 1.57257 17.2966 4.74262 -8.90303 9.22812e-10
171 1 3.14502 15.7242 3.15338 -8.93807 8.64115e-10
172 1 4.71748 17.2966 4.74269 -8.90303 7.41738e-10
173 1 6.2899 15.7241 3.1535 -8.93806 7.9998e-10
174 1 7.86235 17.2965 4.74283 -8.90303 7.4156e-10
175 1 9.43472 15.7241 3.15361 -8.93804 9.10284e-10
176 1 11.0071 17.2965 4.74293 -8.90302 9.25122e-10
177 1 12.5795 15.7241 3.15364 -8.93803 1.13799e-09
178 1 14.1519 17.2965 4.74291 -8.90302 1.17331e-09
179 1 15.7243 15.7241 3.15356 -8.93804 1.31792e-09
180 1 17.2967 17.2965 4.74278 -8.90302 1.29027e-09
181 1 18.8691 15.7241 3.15343 -8.93806 1.28614e-09
182 1 20.4416 17.2966 4.74265 -8.90303 1.1721e-09
183 1 0.000119652 18.869 3.15326 -8.93808 9.92609e-10
184 1 1.57257 20.4414 4.74253 -8.90303 8.89067e-10
185 1 3.14502 18.869 3.15328 -8.93808 8.27529e-10
186 1 4.71748 20.4414 4.74259 -8.90303 7.67613e-10
187 1 6.28989 18.869 3.15337 -8.93807 8.12359e-10
188 1 7.86234 20.4414 4.7427 -8.90303 8.33573e-10
189 1 9.43472 18.869 3.15346 -8.93806 9.5629e-10
190 1 11.0071 20.4414 4.74277 -8.90303 1.04599e-09
191 1 12.5795 18.869 3.15348 -8.93805 1.16294e-09
192 1 14.1519 20.4414 4.74275 -8.90303 1.2501e-09
193 1 15.7243 18.869 3.15341 -8.93806 1.27284e-09
194 1 17.2967 20.4414 4.74265 -8.90303 1.28032e-09
195 1 18.8691 18.869 3.15332 -8.93807 1.1937e-09
196 1 20.4416 20.4414 4.74256 -8.90303 1.11564e-09
197 1 0.000109872 -1.98157e-16 6.30425 -8.88813 1.06012e-09
198 1 1.57256 1.57248 7.87344 -8.90469 9.94146e-10
199 1 3.14505 5.19993e-15 6.30426 -8.88813 8.139e-10
200 1 4.71754 1.57249 7.87351 -8.90469 7.53744e-10
201 1 6.28996 -2.4398e-15 6.30437 -8.88813 7.48662e-10
202 1 7.86243 1.57251 7.87368 -8.90469 7.56847e-10
203 1 9.43479 3.35199e-15 6.30449 -8.88812 9.12e-10
204 1 11.0072 1.57253 7.87382 -8.90468 1.00736e-09
205 1 12.5796 -9.73186e-16 6.30454 -8.88812 1.1946e-09
206 1 14.1519 1.57254 7.87383 -8.90468 1.33099e-09
207 1 15.7243 -2.39349e-15 6.30447 -8.88812 1.37559e-09
208 1 17.2967 1.57252 7.87369 -8.90468 1.46868e-09
209 1 18.8691 -6.13288e-16 6.30435 -8.88813 1.31108e-09
210 1 20.4415 1.5725 7.87352 -8.90469 1.31767e-09
211 1 9.97491e-05 3.14493 6.30431 -8.88813 1.08003e-09
212 1 1.57255 4.7174 7.87358 -8.90469 1.04812e-09
213 1 3.14505 3.14493 6.30432 -8.88813 8.037e-10
214 1 4.71754 4.71742 7.87368 -8.90469 7.64533e-10
215 1 6.28997 3.14495 6.30445 -8.88813 6.84161e-10
216 1 7.86244 4.71746 7.87392 -8.90468 6.23527e-10
217 1 9.4348 3.14497 6.3046 -8.88812 7.93299e-10
218 1 11.0072 4.71751 7.87413 -8.90466 6.43761e-10
219 1 12.5795 3.14499 6.30466 -8.88812 1.06147e-09
220 1 14.1519 4.71753 7.87413 -8.90466 8.89878e-10
221 1 15.7243 3.14498 6.30459 -8.88812 1.29372e-09
222 1 17.2966 4.71749 7.87393 -8.90467 1.22551e-09
223 1 18.8691 3.14496 6.30443 -8.88812 1.30517e-09
224 1 20.4415 4.71743 7.87368 -8.90468 1.31223e-09
225 1 7.71053e-05 6.2898 6.30445 -8.88812 1.13918e-09
226 1 1.57253 7.86222 7.87375 -8.90468 1.1553e-09
227 1 3.14505 6.28979 6.30447 -8.88813 8.08127e-10
228 1 4.71755 7.86223 7.8739 -8.90468 8.48208e-10
229 1 6.28998 6.28982 6.30465 -8.88812 5.48063e-10
230 1 7.86245 7.86227 7.87423 -8.90466 5.71819e-10
231 1 9.4348 6.28985 6.30487 -8.88811 4.71614e-10
232 1 11.0072 7.86231 7.87452 -8.90463 2.80624e-10
233 1 12.5795 6.28987 6.30495 -8.8881 6.45673e-10
234 1 14.1518 7.86232 7.87452 -8.90463 2.49863e-10
235 1 15.7242 6.28986 6.30484 -8.8881 1.02386e-09
236 1 17.2965 7.86229 7.87423 -8.90465 8.62058e-10
237 1 18.8691 6.28983 6.30461 -8.88812 1.28494e-09
238 1 20.4414 7.86224 7.87389 -8.90467 1.31725e-09
239 1 5.89594e-05 9.43458 6.30457 -8.88812 1.20011e-09
240 1 1.57252 11.007 7.87382 -8.90468 1.21334e-09
241 1 3.14505 9.43458 6.30459 -8.88812 8.31153e-10
242 1 4.71755 11.007 7.874 -8.90467 8.95765e-10
243 1 6.28999 9.43459 6.30481 -8.88811 4.67517e-10
244 1 7.86245 11.007 7.87438 -8.90464 6.25502e-10
245 1 9.4348 9.43461 6.30509 -8.8881 2.13922e-10
246 1 11.0072 11.007 7.8747 -8.90463 3.35443e-10
247 1 12.5795 9.43461 6.30519 -8.88809 2.45345e-10
248 1 14.1518 11.007 7.8747 -8.90461 7.14078e-12
249 1 15.7242 9.43461 6.30505 -8.88809 7.60726e-10
250 1 17.2965 11.007 7.87437 -8.90464 6.88269e-10
251 1 18.869 9.43459 6.30476 -8.88811 1.27196e-09
252 1 20.4414 11.007 7.87398 -8.90467 1.32539e-09
253 1 5.89594e-05 12.5793 6.30457 -8.88812 1.20011e-09
254 1 1.57253 14.1517 7.87375 -8.90468 1.1553e-09
255 1 3.14505 12.5793 6.30459 -8.88812 8.31153e-10
256 1 4.71755 14.1517 7.8739 -8.90468 8.48208e-10
257 1 6.28999 12.5793 6.30481 -8.88811 4.67517e-10
258 1 7.86245 14.1516 7.87423 -8.90466 5.71819e-10
259 1 9.4348 12.5793 6.30509 -8.8881 2.13922e-10
260 1 11.0072 14.1516 7.87452 -8.90463 2.80624e-10
261 1 12.5795 12.5793 6.30519 -8.88809 2.45345e-10
262 1 14.1518 14.1516 7.87452 -8.90463 2.49863e-10
263 1 15.7242 12.5793 6.30505 -8.88809 7.60726e-10
264 1 17.2965 14.1516 7.87423 -8.90465 8.62058e-10
265 1 18.869 12.5793 6.30476 -8.88811 1.27196e-09
266 1 20.4414 14.1517 7.87389 -8.90467 1.31725e-09
267 1 7.71053e-05 15.7241 6.30445 -8.88812 1.13918e-09
268 1 1.57255 17.2965 7.87358 -8.90469 1.04812e-09
269 1 3.14505 15.7241 6.30447 -8.88813 8.08127e-10
270 1 4.71754 17.2965 7.87368 -8.90469 7.64533e-10
271 1 6.28998 15.7241 6.30465 -8.88812 5.48063e-10
272 1 7.86244 17.2964 7.87392 -8.90468 6.23527e-10
273 1 9.4348 15.724 6.30487 -8.88811 4.71614e-10
274 1 11.0072 17.2964 7.87413 -8.90466 6.43761e-10
275 1 12.5795 15.724 6.30495 -8.8881 6.45673e-10
276 1 14.1519 17.2964 7.87413 -8.90466 8.89878e-10
277 1 15.7242 15.724 6.30484 -8.8881 1.02386e-09
278 1 17.2966 17.2964 7.87393 -8.90467 1.22551e-09
279 1 18.8691 15.7241 6.30461 -8.88812 1.28494e-09
280 1 20.4415 17.2965 7.87368 -8.90468 1.31223e-09
281 1 9.97491e-05 18.869 6.30431 -8.88813 1.08003e-09
282 1 1.57256 20.4414 7.87344 -8.90469 9.94146e-10
283 1 3.14505 18.869 6.30432 -8.88813 8.037e-10
284 1 4.71754 20.4414 7.87351 -8.90469 7.53744e-10
285 1 6.28997 18.869 6.30445 -8.88813 6.84161e-10
286 1 7.86243 20.4414 7.87368 -8.90469 7.56847e-10
287 1 9.4348 18.8689 6.3046 -8.88812 7.93299e-10
288 1 11.0072 20.4414 7.87382 -8.90468 1.00736e-09
289 1 12.5795 18.8689 6.30466 -8.88812 1.06147e-09
290 1 14.1519 20.4414 7.87383 -8.90468 1.33099e-09
291 1 15.7243 18.8689 6.30459 -8.88812 1.29372e-09
292 1 17.2967 20.4414 7.87369 -8.90468 1.46868e-09
293 1 18.8691 18.8689 6.30443 -8.88812 1.30517e-09
294 1 20.4415 20.4414 7.87352 -8.90469 1.31767e-09
295 1 3.55466e-05 -1.3135e-15 9.44168 -8.89867 1.36248e-09
296 1 1.57246 1.57251 11.0097 -8.90011 1.58666e-09
297 1 3.14505 -2.93368e-15 9.44166 -8.89867 9.9787e-10
298 1 4.71754 1.57252 11.0098 -8.90011 1.38657e-09
299 1 6.29003 -6.54215e-15 9.44181 -8.89867 8.39234e-10
300 1 7.8625 1.57256 11.01 -8.90011 1.40753e-09
301 1 9.43489 1.6812e-15 9.44203 -8.89867 9.89347e-10
302 1 11.0073 1.57262 11.0103 -8.9001 1.62227e-09
303 1 12.5796 -4.76563e-15 9.44215 -8.89866 1.38138e-09
304 1 14.1519 1.57264 11.0104 -8.90009 1.94729e-09
305 1 15.7243 3.04673e-15 9.44207 -8.89867 1.69959e-09
306 1 17.2965 1.57262 11.0102 -8.9001 2.08813e-09
307 1 18.869 8.6359e-16 9.44187 -8.89867 1.68379e-09
308 1 20.4413 1.57256 11.0099 -8.90011 1.93647e-09
309 1 1.97839e-06 3.145 9.44178 -8.89867 1.41023e-09
310 1 1.5724 4.71747 11.0099 -8.90011 2.05227e-09
311 1 3.14504 3.14498 9.44176 -8.89867 1.12534e-09
312 1 4.71751 4.71748 11.01 -8.90009 2.31241e-09
313 1 6.29004 3.14502 9.44195 -8.89867 9.75856e-10
314 1 7.86247 4.71757 11.0105 -8.90008 2.55126e-09
315 1 9.43488 3.14509 9.44224 -8.89866 9.68707e-10
316 1 11.0072 4.71771 11.0109 -8.90006 2.057e-09
317 1 12.5796 3.14514 9.44239 -8.89866 1.12434e-09
318 1 14.1517 4.71777 11.011 -8.90006 1.42566e-09
319 1 15.7242 3.14513 9.44229 -8.89866 1.39551e-09
320 1 17.2963 4.71771 11.0106 -8.90007 1.30801e-09
321 1 18.869 3.14506 9.44202 -8.89867 1.55942e-09
322 1 20.4412 4.71757 11.0101 -8.9001 1.84566e-09
323 1 -7.32009e-05 6.28988 9.44201 -8.89867 1.53319e-09
324 1 1.57231 7.86228 11.0102 -8.9001 2.68154e-09
325 1 3.14502 6.28986 9.44199 -8.89867 1.47866e-09
326 1 4.71746 7.86228 11.0104 -8.90008 3.97757e-09
327 1 6.29003 6.28991 9.44229 -8.89866 1.49257e-09
328 1 7.86238 7.86235 11.011 -8.9001 7.04616e-09
329 1 9.43485 6.28999 9.44272 -8.89864 1.29547e-09
330 1 11.007 7.86245 11.0117 -8.90005 6.35122e-09
331 1 12.5795 6.29006 9.44296 -8.89863 7.53417e-10
332 1 14.1515 7.86251 11.0117 -8.90002 2.04553e-09
333 1 15.724 6.29005 9.44278 -8.89863 5.91389e-10
334 1 17.2961 7.86247 11.0112 -8.90005 4.44573e-10
335 1 18.8688 6.28997 9.44235 -8.89866 1.21991e-09
336 1 20.441 7.86236 11.0105 -8.90009 1.66916e-09
337 1 -0.00013373 9.43462 9.4422 -8.89866 1.65325e-09
338 1 1.57227 11.007 11.0103 -8.9001 2.96293e-09
339 1 3.145 9.43461 9.44218 -8.89866 1.80097e-09
340 1 4.71744 11.007 11.0106 -8.90008 4.87398e-09
341 1 6.29003 9.43463 9.44258 -8.89864 2.22004e-09
342 1 7.86234 11.007 11.0113 -8.9001 1.13009e-08
343 1 9.43481 9.43466 9.44312 -8.89866 3.10323e-09
344 1 11.0069 11.007 11.0119 -8.9003 1.15444e-08
345 1 12.5794 9.43469 9.44341 -8.89864 1.72237e-09
346 1 14.1514 11.007 11.0121 -8.9 2.61598e-09
347 1 15.7239 9.43469 9.44319 -8.89862 8.68721e-11
348 1 17.296 11.007 11.0115 -8.90004 3.23494e-11
349 1 18.8687 9.43466 9.44263 -8.89865 9.25881e-10
350 1 20.4409 11.007 11.0107 -8.90009 1.57492e-09
351 1 -0.00013373 12.5793 9.4422 -8.89866 1.65325e-09
352 1 1.57231 14.1516 11.0102 -8.9001 2.68154e-09
353 1 3.145 12.5793 9.44218 -8.89866 1.80097e-09
354 1 4.71746 14.1516 11.0104 -8.90008 3.97757e-09
355 1 6.29003 12.5793 9.44258 -8.89864 2.22004e-09
356 1 7.86238 14.1516 11.011 -8.9001 7.04616e-09
357 1 9.43481 12.5792 9.44312 -8.89866 3.10323e-09
358 1 11.007 14.1515 11.0117 -8.90005 6.35122e-09
359 1 12.5794 12.5792 9.44341 -8.89864 1.72237e-09
360 1 14.1515 14.1514 11.0117 -8.90002 2.04553e-09
361 1 15.7239 12.5792 9.44319 -8.89862 8.68721e-11
362 1 17.2961 14.1514 11.0112 -8.90005 4.44573e-10
363 1 18.8687 12.5792 9.44263 -8.89865 9.25881e-10
364 1 20.441 14.1515 11.0105 -8.90009 1.66916e-09
365 1 -7.32009e-05 15.724 9.44201 -8.89867 1.53319e-09
366 1 1.5724 17.2964 11.0099 -8.90011 2.05227e-09
367 1 3.14502 15.724 9.44199 -8.89867 1.47866e-09
368 1 4.71751 17.2964 11.01 -8.90009 2.31241e-09
369 1 6.29003 15.724 9.44229 -8.89866 1.49257e-09
370 1 7.86247 17.2963 11.0105 -8.90008 2.55126e-09
371 1 9.43485 15.7239 9.44272 -8.89864 1.29547e-09
372 1 11.0072 17.2962 11.0109 -8.90006 2.057e-09
373 1 12.5795 15.7238 9.44296 -8.89863 7.53417e-10
374 1 14.1517 17.2961 11.011 -8.90006 1.42566e-09
375 1 15.724 15.7239 9.44278 -8.89863 5.91389e-10
376 1 17.2963 17.2962 11.0106 -8.90007 1.30801e-09
377 1 18.8688 15.7239 9.44235 -8.89866 1.21991e-09
378 1 20.4412 17.2963 11.0101 -8.9001 1.84566e-09
379 1 1.97839e-06 18.8689 9.44178 -8.89867 1.41023e-09
380 1 1.57246 20.4414 11.0097 -8.90011 1.58666e-09
381 1 3.14504 18.8689 9.44176 -8.89867 1.12534e-09
382 1 4.71754 20.4414 11.0098 -8.90011 1.38657e-09
383 1 6.29004 18.8689 9.44195 -8.89867 9.75856e-10
384 1 7.8625 20.4413 11.01 -8.90011 1.40753e-09
385 1 9.43488 18.8688 9.44224 -8.89866 9.68707e-10
386 1 11.0073 20.4413 11.0103 -8.9001 1.62227e-09
387 1 12.5796 18.8688 9.44239 -8.89866 1.12434e-09
388 1 14.1519 20.4413 11.0104 -8.90009 1.94729e-09
389 1 15.7242 18.8688 9.44229 -8.89866 1.39551e-09
390 1 17.2965 20.4413 11.0102 -8.9001 2.08813e-09
391 1 18.869 18.8688 9.44202 -8.89867 1.55942e-09
392 1 20.4413 20.4413 11.0099 -8.90011 1.93647e-09
393 1 -0.000164081 2.46274e-16 12.5777 -8.89868 2.30318e-09
394 1 3.14493 1.08382e-15 12.5776 -8.89867 1.99147e-09
395 1 6.29002 7.55479e-16 12.5778 -8.89868 2.17406e-09
396 1 9.43492 -1.77264e-17 12.5782 -8.89868 2.53751e-09
397 1 12.5796 -3.90359e-15 12.5784 -8.89867 2.92889e-09
398 1 15.7241 -9.36325e-16 12.5783 -8.89867 3.07002e-09
399 1 18.8688 -7.13224e-16 12.578 -8.89868 2.82443e-09
400 1 22.0136 3.14508 12.5779 -8.89868 2.56892e-09
401 1 3.14488 3.145 12.5778 -8.89867 2.69068e-09
402 1 6.28998 3.14505 12.5781 -8.89866 3.23641e-09
403 1 9.43486 3.1452 12.5786 -8.89867 3.32168e-09
404 1 12.5795 3.14534 12.5789 -8.89866 3.00706e-09
405 1 15.724 3.14536 12.5788 -8.89867 2.64102e-09
406 1 18.8686 3.14524 12.5783 -8.89869 2.46143e-09
407 1 22.0134 6.28998 12.5782 -8.89868 3.05939e-09
408 1 3.14476 6.28989 12.5781 -8.89865 4.75498e-09
409 1 6.28984 6.28992 12.5786 -8.8986 8.84796e-09
410 1 9.43465 6.29009 12.5794 -8.89866 9.32035e-09
411 1 12.5791 6.29029 12.58 -8.89861 5.13774e-09
412 1 15.7236 6.29034 12.5797 -8.89861 1.74801e-09
413 1 18.8683 6.29018 12.5789 -8.89868 1.58587e-09
414 1 22.0132 9.43466 12.5785 -8.89867 3.41562e-09
415 1 3.14465 9.43462 12.5784 -8.89865 6.81349e-09
416 1 6.2897 9.43464 12.5791 -8.89865 1.62273e-08
417 1 9.43436 9.43464 12.58 -8.89876 1.02284e-08
418 1 12.5789 9.43473 12.5807 -8.89859 3.61556e-09
419 1 15.7232 9.43482 12.5805 -8.8986 1.50276e-09
420 1 18.868 9.43475 12.5794 -8.89867 7.33457e-10
421 1 22.0132 12.5792 12.5785 -8.89867 3.41562e-09
422 1 3.14465 12.5793 12.5784 -8.89865 6.81349e-09
423 1 6.2897 12.5793 12.5791 -8.89865 1.62273e-08
424 1 9.43436 12.5793 12.58 -8.89876 1.02284e-08
425 1 12.5789 12.5792 12.5807 -8.89859 3.61556e-09
426 1 15.7232 12.5791 12.5805 -8.8986 1.50276e-09
427 1 18.868 12.5791 12.5794 -8.89867 7.33457e-10
428 1 22.0134 15.7239 12.5782 -8.89868 3.05939e-09
429 1 3.14476 15.724 12.5781 -8.89865 4.75498e-09
430 1 6.28984 15.724 12.5786 -8.8986 8.84796e-09
431 1 9.43465 15.7238 12.5794 -8.89866 9.32035e-09
432 1 12.5791 15.7236 12.58 -8.89861 5.13774e-09
433 1 15.7236 15.7236 12.5797 -8.89861 1.74801e-09
434 1 18.8683 15.7237 12.5789 -8.89868 1.58587e-09
435 1 22.0136 18.8688 12.5779 -8.89868 2.56892e-09
436 1 3.14488 18.8689 12.5778 -8.89867 2.69068e-09
437 1 6.28998 18.8689 12.5781 -8.89866 3.23641e-09
438 1 9.43486 18.8687 12.5786 -8.89867 3.32168e-09
439 1 12.5795 18.8686 12.5789 -8.89866 3.00706e-09
440 1 15.724 18.8685 12.5788 -8.89867 2.64102e-09
441 1 18.8686 18.8687 12.5783 -8.89869 2.46143e-09
442 1 1.5722 1.57252 14.1458 -8.90468 2.97817e-09
443 1 4.71736 1.5725 14.1459 -8.90467 3.50913e-09
444 1 7.86243 1.57257 14.1463 -8.90468 4.57e-09
445 1 11.0072 1.5727 14.1468 -8.90467 5.18234e-09
446 1 14.1517 1.5728 14.1469 -8.90467 5.21524e-09
447 1 17.2962 1.57276 14.1466 -8.90467 4.34358e-09
448 1 20.441 1.57263 14.1461 -8.90468 3.55343e-09
449 1 1.57198 4.71749 14.1461 -8.90466 4.63508e-09
450 1 4.7172 4.71743 14.1463 -8.90466 7.22992e-09
451 1 7.86219 4.71756 14.147 -8.90472 8.98447e-09
452 1 11.0069 4.71788 14.1479 -8.90469 6.10387e-09
453 1 14.1513 4.71811 14.1481 -8.90468 3.61233e-09
454 1 17.2957 4.71805 14.1475 -8.90471 3.4675e-09
455 1 20.4407 4.71774 14.1466 -8.90468 3.44577e-09
456 1 1.5717 7.86229 14.1465 -8.90466 7.01606e-09
457 1 4.7169 7.86221 14.1469 -8.90472 1.46931e-08
458 1 7.86162 7.86216 14.1478 -8.9047 2.95006e-09
459 1 11.0063 7.86243 14.149 -8.90454 1.88944e-08
460 1 14.1507 7.86268 14.1495 -8.90409 8.92246e-09
461 1 17.2951 7.86274 14.1485 -8.90468 1.53439e-09
462 1 20.4402 7.86249 14.1471 -8.90469 3.26974e-09
463 1 1.57157 11.007 14.1467 -8.90466 8.05864e-09
464 1 4.71677 11.007 14.1471 -8.9047 1.75833e-08
465 1 7.86139 11.007 14.1481 -8.90474 3.95782e-09
466 1 11.006 11.007 14.1488 -8.90539 2.28508e-08
467 1 14.1504 11.007 14.1501 -8.9043 4.27373e-08
468 1 17.2948 11.007 14.149 -8.90466 8.85931e-11
469 1 20.44 11.007 14.1474 -8.90468 3.08993e-09
470 1 1.5717 14.1516 14.1465 -8.90466 7.01606e-09
471 1 4.7169 14.1517 14.1469 -8.90472 1.46931e-08
472 1 7.86162 14.1517 14.1478 -8.9047 2.95006e-09
473 1 11.0063 14.1515 14.149 -8.90454 1.88944e-08
474 1 14.1507 14.1512 14.1495 -8.90409 8.92246e-09
475 1 17.2951 14.1512 14.1485 -8.90468 1.53439e-09
476 1 20.4402 14.1514 14.1471 -8.90469 3.26974e-09
477 1 1.57198 17.2964 14.1461 -8.90466 4.63508e-09
478 1 4.7172 17.2965 14.1463 -8.90466 7.22992e-09
479 1 7.86219 17.2963 14.147 -8.90472 8.98447e-09
480 1 11.0069 17.296 14.1479 -8.90469 6.10387e-09
481 1 14.1513 17.2958 14.1481 -8.90468 3.61233e-09
482 1 17.2957 17.2958 14.1475 -8.90471 3.4675e-09
483 1 20.4407 17.2962 14.1466 -8.90468 3.44577e-09
484 1 1.5722 20.4414 14.1458 -8.90468 2.97817e-09
485 1 4.71736 20.4414 14.1459 -8.90467 3.50913e-09
486 1 7.86243 20.4413 14.1463 -8.90468 4.57e-09
487 1 11.0072 20.4412 14.1468 -8.90467 5.18234e-09
488 1 14.1517 20.4411 14.1469 -8.90467 5.21524e-09
489 1 17.2962 20.4411 14.1466 -8.90467 4.34358e-09
490 1 20.441 20.4413 14.1461 -8.90468 3.55343e-09
491 1 22.0134 1.20404e-15 15.7149 -8.88815 3.61781e-09
492 1 1.5718 1.57246 17.2764 -8.90299 3.46939e-09
493 1 3.14464 1.3543e-15 15.7148 -8.88814 3.23343e-09
494 1 4.71697 1.57242 17.2765 -8.90304 4.847e-09
495 1 6.2898 -2.86806e-16 15.715 -8.88813 5.23731e-09
496 1 7.8621 1.57249 17.277 -8.90315 9.3593e-09
497 1 9.43481 2.53111e-15 15.7155 -8.88815 7.78154e-09
498 1 11.007 1.57276 17.2777 -8.90306 1.41073e-08
499 1 12.5795 6.31695e-15 15.7159 -8.88814 9.14649e-09
500 1 14.1514 1.57301 17.2779 -8.90301 1.54239e-08
501 1 15.7239 1.00499e-15 15.7158 -8.88814 7.91957e-09
502 1 17.2958 1.57297 17.2775 -8.90301 1.07832e-08
503 1 18.8685 -1.56808e-15 15.7154 -8.88818 5.62614e-09
504 1 20.4407 1.57268 17.2768 -8.90299 5.97508e-09
505 1 22.0132 3.1451 15.7151 -8.88817 4.42782e-09
506 1 1.57134 4.71737 17.2768 -8.903 7.04879e-09
507 1 3.1445 3.14493 15.715 -8.88813 5.02404e-09
508 1 4.71655 4.71723 17.2772 -8.90323 9.45681e-09
509 1 6.28963 3.14493 15.7154 -8.8881 7.40107e-09
510 1 7.86133 4.71715 17.2782 -8.90324 1.74048e-08
511 1 9.43457 3.14517 15.7162 -8.88821 7.18989e-09
512 1 11.0061 4.71793 17.2796 -8.90292 1.26664e-08
513 1 12.5791 3.14554 15.7167 -8.88818 6.91477e-09
514 1 14.1503 4.71867 17.28 -8.90275 4.05509e-09
515 1 15.7235 3.14568 15.7166 -8.88816 7.67385e-09
516 1 17.2947 4.71865 17.2789 -8.90328 1.15507e-08
517 1 18.8682 3.14544 15.7158 -8.88821 5.70369e-09
518 1 20.4399 4.7179 17.2774 -8.90305 7.88906e-09
519 1 22.0127 6.29001 15.7156 -8.88814 6.24957e-09
520 1 1.57064 7.86216 17.2773 -8.90308 1.23218e-08
521 1 3.14409 6.28975 15.7155 -8.88808 1.06824e-08
522 1 4.71544 7.86185 17.2779 -8.90324 8.26242e-09
523 1 6.289 6.28963 15.7163 -8.88779 6.26609e-09
524 1 7.8594 7.86138 17.2793 -8.9034 1.51094e-07
525 1 9.43377 6.28979 15.7176 -8.88792 8.55699e-09
526 1 11.0045 7.86248 17.2812 -8.90545 1.01833e-06
527 1 12.5783 6.29046 15.7188 -8.888 3.47215e-08
528 1 14.1486 7.86322 17.2831 -8.90264 1.12599e-06
529 1 15.7226 6.29074 15.7184 -8.88796 3.41241e-09
530 1 17.2933 7.86322 17.2808 -8.90273 5.6009e-09
531 1 18.8674 6.29046 15.7168 -8.88819 5.66364e-09
532 1 20.4389 7.86262 17.2782 -8.90304 1.02901e-08
533 1 22.0123 9.43467 15.716 -8.88814 7.84318e-09
534 1 1.5703 11.007 17.2775 -8.90307 1.31338e-08
535 1 3.14369 9.43455 15.7159 -8.88816 1.43477e-08
536 1 4.71497 11.007 17.2782 -8.90308 3.88115e-10
537 1 6.28825 9.43445 15.7169 -8.88783 1.70825e-10
538 1 7.85896 11.007 17.2795 -8.90589 1.09198e-06
539 1 9.4325 9.43416 15.7178 -8.8848 1.25301e-07
540 1 11.0029 11.007 17.2796 -8.92461 2.74991e-05
541 1 12.5777 9.43448 15.7197 -8.88682 7.91073e-07
542 1 14.1476 11.007 17.2834 -8.90499 7.52818e-07
543 1 15.7218 9.43499 15.7198 -8.88803 3.81762e-08
544 1 17.2926 11.007 17.2816 -8.9027 1.51573e-08
545 1 18.8667 9.43488 15.7176 -8.88823 3.06392e-09
546 1 20.4385 11.007 17.2786 -8.903 1.11748e-08
547 1 22.0123 12.5792 15.716 -8.88814 7.84318e-09
548 1 1.57064 14.1517 17.2773 -8.90308 1.23218e-08
549 1 3.14369 12.5794 15.7159 -8.88816 1.43477e-08
550 1 4.71544 14.152 17.2779 -8.90324 8.26242e-09
551 1 6.28825 12.5795 15.7169 -8.88783 1.70825e-10
552 1 7.8594 14.1525 17.2793 -8.9034 1.51094e-07
553 1 9.4325 12.5797 15.7178 -8.8848 1.25301e-07
554 1 11.0045 14.1514 17.2812 -8.90545 1.01833e-06
555 1 12.5777 12.5794 15.7197 -8.88682 7.91073e-07
556 1 14.1486 14.1507 17.2831 -8.90264 1.12599e-06
557 1 15.7218 12.5789 15.7198 -8.88803 3.81762e-08
558 1 17.2933 14.1507 17.2808 -8.90273 5.6009e-09
559 1 18.8667 12.579 15.7176 -8.88823 3.06392e-09
560 1 20.4389 14.1513 17.2782 -8.90304 1.02901e-08
561 1 22.0127 15.7239 15.7156 -8.88814 6.24957e-09
562 1 1.57134 17.2965 17.2768 -8.903 7.04879e-09
563 1 3.14409 15.7242 15.7155 -8.88808 1.06824e-08
564 1 4.71655 17.2967 17.2772 -8.90323 9.45681e-09
565 1 6.289 15.7243 15.7163 -8.88779 6.26609e-09
566 1 7.86133 17.2968 17.2782 -8.90324 1.74048e-08
567 1 9.43377 15.7241 15.7176 -8.88792 8.55699e-09
568 1 11.0061 17.296 17.2796 -8.90292 1.26664e-08
569 1 12.5783 15.7234 15.7188 -8.888 3.47215e-08
570 1 14.1503 17.2952 17.28 -8.90275 4.05509e-09
571 1 15.7226 15.7232 15.7184 -8.88796 3.41241e-09
572 1 17.2947 17.2952 17.2789 -8.90328 1.15507e-08
573 1 18.8674 15.7234 15.7168 -8.88819 5.66364e-09
574 1 20.4399 17.296 17.2774 -8.90305 7.88906e-09
575 1 22.0132 18.8688 15.7151 -8.88817 4.42782e-09
576 1 1.5718 20.4414 17.2764 -8.90299 3.46939e-09
577 1 3.1445 18.869 15.715 -8.88813 5.02404e-09
578 1 4.71697 20.4415 17.2765 -8.90304 4.847e-09
579 1 6.28963 18.869 15.7154 -8.8881 7.40107e-09
580 1 7.8621 20.4414 17.277 -8.90315 9.3593e-09
581 1 9.43457 18.8687 15.7162 -8.88821 7.18989e-09
582 1 11.007 20.4411 17.2777 -8.90306 1.41073e-08
583 1 12.5791 18.8684 15.7167 -8.88818 6.91477e-09
584 1 14.1514 20.4409 17.2779 -8.90301 1.54239e-08