ITEM: TIMESTEP
489
ITEM: NUMBER OF ATOMS
736
ITEM: BOX BOUNDS pp pp pp
0.0000000000000000e+00 2.2013900999999997e+01
0.0000000000000000e+00 2.2013900999999997e+01
0.0000000000000000e+00 5.3462330999999999e+01
ITEM: ATOMS id type x y z c_pot c_ke
1 1 -0.00105641 1.12429e-15 0.0976351 -7.40188 2.07169e-10
2 1 1.57134 1.5724 1.62442 -8.68379 1.84541e-10
3 1 3.14373 1.07137e-15 0.0976086 -7.40187 2.07221e-10
4 1 4.71615 1.57239 1.62435 -8.68379 1.8461e-10
5 1 6.28856 1.58771e-15 0.0975492 -7.40185 2.07335e-10
6 1 7.86101 1.57239 1.62427 -8.68378 1.84693e-10
7 1 9.43344 1.90032e-15 0.0975016 -7.40183 2.07424e-10
8 1 11.0059 1.57239 1.62423 -8.68378 1.8473e-10
9 1 12.5783 1.96225e-15 0.0975016 -7.40183 2.07422e-10
10 1 14.1508 1.57239 1.62427 -8.68378 1.84692e-10
11 1 15.7232 1.98117e-15 0.0975492 -7.40185 2.07331e-10
12 1 17.2956 1.57239 1.62435 -8.68379 1.84608e-10
13 1 18.8681 1.80187e-15 0.0976086 -7.40187 2.07218e-10
14 1 20.4404 1.5724 1.62442 -8.68379 1.8454e-10
15 1 -0.00105641 3.14479 0.0976086 -7.40187 2.07196e-10
16 1 1.57134 4.71721 1.62435 -8.68379 1.8459e-10
17 1 3.14373 3.14479 0.0975793 -7.40186 2.07246e-10
18 1 4.71615 4.7172 1.62427 -8.68378 1.84653e-10
19 1 6.28856 3.14478 0.0975136 -7.40184 2.07354e-10
20 1 7.861 4.71719 1.62417 -8.68377 1.84728e-10
21 1 9.43344 3.14477 0.0974609 -7.40182 2.07437e-10
22 1 11.0059 4.71719 1.62412 -8.68377 1.84761e-10
23 1 12.5783 3.14477 0.0974609 -7.40182 2.07435e-10
24 1 14.1508 4.71719 1.62417 -8.68377 1.84727e-10
25 1 15.7232 3.14478 0.0975136 -7.40184 2.07349e-10
26 1 17.2956 4.7172 1.62427 -8.68378 1.84651e-10
27 1 18.8681 3.14479 0.0975793 -7.40186 2.07243e-10
28 1 20.4404 4.71721 1.62435 -8.68379 1.84589e-10
29 1 -0.00105641 6.28962 0.0975492 -7.40185 2.07259e-10
30 1 1.57133 7.86206 1.62427 -8.68378 1.84653e-10
31 1 3.14372 6.28962 0.0975136 -7.40184 2.07303e-10
32 1 4.71614 7.86206 1.62417 -8.68377 1.84708e-10
33 1 6.28855 6.28961 0.0974333 -7.40181 2.07396e-10
34 1 7.86099 7.86205 1.62404 -8.68377 1.84774e-10
35 1 9.43344 6.2896 0.0973686 -7.40178 2.07468e-10
36 1 11.0059 7.86205 1.62398 -8.68376 1.84801e-10
37 1 12.5784 6.2896 0.0973686 -7.40178 2.07466e-10
38 1 14.1508 7.86205 1.62404 -8.68377 1.84772e-10
39 1 15.7232 6.28961 0.0974333 -7.40181 2.07392e-10
40 1 17.2956 7.86206 1.62417 -8.68377 1.84706e-10
41 1 18.8681 6.28962 0.0975136 -7.40184 2.07299e-10
42 1 20.4405 7.86206 1.62427 -8.68378 1.84652e-10
43 1 -0.00105641 9.4345 0.0975016 -7.40183 2.07309e-10
44 1 1.57133 11.007 1.62423 -8.68378 1.84682e-10
45 1 3.14372 9.4345 0.0974609 -7.40182 2.07349e-10
46 1 4.71613 11.007 1.62412 -8.68377 1.84734e-10
47 1 6.28854 9.43449 0.0973686 -7.40178 2.07431e-10
48 1 7.86099 11.007 1.62398 -8.68376 1.84795e-10
49 1 9.43343 9.43449 0.0972937 -7.40175 2.07493e-10
50 1 11.0059 11.007 1.62392 -8.68376 1.8482e-10
51 1 12.5784 9.43449 0.0972937 -7.40175 2.07491e-10
52 1 14.1508 11.007 1.62398 -8.68376 1.84793e-10
53 1 15.7232 9.43449 0.0973686 -7.40178 2.07427e-10
54 1 17.2957 11.007 1.62412 -8.68377 1.84732e-10
55 1 18.8681 9.4345 0.0974609 -7.40182 2.07345e-10
56 1 20.4405 11.007 1.62423 -8.68378 1.84681e-10
57 1 -0.00105641 12.5794 0.0975016 -7.40183 2.07309e-10
58 1 1.57133 14.1518 1.62427 -8.68378 1.84653e-10
59 1 3.14372 12.5794 0.0974609 -7.40182 2.07349e-10
60 1 4.71614 14.1518 1.62417 -8.68377 1.84708e-10
61 1 6.28854 12.5794 0.0973686 -7.40178 2.07431e-10
62 1 7.86099 14.1519 1.62404 -8.68377 1.84774e-10
63 1 9.43343 12.5794 0.0972937 -7.40175 2.07493e-10
64 1 11.0059 14.1519 1.62398 -8.68376 1.84801e-10
65 1 12.5784 12.5794 0.0972937 -7.40175 2.07491e-10
66 1 14.1508 14.1519 1.62404 -8.68377 1.84772e-10
67 1 15.7232 12.5794 0.0973686 -7.40178 2.07427e-10
68 1 17.2956 14.1518 1.62417 -8.68377 1.84706e-10
69 1 18.8681 12.5794 0.0974609 -7.40182 2.07345e-10
70 1 20.4405 14.1518 1.62427 -8.68378 1.84652e-10
71 1 -0.00105641 15.7243 0.0975492 -7.40185 2.07259e-10
72 1 1.57134 17.2967 1.62435 -8.68379 1.8459e-10
73 1 3.14372 15.7243 0.0975136 -7.40184 2.07303e-10
74 1 4.71615 17.2967 1.62427 -8.68378 1.84653e-10
75 1 6.28855 15.7243 0.0974333 -7.40181 2.07396e-10
76 1 7.861 17.2967 1.62417 -8.68377 1.84728e-10
77 1 9.43344 15.7243 0.0973686 -7.40178 2.07468e-10
78 1 11.0059 17.2967 1.62412 -8.68377 1.84761e-10
79 1 12.5784 15.7243 0.0973686 -7.40178 2.07466e-10
80 1 14.1508 17.2967 1.62417 -8.68377 1.84727e-10
81 1 15.7232 15.7243 0.0974333 -7.40181 2.07392e-10
82 1 17.2956 17.2967 1.62427 -8.68378 1.84651e-10
83 1 18.8681 15.7243 0.0975136 -7.40184 2.07299e-10
84 1 20.4404 17.2967 1.62435 -8.68379 1.84589e-10
85 1 -0.00105641 18.8691 0.0976086 -7.40187 2.07196e-10
86 1 1.57134 20.4415 1.62442 -8.68379 1.84541e-10
87 1 3.14373 18.8691 0.0975793 -7.40186 2.07246e-10
88 1 4.71615 20.4415 1.62435 -8.68379 1.8461e-10
89 1 6.28856 18.8691 0.0975136 -7.40184 2.07354e-10
90 1 7.86101 20.4415 1.62427 -8.68378 1.84693e-10
91 1 9.43344 18.8691 0.0974609 -7.40182 2.07437e-10
92 1 11.0059 20.4415 1.62423 -8.68378 1.8473e-10
93 1 12.5783 18.8691 0.0974609 -7.40182 2.07435e-10
94 1 14.1508 20.4415 1.62427 -8.68378 1.84692e-10
95 1 15.7232 18.8691 0.0975136 -7.40184 2.07349e-10
96 1 17.2956 20.4415 1.62435 -8.68379 1.84608e-10
97 1 18.8681 18.8691 0.0975793 -7.40186 2.07243e-10
98 1 20.4404 20.4415 1.62442 -8.68379 1.8454e-10
99 1 -0.00105799 1.80421e-15 3.15455 -8.93805 1.55379e-10
100 1 1.57134 1.5724 4.74383 -8.90301 1.16e-10
101 1 3.14375 1.44488e-15 3.15451 -8.93805 1.5541e-10
102 1 4.71615 1.57239 4.74374 -8.90301 1.1605e-10
103 1 6.28858 1.70164e-15 3.15442 -8.93806 1.55478e-10
104 1 7.861 1.57239 4.74364 -8.90301 1.16113e-10
105 1 9.43345 1.30901e-15 3.15435 -8.93807 1.55532e-10
106 1 11.0059 1.57238 4.74359 -8.90301 1.16141e-10
107 1 12.5783 1.7786e-15 3.15435 -8.93807 1.55532e-10
108 1 14.1508 1.57239 4.74364 -8.90301 1.16113e-10
109 1 15.7232 1.16254e-15 3.15442 -8.93806 1.55477e-10
110 1 17.2956 1.57239 4.74374 -8.90301 1.1605e-10
111 1 18.868 1.34766e-15 3.15451 -8.93805 1.55409e-10
112 1 20.4404 1.5724 4.74383 -8.90301 1.16e-10
113 1 -0.00105799 3.14481 3.15451 -8.93805 1.55407e-10
114 1 1.57133 4.71721 4.74374 -8.90301 1.16052e-10
115 1 3.14374 3.1448 3.15446 -8.93806 1.55437e-10
116 1 4.71614 4.7172 4.74364 -8.90301 1.16099e-10
117 1 6.28858 3.14479 3.15436 -8.93807 1.55502e-10
118 1 7.86099 4.71718 4.7435 -8.90301 1.16158e-10
119 1 9.43345 3.14479 3.15428 -8.93808 1.55554e-10
120 1 11.0059 4.71718 4.74344 -8.90301 1.16184e-10
121 1 12.5783 3.14479 3.15428 -8.93808 1.55554e-10
122 1 14.1508 4.71718 4.7435 -8.90301 1.16158e-10
123 1 15.7232 3.14479 3.15436 -8.93807 1.55502e-10
124 1 17.2956 4.7172 4.74364 -8.90301 1.16099e-10
125 1 18.868 3.1448 3.15446 -8.93806 1.55436e-10
126 1 20.4404 4.71721 4.74374 -8.90301 1.16052e-10
127 1 -0.00105799 6.28964 3.15442 -8.93806 1.55473e-10
128 1 1.57133 7.86206 4.74364 -8.90301 1.16122e-10
129 1 3.14374 6.28963 3.15436 -8.93807 1.555e-10
130 1 4.71612 7.86205 4.7435 -8.90301 1.16167e-10
131 1 6.28857 6.28962 3.15424 -8.93808 1.5556e-10
132 1 7.86098 7.86204 4.74333 -8.90301 1.16222e-10
133 1 9.43344 6.28962 3.15413 -8.9381 1.55607e-10
134 1 11.0059 7.86203 4.74325 -8.90302 1.16246e-10
135 1 12.5783 6.28962 3.15413 -8.9381 1.55606e-10
136 1 14.1508 7.86204 4.74333 -8.90301 1.16222e-10
137 1 15.7232 6.28962 3.15424 -8.93808 1.5556e-10
138 1 17.2957 7.86205 4.7435 -8.90301 1.16167e-10
139 1 18.868 6.28963 3.15436 -8.93807 1.555e-10
140 1 20.4405 7.86206 4.74364 -8.90301 1.16122e-10
141 1 -0.00105799 9.43451 3.15435 -8.93807 1.55528e-10
142 1 1.57132 11.007 4.74359 -8.90301 1.16155e-10
143 1 3.14373 9.43451 3.15428 -8.93808 1.55554e-10
144 1 4.71612 11.007 4.74344 -8.90301 1.162e-10
145 1 6.28856 9.4345 3.15413 -8.9381 1.5561e-10
146 1 7.86097 11.007 4.74325 -8.90302 1.16254e-10
147 1 9.43344 9.4345 3.15401 -8.93812 1.55652e-10
148 1 11.0059 11.007 4.74316 -8.90302 1.16276e-10
149 1 12.5783 9.4345 3.15401 -8.93812 1.55652e-10
150 1 14.1508 11.007 4.74325 -8.90302 1.16254e-10
151 1 15.7232 9.4345 3.15413 -8.9381 1.5561e-10
152 1 17.2957 11.007 4.74344 -8.90301 1.162e-10
153 1 18.8681 9.43451 3.15428 -8.93808 1.55554e-10
154 1 20.4405 11.007 4.74359 -8.90301 1.16155e-10
155 1 -0.00105799 12.5794 3.15435 -8.93807 1.55528e-10
156 1 1.57133 14.1518 4.74364 -8.90301 1.16122e-10
157 1 3.14373 12.5794 3.15428 -8.93808 1.55554e-10
158 1 4.71612 14.1518 4.7435 -8.90301 1.16167e-10
159 1 6.28856 12.5794 3.15413 -8.9381 1.5561e-10
160 1 7.86098 14.1519 4.74333 -8.90301 1.16222e-10
161 1 9.43344 12.5794 3.15401 -8.93812 1.55652e-10
162 1 11.0059 14.1519 4.74325 -8.90302 1.16246e-10
163 1 12.5783 12.5794 3.15401 -8.93812 1.55652e-10
164 1 14.1508 14.1519 4.74333 -8.90301 1.16222e-10
165 1 15.7232 12.5794 3.15413 -8.9381 1.5561e-10
166 1 17.2957 14.1518 4.7435 -8.90301 1.16167e-10
167 1 18.8681 12.5794 3.15428 -8.93808 1.55554e-10
168 1 20.4405 14.1518 4.74364 -8.90301 1.16122e-10
169 1 -0.00105799 15.7243 3.15442 -8.93806 1.55473e-10
170 1 1.57133 17.2967 4.74374 -8.90301 1.16052e-10
171 1 3.14374 15.7243 3.15436 -8.93807 1.555e-10
172 1 4.71614 17.2967 4.74364 -8.90301 1.16099e-10
173 1 6.28857 15.7243 3.15424 -8.93808 1.5556e-10
174 1 7.86099 17.2967 4.7435 -8.90301 1.16158e-10
175 1 9.43344 15.7243 3.15413 -8.9381 1.55607e-10
176 1 11.0059 17.2967 4.74344 -8.90301 1.16184e-10
177 1 12.5783 15.7243 3.15413 -8.9381 1.55606e-10
178 1 14.1508 17.2967 4.7435 -8.90301 1.16158e-10
179 1 15.7232 15.7243 3.15424 -8.93808 1.5556e-10
180 1 17.2956 17.2967 4.74364 -8.90301 1.16099e-10
181 1 18.868 15.7243 3.15436 -8.93807 1.555e-10
182 1 20.4404 17.2967 4.74374 -8.90301 1.16052e-10
183 1 -0.00105799 18.8691 3.15451 -8.93805 1.55407e-10
184 1 1.57134 20.4415 4.74383 -8.90301 1.16e-10
185 1 3.14374 18.8691 3.15446 -8.93806 1.55437e-10
186 1 4.71615 20.4415 4.74374 -8.90301 1.1605e-10
187 1 6.28858 18.8691 3.15436 -8.93807 1.55502e-10
188 1 7.861 20.4415 4.74364 -8.90301 1.16113e-10
189 1 9.43345 18.8691 3.15428 -8.93808 1.55554e-10
190 1 11.0059 20.4415 4.74359 -8.90301 1.16141e-10
191 1 12.5783 18.8691 3.15428 -8.93808 1.55554e-10
192 1 14.1508 20.4415 4.74364 -8.90301 1.16113e-10
193 1 15.7232 18.8691 3.15436 -8.93807 1.55502e-10
194 1 17.2956 20.4415 4.74374 -8.90301 1.1605e-10
195 1 18.868 18.8691 3.15446 -8.93806 1.55436e-10
196 1 20.4404 20.4415 4.74383 -8.90301 1.16e-10
197 1 -0.00106132 2.19557e-15 6.3056 -8.88811 7.07962e-11
198 1 1.57132 1.57238 7.87482 -8.90467 3.46467e-11
199 1 3.14373 1.86801e-15 6.30555 -8.88811 7.08248e-11
200 1 4.71611 1.57237 7.8747 -8.90467 3.46887e-11
201 1 6.28855 1.21963e-15 6.30544 -8.88812 7.08902e-11
202 1 7.86097 1.57235 7.87456 -8.90467 3.47443e-11
203 1 9.43344 1.40768e-15 6.30534 -8.88812 7.09435e-11
204 1 11.0059 1.57235 7.87449 -8.90467 3.47699e-11
205 1 12.5783 1.82005e-15 6.30534 -8.88812 7.09436e-11
206 1 14.1508 1.57235 7.87456 -8.90467 3.47443e-11
207 1 15.7232 1.51345e-15 6.30544 -8.88812 7.08903e-11
208 1 17.2957 1.57237 7.8747 -8.90467 3.46887e-11
209 1 18.8681 1.68306e-15 6.30555 -8.88811 7.08248e-11
210 1 20.4405 1.57238 7.87482 -8.90467 3.46468e-11
211 1 -0.00106132 3.14479 6.30555 -8.88811 7.08204e-11
212 1 1.57131 4.71717 7.8747 -8.90467 3.46779e-11
213 1 3.14372 3.14478 6.30549 -8.88811 7.08479e-11
214 1 4.71608 4.71714 7.87454 -8.90466 3.47184e-11
215 1 6.28854 3.14476 6.30535 -8.88812 7.09122e-11
216 1 7.86094 4.7171 7.87433 -8.90467 3.47752e-11
217 1 9.43343 3.14474 6.30524 -8.88812 7.09648e-11
218 1 11.0059 4.71708 7.87423 -8.90467 3.48012e-11
219 1 12.5783 3.14474 6.30524 -8.88812 7.09648e-11
220 1 14.1508 4.7171 7.87433 -8.90467 3.47752e-11
221 1 15.7232 3.14476 6.30535 -8.88812 7.09123e-11
222 1 17.2957 4.71714 7.87454 -8.90466 3.47185e-11
223 1 18.8681 3.14478 6.30549 -8.88811 7.08479e-11
224 1 20.4405 4.71717 7.8747 -8.90467 3.4678e-11
225 1 -0.00106131 6.28962 6.30544 -8.88812 7.08828e-11
226 1 1.57129 7.86203 7.87456 -8.90467 3.47297e-11
227 1 3.1437 6.2896 6.30535 -8.88812 7.09094e-11
228 1 4.71603 7.862 7.87433 -8.90467 3.47729e-11
229 1 6.28851 6.28957 6.30515 -8.88812 7.0972e-11
230 1 7.8609 7.86196 7.87401 -8.90469 3.4832e-11
231 1 9.43342 6.28955 6.30499 -8.88813 7.10224e-11
232 1 11.0059 7.86194 7.87386 -8.90471 3.48576e-11
233 1 12.5784 6.28955 6.30499 -8.88813 7.10224e-11
234 1 14.1509 7.86196 7.87401 -8.90469 3.4832e-11
235 1 15.7233 6.28957 6.30515 -8.88812 7.09721e-11
236 1 17.2957 7.862 7.87433 -8.90467 3.47729e-11
237 1 18.8681 6.2896 6.30535 -8.88812 7.09095e-11
238 1 20.4405 7.86203 7.87456 -8.90467 3.47297e-11
239 1 -0.00106131 9.4345 6.30534 -8.88812 7.09399e-11
240 1 1.57128 11.007 7.87449 -8.90467 3.47569e-11
241 1 3.14368 9.43449 6.30524 -8.88812 7.09675e-11
242 1 4.71602 11.007 7.87423 -8.90467 3.48029e-11
243 1 6.28849 9.43448 6.30499 -8.88813 7.10311e-11
244 1 7.86088 11.007 7.87386 -8.90471 3.48648e-11
245 1 9.4334 9.43447 6.30478 -8.88815 7.10798e-11
246 1 11.0059 11.007 7.87367 -8.90475 3.48903e-11
247 1 12.5784 9.43447 6.30478 -8.88815 7.10798e-11
248 1 14.1509 11.007 7.87386 -8.90471 3.48648e-11
249 1 15.7233 9.43448 6.30499 -8.88813 7.10311e-11
250 1 17.2958 11.007 7.87423 -8.90467 3.4803e-11
251 1 18.8681 9.43449 6.30524 -8.88812 7.09675e-11
252 1 20.4405 11.007 7.87449 -8.90467 3.47569e-11
253 1 -0.00106131 12.5794 6.30534 -8.88812 7.09399e-11
254 1 1.57129 14.1519 7.87456 -8.90467 3.47297e-11
255 1 3.14368 12.5794 6.30524 -8.88812 7.09675e-11
256 1 4.71603 14.1519 7.87433 -8.90467 3.47729e-11
257 1 6.28849 12.5794 6.30499 -8.88813 7.10311e-11
258 1 7.8609 14.1519 7.87401 -8.90469 3.4832e-11
259 1 9.4334 12.5794 6.30478 -8.88815 7.10798e-11
260 1 11.0059 14.152 7.87386 -8.90471 3.48576e-11
261 1 12.5784 12.5794 6.30478 -8.88815 7.10798e-11
262 1 14.1509 14.1519 7.87401 -8.90469 3.4832e-11
263 1 15.7233 12.5794 6.30499 -8.88813 7.10311e-11
264 1 17.2957 14.1519 7.87433 -8.90467 3.47729e-11
265 1 18.8681 12.5794 6.30524 -8.88812 7.09675e-11
266 1 20.4405 14.1519 7.87456 -8.90467 3.47298e-11
267 1 -0.00106131 15.7243 6.30544 -8.88812 7.08828e-11
268 1 1.57131 17.2967 7.8747 -8.90467 3.46779e-11
269 1 3.1437 15.7243 6.30535 -8.88812 7.09094e-11
270 1 4.71608 17.2968 7.87454 -8.90466 3.47184e-11
271 1 6.28851 15.7243 6.30515 -8.88812 7.0972e-11
272 1 7.86094 17.2968 7.87433 -8.90467 3.47752e-11
273 1 9.43342 15.7244 6.30499 -8.88813 7.10224e-11
274 1 11.0059 17.2968 7.87423 -8.90467 3.48012e-11
275 1 12.5784 15.7244 6.30499 -8.88813 7.10224e-11
276 1 14.1508 17.2968 7.87433 -8.90467 3.47752e-11
277 1 15.7233 15.7243 6.30515 -8.88812 7.09721e-11
278 1 17.2957 17.2968 7.87454 -8.90466 3.47185e-11
279 1 18.8681 15.7243 6.30535 -8.88812 7.09095e-11
280 1 20.4405 17.2967 7.8747 -8.90467 3.4678e-11
281 1 -0.00106132 18.8691 6.30555 -8.88811 7.08204e-11
282 1 1.57132 20.4415 7.87482 -8.90467 3.46467e-11
283 1 3.14372 18.8691 6.30549 -8.88811 7.08478e-11
284 1 4.71611 20.4415 7.8747 -8.90467 3.46887e-11
285 1 6.28854 18.8691 6.30535 -8.88812 7.09122e-11
286 1 7.86097 20.4415 7.87456 -8.90467 3.47443e-11
287 1 9.43343 18.8692 6.30524 -8.88812 7.09648e-11
288 1 11.0059 20.4416 7.87449 -8.90467 3.47699e-11
289 1 12.5783 18.8692 6.30524 -8.88812 7.09648e-11
290 1 14.1508 20.4415 7.87456 -8.90467 3.47443e-11
291 1 15.7232 18.8691 6.30535 -8.88812 7.09123e-11
292 1 17.2957 20.4415 7.8747 -8.90467 3.46887e-11
293 1 18.8681 18.8691 6.30549 -8.88811 7.08479e-11
294 1 20.4405 20.4415 7.87482 -8.90467 3.46468e-11
295 1 -0.00106575 2.30615e-15 9.44319 -8.89866 9.03966e-12
296 1 1.57131 1.57237 11.0113 -8.9001 7.8038e-16
297 1 3.1437 1.86868e-15 9.44312 -8.89865 9.05188e-12
298 1 4.71608 1.57234 11.0112 -8.90009 1.18912e-15
299 1 6.28852 2.02825e-15 9.44296 -8.89865 9.08381e-12
300 1 7.86094 1.57231 11.011 -8.90009 1.54206e-15
301 1 9.43342 1.91226e-15 9.44283 -8.89865 9.11178e-12
302 1 11.0059 1.57229 11.0109 -8.90009 1.63688e-15
303 1 12.5784 1.67315e-15 9.44283 -8.89865 9.11178e-12
304 1 14.1508 1.57231 11.011 -8.90009 1.54007e-15
305 1 15.7233 2.2423e-15 9.44296 -8.89865 9.08382e-12
306 1 17.2957 1.57234 11.0112 -8.90009 1.18161e-15
307 1 18.8681 3.0622e-15 9.44312 -8.89865 9.05187e-12
308 1 20.4405 1.57237 11.0113 -8.9001 7.75399e-16
309 1 -0.00106575 3.14476 9.44312 -8.89865 9.04414e-12
310 1 1.57128 4.71715 11.0112 -8.90009 8.14181e-16
311 1 3.14368 3.14474 9.44304 -8.89865 9.05566e-12
312 1 4.716 4.71707 11.0109 -8.90006 1.31586e-15
313 1 6.28849 3.14469 9.44283 -8.89864 9.08834e-12
314 1 7.86086 4.71696 11.0106 -8.90007 1.68871e-15
315 1 9.4334 3.14465 9.44265 -8.89865 9.11768e-12
316 1 11.0059 4.71692 11.0104 -8.90008 1.74791e-15
317 1 12.5784 3.14465 9.44265 -8.89865 9.11768e-12
318 1 14.1509 4.71696 11.0106 -8.90007 1.69062e-15
319 1 15.7233 3.14469 9.44283 -8.89864 9.08834e-12
320 1 17.2958 4.71707 11.0109 -8.90006 1.31217e-15
321 1 18.8681 3.14474 9.44304 -8.89865 9.05566e-12
322 1 20.4405 4.71715 11.0112 -8.90009 8.10608e-16
323 1 -0.00106575 6.28958 9.44296 -8.89865 9.06431e-12
324 1 1.57124 7.86201 11.011 -8.90009 1.01822e-15
325 1 3.14363 6.28955 9.44283 -8.89864 9.0761e-12
326 1 4.71589 7.86193 11.0106 -8.90007 1.56691e-15
327 1 6.28841 6.28947 9.44248 -8.89864 9.10984e-12
328 1 7.86074 7.8618 11.0099 -8.90011 2.1018e-15
329 1 9.43336 6.28941 9.44217 -8.89865 9.14227e-12
330 1 11.0059 7.86175 11.0096 -8.90015 2.31288e-15
331 1 12.5784 6.28941 9.44217 -8.89865 9.14228e-12
332 1 14.151 7.8618 11.0099 -8.90011 2.10833e-15
333 1 15.7234 6.28947 9.44248 -8.89864 9.10985e-12
334 1 17.2959 7.86193 11.0106 -8.90007 1.56962e-15
335 1 18.8681 6.28955 9.44283 -8.89864 9.0761e-12
336 1 20.4405 7.86201 11.011 -8.90009 1.01731e-15
337 1 -0.00106575 9.43448 9.44283 -8.89865 9.08876e-12
338 1 1.57122 11.007 11.0109 -8.90009 1.17763e-15
339 1 3.14359 9.43447 9.44265 -8.89865 9.10299e-12
340 1 4.71585 11.007 11.0104 -8.90008 1.75433e-15
341 1 6.28834 9.43443 9.44217 -8.89865 9.14215e-12
342 1 7.86068 11.007 11.0096 -8.90015 2.4821e-15
343 1 9.43332 9.43439 9.44171 -8.89872 9.17788e-12
344 1 11.0059 11.007 11.0091 -8.90037 2.86394e-15
345 1 12.5784 9.43439 9.44171 -8.89872 9.17789e-12
346 1 14.1511 11.007 11.0096 -8.90015 2.48882e-15
347 1 15.7234 9.43443 9.44217 -8.89865 9.14216e-12
348 1 17.2959 11.007 11.0104 -8.90008 1.75929e-15
349 1 18.8682 9.43447 9.44265 -8.89865 9.10299e-12
350 1 20.4405 11.007 11.0109 -8.90009 1.17789e-15
351 1 -0.00106575 12.5794 9.44283 -8.89865 9.08876e-12
352 1 1.57124 14.1519 11.011 -8.90009 1.01822e-15
353 1 3.14359 12.5794 9.44265 -8.89865 9.10299e-12
354 1 4.71589 14.152 11.0106 -8.90007 1.56691e-15
355 1 6.28834 12.5795 9.44217 -8.89865 9.14215e-12
356 1 7.86074 14.1521 11.0099 -8.90011 2.1018e-15
357 1 9.43332 12.5795 9.44171 -8.89872 9.17788e-12
358 1 11.0059 14.1522 11.0096 -8.90015 2.31289e-15
359 1 12.5784 12.5795 9.44171 -8.89872 9.17789e-12
360 1 14.151 14.1521 11.0099 -8.90011 2.10832e-15
361 1 15.7234 12.5795 9.44217 -8.89865 9.14216e-12
362 1 17.2959 14.152 11.0106 -8.90007 1.56962e-15
363 1 18.8682 12.5794 9.44265 -8.89865 9.10299e-12
364 1 20.4405 14.1519 11.011 -8.90009 1.01731e-15
365 1 -0.00106575 15.7243 9.44296 -8.89865 9.06431e-12
366 1 1.57128 17.2968 11.0112 -8.90009 8.14179e-16
367 1 3.14363 15.7243 9.44283 -8.89864 9.0761e-12
368 1 4.716 17.2968 11.0109 -8.90006 1.31585e-15
369 1 6.28841 15.7244 9.44248 -8.89864 9.10984e-12
370 1 7.86086 17.2969 11.0106 -8.90007 1.68871e-15
371 1 9.43336 15.7245 9.44217 -8.89865 9.14227e-12
372 1 11.0059 17.297 11.0104 -8.90008 1.74791e-15
373 1 12.5784 15.7245 9.44217 -8.89865 9.14228e-12
374 1 14.1509 17.2969 11.0106 -8.90007 1.69062e-15
375 1 15.7234 15.7244 9.44248 -8.89864 9.10985e-12
376 1 17.2958 17.2968 11.0109 -8.90006 1.31217e-15
377 1 18.8681 15.7243 9.44283 -8.89864 9.0761e-12
378 1 20.4405 17.2968 11.0112 -8.90009 8.10613e-16
379 1 -0.00106575 18.8691 9.44312 -8.89865 9.04414e-12
380 1 1.57131 20.4415 11.0113 -8.9001 7.80378e-16
381 1 3.14368 18.8692 9.44304 -8.89865 9.05566e-12
382 1 4.71608 20.4416 11.0112 -8.90009 1.18911e-15
383 1 6.28849 18.8692 9.44283 -8.89864 9.08834e-12
384 1 7.86094 20.4416 11.011 -8.90009 1.54206e-15
385 1 9.4334 18.8692 9.44265 -8.89865 9.11768e-12
386 1 11.0059 20.4416 11.0109 -8.90009 1.63688e-15
387 1 12.5784 18.8692 9.44265 -8.89865 9.11768e-12
388 1 14.1508 20.4416 11.011 -8.90009 1.54006e-15
389 1 15.7233 18.8692 9.44283 -8.89864 9.08834e-12
390 1 17.2957 20.4416 11.0112 -8.90009 1.18162e-15
391 1 18.8681 18.8692 9.44304 -8.89865 9.05566e-12
392 1 20.4405 20.4415 11.0113 -8.9001 7.75394e-16
393 1 -0.00107064 2.42897e-15 12.5796 -8.89868 8.71638e-12
394 1 3.14371 2.10857e-15 12.5795 -8.89867 8.70914e-12
395 1 6.28852 1.64127e-15 12.5793 -8.89867 8.67719e-12
396 1 9.43341 1.24456e-15 12.5791 -8.89868 8.64317e-12
397 1 12.5783 1.3452e-15 12.5791 -8.89868 8.64319e-12
398 1 15.7232 2.16877e-15 12.5793 -8.89867 8.67725e-12
399 1 18.8681 3.31078e-15 12.5795 -8.89867 8.70918e-12
400 1 22.0128 3.14478 12.5795 -8.89867 8.72773e-12
401 1 3.14367 3.14474 12.5794 -8.89866 8.72196e-12
402 1 6.28845 3.14464 12.5791 -8.89864 8.68929e-12
403 1 9.43338 3.14455 12.5788 -8.89865 8.64948e-12
404 1 12.5784 3.14455 12.5788 -8.89865 8.6495e-12
405 1 15.7233 3.14464 12.5791 -8.89864 8.68935e-12
406 1 18.8681 3.14474 12.5794 -8.89866 8.722e-12
407 1 22.0128 6.28959 12.5793 -8.89867 8.731e-12
408 1 3.14357 6.28952 12.5791 -8.89864 8.72722e-12
409 1 6.28826 6.28933 12.5785 -8.89854 8.69847e-12
410 1 9.43327 6.28917 12.5779 -8.8986 8.64126e-12
411 1 12.5785 6.28917 12.5779 -8.8986 8.6413e-12
412 1 15.7235 6.28933 12.5785 -8.89854 8.69855e-12
413 1 18.8682 6.28952 12.5791 -8.89864 8.72727e-12
414 1 22.0128 9.43448 12.5791 -8.89868 8.71415e-12
415 1 3.14348 9.43445 12.5788 -8.89865 8.70415e-12
416 1 6.2881 9.43434 12.5779 -8.8986 8.6583e-12
417 1 9.43314 9.43421 12.5768 -8.89878 8.58619e-12
418 1 12.5786 9.43421 12.5768 -8.89878 8.58623e-12
419 1 15.7237 9.43434 12.5779 -8.8986 8.65839e-12
420 1 18.8683 9.43445 12.5788 -8.89865 8.70421e-12
421 1 22.0128 12.5794 12.5791 -8.89868 8.71415e-12
422 1 3.14348 12.5795 12.5788 -8.89865 8.70415e-12
423 1 6.2881 12.5796 12.5779 -8.8986 8.6583e-12
424 1 9.43314 12.5797 12.5768 -8.89878 8.58619e-12
425 1 12.5786 12.5797 12.5768 -8.89878 8.58623e-12
426 1 15.7237 12.5796 12.5779 -8.8986 8.65839e-12
427 1 18.8683 12.5795 12.5788 -8.89865 8.70421e-12
428 1 22.0128 15.7243 12.5793 -8.89867 8.731e-12
429 1 3.14357 15.7244 12.5791 -8.89864 8.72722e-12
430 1 6.28826 15.7246 12.5785 -8.89854 8.69847e-12
431 1 9.43327 15.7247 12.5779 -8.8986 8.64126e-12
432 1 12.5785 15.7247 12.5779 -8.8986 8.6413e-12
433 1 15.7235 15.7246 12.5785 -8.89854 8.69855e-12
434 1 18.8682 15.7244 12.5791 -8.89864 8.72727e-12
435 1 22.0128 18.8691 12.5795 -8.89867 8.72772e-12
436 1 3.14367 18.8692 12.5794 -8.89866 8.72196e-12
437 1 6.28845 18.8693 12.5791 -8.89864 8.68929e-12
438 1 9.43338 18.8693 12.5788 -8.89865 8.64948e-12
439 1 12.5784 18.8693 12.5788 -8.89865 8.6495e-12
440 1 15.7233 18.8693 12.5791 -8.89864 8.68935e-12
441 1 18.8681 18.8692 12.5794 -8.89866 8.722e-12
442 1 1.57134 1.57241 14.1479 -8.9047 3.39969e-11
443 1 4.71614 1.57237 14.1478 -8.90468 3.39751e-11
444 1 7.86097 1.5723 14.1475 -8.9047 3.38972e-11
445 1 11.0059 1.57227 14.1474 -8.9047 3.38523e-11
446 1 14.1508 1.5723 14.1475 -8.9047 3.38974e-11
447 1 17.2956 1.57237 14.1478 -8.90468 3.39752e-11
448 1 20.4404 1.57241 14.1479 -8.9047 3.3997e-11
449 1 1.5713 4.71722 14.1478 -8.90468 3.40644e-11
450 1 4.71601 4.71708 14.1475 -8.90465 3.40705e-11
451 1 7.8608 4.71685 14.1469 -8.90465 3.39679e-11
452 1 11.0059 4.71676 14.1466 -8.90466 3.38978e-11
453 1 14.151 4.71685 14.1469 -8.90465 3.39681e-11
454 1 17.2957 4.71708 14.1475 -8.90465 3.40707e-11
455 1 20.4405 4.71722 14.1478 -8.90468 3.40645e-11
456 1 1.57123 7.86204 14.1475 -8.9047 3.40788e-11
457 1 4.71578 7.86188 14.1469 -8.90465 3.40752e-11
458 1 7.86043 7.8615 14.1455 -8.9044 3.39822e-11
459 1 11.0059 7.86138 14.1447 -8.90466 3.38475e-11
460 1 14.1513 7.8615 14.1455 -8.9044 3.39824e-11
461 1 17.296 7.86188 14.1469 -8.90465 3.40754e-11
462 1 20.4405 7.86204 14.1475 -8.9047 3.40789e-11
463 1 1.5712 11.007 14.1474 -8.9047 3.40594e-11
464 1 4.71569 11.007 14.1466 -8.90466 3.40267e-11
465 1 7.8603 11.007 14.1447 -8.90466 3.38801e-11
466 1 11.0059 11.007 14.1432 -8.90674 3.3717e-11
467 1 14.1515 11.007 14.1447 -8.90466 3.38803e-11
468 1 17.2961 11.007 14.1466 -8.90466 3.40269e-11
469 1 20.4406 11.007 14.1474 -8.9047 3.40595e-11
470 1 1.57123 14.1519 14.1475 -8.9047 3.40788e-11
471 1 4.71578 14.152 14.1469 -8.90465 3.40752e-11
472 1 7.86043 14.1524 14.1455 -8.9044 3.39822e-11
473 1 11.0059 14.1525 14.1447 -8.90466 3.38475e-11
474 1 14.1513 14.1524 14.1455 -8.9044 3.39824e-11
475 1 17.296 14.152 14.1469 -8.90465 3.40754e-11
476 1 20.4405 14.1519 14.1475 -8.9047 3.40789e-11
477 1 1.5713 17.2967 14.1478 -8.90468 3.40644e-11
478 1 4.71601 17.2968 14.1475 -8.90465 3.40705e-11
479 1 7.8608 17.297 14.1469 -8.90465 3.39679e-11
480 1 11.0059 17.2971 14.1466 -8.90466 3.38978e-11
481 1 14.151 17.297 14.1469 -8.90465 3.39681e-11
482 1 17.2957 17.2968 14.1475 -8.90465 3.40707e-11
483 1 20.4405 17.2967 14.1478 -8.90468 3.40645e-11
484 1 1.57134 20.4415 14.1479 -8.9047 3.39969e-11
485 1 4.71614 20.4415 14.1478 -8.90468 3.39751e-11
486 1 7.86097 20.4416 14.1475 -8.9047 3.38972e-11
487 1 11.0059 20.4416 14.1474 -8.9047 3.38523e-11
488 1 14.1508 20.4416 14.1475 -8.9047 3.38974e-11
489 1 17.2956 20.4415 14.1478 -8.90468 3.39752e-11
490 1 20.4404 20.4415 14.1479 -8.9047 3.3997e-11
491 1 22.0128 1.83238e-15 15.7172 -8.88818 6.98827e-11
492 1 1.57147 1.57255 17.279 -8.90297 1.14884e-10
493 1 3.14385 8.51473e-16 15.7172 -8.88819 6.98564e-11
494 1 4.71647 1.5726 17.279 -8.90302 1.14819e-10
495 1 6.28866 -1.51496e-15 15.7171 -8.88817 6.97912e-11
496 1 7.86119 1.57254 17.2788 -8.9031 1.14705e-10
497 1 9.43347 -1.58654e-15 15.7169 -8.8882 6.96952e-11
498 1 11.0059 1.5725 17.2787 -8.90309 1.14615e-10
499 1 12.5783 -1.70084e-15 15.7169 -8.8882 6.96953e-11
500 1 14.1506 1.57254 17.2788 -8.9031 1.14705e-10
501 1 15.7231 1.0208e-15 15.7171 -8.88817 6.97913e-11
502 1 17.2953 1.5726 17.279 -8.90302 1.14819e-10
503 1 18.8679 2.22701e-15 15.7172 -8.88819 6.98565e-11
504 1 20.4403 1.57255 17.279 -8.90297 1.14884e-10
505 1 22.0128 3.14492 15.7172 -8.88819 6.9941e-11
506 1 1.57152 4.71755 17.279 -8.90302 1.15058e-10
507 1 3.14383 3.14491 15.7171 -8.88818 6.99157e-11
508 1 4.71657 4.71764 17.2789 -8.90324 1.15021e-10
509 1 6.2886 3.14478 15.7169 -8.88809 6.9887e-11
510 1 7.86103 4.71722 17.2782 -8.90292 1.15082e-10
511 1 9.43342 3.14464 15.7165 -8.88817 6.97659e-11
512 1 11.0059 4.71706 17.2777 -8.90284 1.14891e-10
513 1 12.5783 3.14464 15.7165 -8.88817 6.9766e-11
514 1 14.1507 4.71722 17.2782 -8.90292 1.15082e-10
515 1 15.7232 3.14478 15.7169 -8.88809 6.98872e-11
516 1 17.2952 4.71764 17.2789 -8.90324 1.15021e-10
517 1 18.8679 3.14491 15.7171 -8.88818 6.99158e-11
518 1 20.4402 4.71755 17.279 -8.90302 1.15058e-10
519 1 22.0128 6.28974 15.7171 -8.88817 7.0065e-11
520 1 1.57146 7.86227 17.2788 -8.9031 1.15249e-10
521 1 3.14371 6.28967 15.7169 -8.88809 7.00883e-11
522 1 4.71614 7.86211 17.2782 -8.90292 1.15415e-10
523 1 6.28828 6.28936 15.7161 -8.8877 7.0209e-11
524 1 7.85997 7.86105 17.2759 -8.90267 1.15696e-10
525 1 9.4332 6.28897 15.7149 -8.88787 6.99379e-11
526 1 11.0059 7.86102 17.2737 -8.90497 1.15116e-10
527 1 12.5786 6.28897 15.7149 -8.88787 6.9938e-11
528 1 14.1518 7.86105 17.2759 -8.90267 1.15696e-10
529 1 15.7235 6.28936 15.7161 -8.8877 7.02092e-11
530 1 17.2956 7.86211 17.2782 -8.90292 1.15415e-10
531 1 18.868 6.28967 15.7169 -8.88809 7.00884e-11
532 1 20.4403 7.86227 17.2788 -8.9031 1.1525e-10
533 1 22.0128 9.43454 15.7169 -8.8882 7.00879e-11
534 1 1.57142 11.007 17.2787 -8.90309 1.15277e-10
535 1 3.14356 9.4345 15.7165 -8.88817 7.00998e-11
536 1 4.71598 11.007 17.2777 -8.90284 1.15401e-10
537 1 6.28789 9.43427 15.7149 -8.88787 7.01339e-11
538 1 7.85994 11.007 17.2737 -8.90497 1.1548e-10
539 1 9.43261 9.43369 15.7118 -8.88714 6.97661e-11
540 1 11.0059 11.007 17.2662 -8.91709 1.15358e-10
541 1 12.5791 9.43369 15.7118 -8.88714 6.97662e-11
542 1 14.1518 11.007 17.2737 -8.90497 1.1548e-10
543 1 15.7239 9.43427 15.7149 -8.88787 7.01341e-11
544 1 17.2958 11.007 17.2777 -8.90284 1.15401e-10
545 1 18.8682 9.4345 15.7165 -8.88817 7.00999e-11
546 1 20.4403 11.007 17.2787 -8.90309 1.15277e-10
547 1 22.0128 12.5794 15.7169 -8.8882 7.00879e-11
548 1 1.57146 14.1516 17.2788 -8.9031 1.15249e-10
549 1 3.14356 12.5794 15.7165 -8.88817 7.00998e-11
550 1 4.71614 14.1518 17.2782 -8.90292 1.15415e-10
551 1 6.28789 12.5796 15.7149 -8.88787 7.01339e-11
552 1 7.85997 14.1529 17.2759 -8.90267 1.15696e-10
553 1 9.43261 12.5802 15.7118 -8.88714 6.97661e-11
554 1 11.0059 14.1529 17.2737 -8.90497 1.15116e-10
555 1 12.5791 12.5802 15.7118 -8.88714 6.97662e-11
556 1 14.1518 14.1529 17.2759 -8.90267 1.15696e-10
557 1 15.7239 12.5796 15.7149 -8.88787 7.01341e-11
558 1 17.2956 14.1518 17.2782 -8.90292 1.15415e-10
559 1 18.8682 12.5794 15.7165 -8.88817 7.00999e-11
560 1 20.4403 14.1516 17.2788 -8.9031 1.1525e-10
561 1 22.0128 15.7242 15.7171 -8.88817 7.0065e-11
562 1 1.57152 17.2964 17.279 -8.90302 1.15058e-10
563 1 3.14371 15.7242 15.7169 -8.88809 7.00883e-11
564 1 4.71657 17.2963 17.2789 -8.90324 1.15021e-10
565 1 6.28828 15.7245 15.7161 -8.8877 7.0209e-11
566 1 7.86103 17.2967 17.2782 -8.90292 1.15082e-10
567 1 9.4332 15.7249 15.7149 -8.88787 6.99379e-11
568 1 11.0059 17.2968 17.2777 -8.90284 1.14891e-10
569 1 12.5786 15.7249 15.7149 -8.88787 6.9938e-11
570 1 14.1507 17.2967 17.2782 -8.90292 1.15082e-10
571 1 15.7235 15.7245 15.7161 -8.8877 7.02092e-11
572 1 17.2952 17.2963 17.2789 -8.90324 1.15021e-10
573 1 18.868 15.7242 15.7169 -8.88809 7.00884e-11
574 1 20.4402 17.2964 17.279 -8.90302 1.15058e-10
575 1 22.0128 18.869 15.7172 -8.88819 6.9941e-11
576 1 1.57147 20.4413 17.279 -8.90297 1.14884e-10
577 1 3.14383 18.869 15.7171 -8.88818 6.99157e-11
578 1 4.71647 20.4413 17.279 -8.90302 1.14819e-10
579 1 6.2886 18.8691 15.7169 -8.88809 6.9887e-11
580 1 7.86119 20.4414 17.2788 -8.9031 1.14705e-10
581 1 9.43342 18.8693 15.7165 -8.88817 6.97659e-11
582 1 11.0059 20.4414 17.2787 -8.90309 1.14615e-10
583 1 12.5783 18.8693 15.7165 -8.88817 6.9766e-11
584 1 14.1506 20.4414 17.2788 -8.9031 1.14705e-10