ITEM: TIMESTEP
41
ITEM: NUMBER OF ATOMS
688
ITEM: BOX BOUNDS pp pp pp
0.0000000000000000e+00 2.2013900999999997e+01
0.0000000000000000e+00 2.2013900999999997e+01
0.0000000000000000e+00 2.2013900999999997e+01
ITEM: ATOMS id type x y z c_pot
1 1 22.0139 5.25773e-17 -3.03231e-11 -8.94963
2 1 1.57242 1.57242 1.57242 -8.94963
175 1 18.869 9.43452 9.43453 -8.9494
4 1 4.71726 1.57242 1.57242 -8.94963
174 1 15.7236 9.43509 9.43453 -8.99802
6 1 7.86211 1.57242 1.57242 -8.94963
7 1 9.43453 -5.7054e-16 6.52742e-10 -8.94963
8 1 11.007 1.57242 1.57242 -8.94963
173 1 12.5943 9.40859 9.43453 -9.19572
10 1 14.1518 1.57242 1.57242 -8.94963
172 1 9.37897 9.32401 9.43453 -8.05088
12 1 17.2966 1.57242 1.57242 -8.94963
196 1 20.4415 7.86211 11.007 -8.94963
14 1 20.4415 1.57242 1.57242 -8.94963
171 1 6.28748 9.43427 9.43453 -8.96131
16 1 1.57242 4.71726 1.57242 -8.94963
170 1 3.14478 9.43453 9.43453 -8.95019
18 1 4.71726 4.71726 1.57242 -8.94963
169 1 22.0139 9.43453 9.43453 -8.94964
20 1 7.86211 4.71726 1.57242 -8.94963
21 1 9.43453 3.14484 -4.56607e-09 -8.94963
22 1 11.007 4.71726 1.57242 -8.94963
195 1 17.2966 7.86214 11.0069 -8.94987
24 1 14.1518 4.71726 1.57242 -8.94964
168 1 18.8691 6.28968 9.43453 -8.94961
26 1 17.2966 4.71726 1.57242 -8.94963
27 1 18.8691 3.14484 -8.63255e-11 -8.94963
28 1 20.4415 4.71726 1.57242 -8.94963
167 1 15.7241 6.28977 9.43453 -8.95031
30 1 1.57242 7.86211 1.57242 -8.94963
166 1 12.5793 6.28864 9.43453 -8.95712
32 1 4.71726 7.86211 1.57242 -8.94963
33 1 6.28969 6.28969 -1.52493e-07 -8.94963
34 1 7.86211 7.86211 1.57242 -8.94963
35 1 9.43453 6.28969 1.65725e-07 -8.94963
36 1 11.0069 7.86211 1.57242 -8.94965
165 1 9.43445 6.28586 9.43453 -8.96975
38 1 14.1518 7.8621 1.57242 -8.94962
194 1 14.1519 7.86243 11.0073 -8.98826
40 1 17.2966 7.86211 1.57242 -8.94964
164 1 6.28971 6.28971 9.43453 -8.95158
42 1 20.4415 7.86211 1.57242 -8.94963
163 1 3.14484 6.28969 9.43453 -8.94962
44 1 3.14484 9.43453 8.68433e-09 -8.94963
162 1 1.7036e-08 6.28969 9.43453 -8.94963
161 1 18.8691 3.14484 9.43453 -8.94963
160 1 15.7242 3.14485 9.43453 -8.94962
159 1 12.5794 3.14482 9.43453 -8.94995
49 1 18.8691 9.43453 -9.18859e-10 -8.94963
50 1 3.88066e-10 1.86646e-16 3.14484 -8.94963
51 1 1.57242 1.57242 4.71726 -8.94963
52 1 3.14484 1.9633e-16 3.14484 -8.94963
53 1 4.71726 1.57242 4.71726 -8.94963
54 1 6.28969 -1.42932e-16 3.14484 -8.94963
55 1 7.86211 1.57242 4.71726 -8.94963
56 1 9.43453 -7.81987e-17 3.14484 -8.94963
57 1 11.007 1.57242 4.71726 -8.94963
58 1 12.5794 4.59087e-16 3.14484 -8.94963
59 1 14.1518 1.57242 4.71726 -8.94963
60 1 15.7242 4.62011e-16 3.14484 -8.94963
61 1 17.2966 1.57242 4.71726 -8.94963
62 1 18.8691 -2.68124e-16 3.14484 -8.94963
63 1 20.4415 1.57242 4.71726 -8.94963
64 1 22.0139 3.14484 3.14484 -8.94963
65 1 1.57242 4.71726 4.71726 -8.94963
66 1 3.14484 3.14484 3.14484 -8.94963
67 1 4.71726 4.71726 4.71726 -8.94957
68 1 6.28969 3.14484 3.14484 -8.94964
69 1 7.86211 4.71727 4.71727 -8.94976
70 1 9.43453 3.14484 3.14484 -8.94963
71 1 11.0069 4.71727 4.71726 -8.94966
72 1 12.5794 3.14484 3.14484 -8.94963
73 1 14.1518 4.71726 4.71726 -8.94965
74 1 15.7242 3.14484 3.14484 -8.94963
75 1 17.2966 4.71727 4.71727 -8.94964
76 1 18.8691 3.14484 3.14484 -8.94963
77 1 20.4415 4.71726 4.71726 -8.94963
78 1 2.00018e-08 6.28969 3.14484 -8.94963
79 1 1.57242 7.86211 4.71726 -8.94963
80 1 3.14484 6.28969 3.14484 -8.94964
81 1 4.71727 7.86211 4.71727 -8.9497
82 1 6.28968 6.28968 3.14484 -8.94964
83 1 7.86207 7.86208 4.71714 -8.95015
84 1 9.43453 6.28969 3.14484 -8.94965
85 1 11.0069 7.86216 4.71728 -8.95163
86 1 12.5794 6.28969 3.14485 -8.94975
87 1 14.1519 7.86197 4.71712 -8.94804
88 1 15.7242 6.28968 3.14484 -8.94957
89 1 17.2966 7.8621 4.71726 -8.94959
90 1 18.8691 6.28969 3.14484 -8.94963
91 1 20.4415 7.86211 4.71726 -8.94963
92 1 22.0139 9.43453 3.14484 -8.94963
93 1 3.14484 9.43453 3.14484 -8.94964
94 1 6.28968 9.43453 3.14484 -8.94969
95 1 9.43446 9.43446 3.14476 -8.94899
96 1 12.5795 9.43445 3.14468 -8.94977
97 1 15.7242 9.43453 3.14484 -8.94976
98 1 18.8691 9.43453 3.14484 -8.94964
99 1 22.0139 9.17354e-17 6.28969 -8.94963
100 1 1.57242 1.57242 7.86211 -8.94963
101 1 3.14484 2.58004e-16 6.28969 -8.94963
102 1 4.71726 1.57242 7.86211 -8.94963
103 1 6.28969 -4.1773e-17 6.28969 -8.94963
104 1 7.86211 1.57242 7.86211 -8.94966
105 1 9.43453 -7.23772e-17 6.28969 -8.94963
106 1 11.007 1.57242 7.86211 -8.94964
107 1 12.5794 4.10229e-16 6.28969 -8.94963
108 1 14.1518 1.57242 7.86211 -8.94963
109 1 15.7242 5.5788e-16 6.28969 -8.94963
110 1 17.2966 1.57242 7.86211 -8.94963
111 1 18.8691 3.7701e-16 6.28969 -8.94963
112 1 20.4415 1.57242 7.86211 -8.94963
113 1 1.56537e-08 3.14484 6.28969 -8.94963
114 1 1.57242 4.71726 7.86211 -8.94963
115 1 3.14484 3.14484 6.28969 -8.94964
116 1 4.71727 4.71727 7.86211 -8.94975
117 1 6.28968 3.14484 6.28968 -8.94962
118 1 7.86204 4.71711 7.86204 -8.94993
119 1 9.43453 3.14484 6.28969 -8.94964
120 1 11.007 4.71717 7.86203 -8.94897
121 1 12.5794 3.14484 6.28969 -8.94964
122 1 14.1518 4.71726 7.86209 -8.9494
123 1 15.7242 3.14484 6.28969 -8.94963
124 1 17.2966 4.71727 7.86211 -8.94965
125 1 18.8691 3.14484 6.28969 -8.94963
126 1 20.4415 4.71726 7.86211 -8.94963
127 1 22.0139 6.28969 6.28969 -8.94963
128 1 1.57242 7.86211 7.86211 -8.94966
129 1 3.14484 6.28968 6.28968 -8.94964
130 1 4.71714 7.86207 7.86207 -8.95025
131 1 6.28955 6.28955 6.28954 -8.9479
132 1 7.85837 7.85854 7.85839 -8.90914
133 1 9.43456 6.2897 6.28974 -8.95123
134 1 11.0078 7.86145 7.86079 -8.99362
135 1 12.5794 6.28958 6.28967 -8.95054
136 1 14.1519 7.86243 7.86172 -8.98826
137 1 15.7242 6.28969 6.28969 -8.94974
138 1 17.2966 7.86214 7.86213 -8.94987
139 1 18.8691 6.28969 6.28969 -8.94965
140 1 20.4415 7.86211 7.86211 -8.94963
141 1 8.58812e-08 9.43453 6.28969 -8.94963
142 1 3.14484 9.43453 6.28968 -8.94964
143 1 6.28959 9.43448 6.28962 -8.94946
144 1 9.43335 9.43289 6.28935 -8.97688
145 1 12.5833 9.43094 6.2864 -8.96508
146 1 15.7245 9.43439 6.28954 -8.94947
147 1 18.8691 9.43453 6.28968 -8.94967
148 1 -3.01433e-10 -4.86043e-18 9.43453 -8.94963
149 1 3.14484 -2.81021e-17 9.43453 -8.94963
150 1 6.28969 1.3605e-17 9.43453 -8.94963
151 1 9.43453 2.10368e-16 9.43453 -8.94969
152 1 12.5794 3.58391e-16 9.43453 -8.94965
153 1 15.7242 2.36199e-16 9.43453 -8.94963
154 1 18.8691 2.39825e-16 9.43453 -8.94963
155 1 22.0139 3.14484 9.43453 -8.94963
156 1 3.14484 3.14484 9.43453 -8.94963
157 1 6.28969 3.14484 9.43453 -8.94963
158 1 9.43453 3.14473 9.43453 -8.95064
183 1 1.57242 4.71726 11.007 -8.94963
177 1 4.71726 1.57242 11.007 -8.94963
181 1 17.2966 1.57242 11.007 -8.94963
184 1 4.71727 4.71727 11.0069 -8.94975
3 1 3.14484 2.73363e-16 3.02449e-10 -8.94963
11 1 15.7242 3.15138e-16 7.43059e-10 -8.94963
29 1 22.0139 6.28969 3.57621e-10 -8.94963
37 1 12.5794 6.28969 2.98564e-07 -8.94963
176 1 1.57242 1.57242 11.007 -8.94963
48 1 15.7242 9.43453 22.0139 -8.94963
178 1 7.86211 1.57242 11.007 -8.94966
179 1 11.007 1.57242 11.007 -8.94964
180 1 14.1518 1.57242 11.007 -8.94963
47 1 12.5794 9.43453 22.0139 -8.94966
343 1 18.8691 9.43453 18.8691 -8.94963
342 1 15.7242 9.43453 18.8691 -8.94963
46 1 9.43453 9.43453 22.0139 -8.94963
185 1 7.86204 4.71711 11.007 -8.94993
186 1 11.007 4.71717 11.007 -8.94897
187 1 14.1518 4.71726 11.007 -8.9494
188 1 17.2966 4.71727 11.0069 -8.94965
189 1 20.4415 4.71726 11.007 -8.94963
190 1 1.57242 7.86211 11.007 -8.94966
191 1 4.71714 7.86207 11.007 -8.95025
192 1 7.85837 7.85854 11.0107 -8.90914
341 1 12.5794 9.43453 18.8691 -8.94966
340 1 9.43453 9.43453 18.8691 -8.94963
339 1 6.28969 9.43453 18.8691 -8.94964
338 1 3.14484 9.43453 18.8691 -8.94963
197 1 22.0139 1.75771e-16 12.5794 -8.94963
198 1 1.57242 1.57242 14.1518 -8.94963
199 1 3.14484 2.60865e-16 12.5794 -8.94963
200 1 4.71726 1.57242 14.1518 -8.94963
201 1 6.28969 -3.17924e-17 12.5794 -8.94963
202 1 7.86211 1.57242 14.1518 -8.94963
203 1 9.43453 -1.74334e-17 12.5794 -8.94963
204 1 11.007 1.57242 14.1518 -8.94963
205 1 12.5794 3.92862e-16 12.5794 -8.94963
206 1 14.1518 1.57242 14.1518 -8.94963
207 1 15.7242 5.50654e-16 12.5794 -8.94963
208 1 17.2966 1.57242 14.1518 -8.94963
209 1 18.8691 4.53758e-16 12.5794 -8.94963
210 1 20.4415 1.57242 14.1518 -8.94963
211 1 1.56537e-08 3.14484 12.5794 -8.94963
212 1 1.57242 4.71726 14.1518 -8.94963
213 1 3.14484 3.14484 12.5794 -8.94964
214 1 4.71726 4.71726 14.1518 -8.94957
215 1 6.28968 3.14484 12.5794 -8.94962
216 1 7.86211 4.71727 14.1518 -8.94976
217 1 9.43453 3.14484 12.5794 -8.94964
218 1 11.0069 4.71727 14.1518 -8.94966
219 1 12.5794 3.14484 12.5794 -8.94964
220 1 14.1518 4.71726 14.1518 -8.94965
221 1 15.7242 3.14484 12.5794 -8.94963
222 1 17.2966 4.71727 14.1518 -8.94964
223 1 18.8691 3.14484 12.5794 -8.94963
224 1 20.4415 4.71726 14.1518 -8.94963
225 1 22.0139 6.28969 12.5794 -8.94963
226 1 1.57242 7.86211 14.1518 -8.94963
227 1 3.14484 6.28968 12.5794 -8.94964
228 1 4.71727 7.86211 14.1518 -8.9497
229 1 6.28955 6.28955 12.5795 -8.9479
230 1 7.86207 7.86208 14.1519 -8.95015
231 1 9.43456 6.2897 12.5793 -8.95123
232 1 11.0069 7.86216 14.1518 -8.95163
233 1 12.5794 6.28958 12.5794 -8.95054
234 1 14.1519 7.86197 14.1519 -8.94804
235 1 15.7242 6.28969 12.5794 -8.94974
236 1 17.2966 7.8621 14.1518 -8.94959
237 1 18.8691 6.28969 12.5794 -8.94965
238 1 20.4415 7.86211 14.1518 -8.94963
239 1 8.58812e-08 9.43453 12.5794 -8.94963
240 1 3.14484 9.43453 12.5794 -8.94964
241 1 6.28959 9.43448 12.5794 -8.94946
242 1 9.43335 9.43289 12.5797 -8.97688
243 1 12.5833 9.43094 12.5827 -8.96508
244 1 15.7245 9.43439 12.5795 -8.94947
245 1 18.8691 9.43453 12.5794 -8.94967
246 1 3.88066e-10 2.5472e-16 15.7242 -8.94963
247 1 1.57242 1.57242 17.2966 -8.94963
248 1 3.14484 2.8381e-16 15.7242 -8.94963
249 1 4.71726 1.57242 17.2966 -8.94963
250 1 6.28969 -1.2834e-16 15.7242 -8.94963
251 1 7.86211 1.57242 17.2966 -8.94963
252 1 9.43453 -6.91859e-17 15.7242 -8.94963
253 1 11.007 1.57242 17.2966 -8.94963
254 1 12.5794 4.84315e-16 15.7242 -8.94963
255 1 14.1518 1.57242 17.2966 -8.94963
256 1 15.7242 4.90723e-16 15.7242 -8.94963
257 1 17.2966 1.57242 17.2966 -8.94963
258 1 18.8691 -2.87768e-16 15.7242 -8.94963
259 1 20.4415 1.57242 17.2966 -8.94963
260 1 22.0139 3.14484 15.7242 -8.94963
261 1 1.57242 4.71726 17.2966 -8.94963
262 1 3.14484 3.14484 15.7242 -8.94963
263 1 4.71726 4.71726 17.2966 -8.94963
264 1 6.28969 3.14484 15.7242 -8.94964
265 1 7.86211 4.71726 17.2966 -8.94963
266 1 9.43453 3.14484 15.7242 -8.94963
267 1 11.007 4.71726 17.2966 -8.94963
268 1 12.5794 3.14484 15.7242 -8.94963
269 1 14.1518 4.71726 17.2966 -8.94964
270 1 15.7242 3.14484 15.7242 -8.94963
271 1 17.2966 4.71726 17.2966 -8.94963
272 1 18.8691 3.14484 15.7242 -8.94963
273 1 20.4415 4.71726 17.2966 -8.94963
274 1 2.00018e-08 6.28969 15.7242 -8.94963
275 1 1.57242 7.86211 17.2966 -8.94963
276 1 3.14484 6.28969 15.7242 -8.94964
277 1 4.71726 7.86211 17.2966 -8.94963
278 1 6.28968 6.28968 15.7242 -8.94964
279 1 7.86211 7.86211 17.2966 -8.94963
280 1 9.43453 6.28969 15.7242 -8.94965
281 1 11.0069 7.86211 17.2966 -8.94965
282 1 12.5794 6.28969 15.7242 -8.94975
283 1 14.1518 7.8621 17.2966 -8.94962
284 1 15.7242 6.28968 15.7242 -8.94957
285 1 17.2966 7.86211 17.2966 -8.94964
286 1 18.8691 6.28969 15.7242 -8.94963
287 1 20.4415 7.86211 17.2966 -8.94963
288 1 22.0139 9.43453 15.7242 -8.94963
289 1 3.14484 9.43453 15.7242 -8.94964
290 1 6.28968 9.43453 15.7242 -8.94969
291 1 9.43446 9.43446 15.7243 -8.94899
292 1 12.5795 9.43445 15.7244 -8.94977
293 1 15.7242 9.43453 15.7242 -8.94976
294 1 18.8691 9.43453 15.7242 -8.94964
295 1 22.0139 1.14238e-16 18.8691 -8.94963
296 1 1.57242 1.57242 20.4415 -8.94963
297 1 3.14484 3.33071e-16 18.8691 -8.94963
298 1 4.71726 1.57242 20.4415 -8.94963
299 1 6.28969 -1.78124e-16 18.8691 -8.94963
300 1 7.86211 1.57242 20.4415 -8.94963
301 1 9.43453 -5.65923e-16 18.8691 -8.94963
302 1 11.007 1.57242 20.4415 -8.94963
303 1 12.5794 7.43635e-16 18.8691 -8.94963
304 1 14.1518 1.57242 20.4415 -8.94963
305 1 15.7242 3.25858e-16 18.8691 -8.94963
306 1 17.2966 1.57242 20.4415 -8.94963
307 1 18.8691 1.98465e-16 18.8691 -8.94963
308 1 20.4415 1.57242 20.4415 -8.94963
309 1 3.02955e-10 3.14484 18.8691 -8.94963
310 1 1.57242 4.71726 20.4415 -8.94963
311 1 3.14484 3.14484 18.8691 -8.94963
312 1 4.71726 4.71726 20.4415 -8.94963
313 1 6.28969 3.14484 18.8691 -8.94963
314 1 7.86211 4.71726 20.4415 -8.94963
315 1 9.43453 3.14484 18.8691 -8.94963
316 1 11.007 4.71726 20.4415 -8.94963
317 1 12.5794 3.14484 18.8691 -8.94963
318 1 14.1518 4.71726 20.4415 -8.94963
319 1 15.7242 3.14484 18.8691 -8.94963
320 1 17.2966 4.71726 20.4415 -8.94963
321 1 18.8691 3.14484 18.8691 -8.94963
322 1 20.4415 4.71726 20.4415 -8.94963
323 1 22.0139 6.28969 18.8691 -8.94963
324 1 1.57242 7.86211 20.4415 -8.94963
325 1 3.14484 6.28969 18.8691 -8.94963
326 1 4.71726 7.86211 20.4415 -8.94963
327 1 6.28969 6.28969 18.8691 -8.94963
328 1 7.86211 7.86211 20.4415 -8.94963
329 1 9.43453 6.28969 18.8691 -8.94963
330 1 11.007 7.86211 20.4415 -8.94963
331 1 12.5794 6.28969 18.8691 -8.94963
332 1 14.1518 7.86211 20.4415 -8.94963
333 1 15.7242 6.28969 18.8691 -8.94963
334 1 17.2966 7.86211 20.4415 -8.94963
335 1 18.8691 6.28969 18.8691 -8.94963
336 1 20.4415 7.86211 20.4415 -8.94963
337 1 1.32395e-11 9.43453 18.8691 -8.94963
45 1 6.28969 9.43453 22.0139 -8.94964
5 1 6.28969 -1.62983e-16 22.0139 -8.94963
9 1 12.5794 7.50899e-16 22.0139 -8.94963
43 1 1.32394e-11 9.43453 22.0139 -8.94963
15 1 3.02955e-10 3.14484 22.0139 -8.94963
17 1 3.14484 3.14484 22.0139 -8.94963
19 1 6.28969 3.14484 22.0139 -8.94963
25 1 15.7242 3.14484 22.0139 -8.94963
41 1 18.8691 6.28969 22.0139 -8.94963
31 1 3.14484 6.28969 22.0139 -8.94963
13 1 18.8691 2.1639e-16 22.0139 -8.94963
23 1 12.5794 3.14484 22.0139 -8.94963
39 1 15.7242 6.28969 22.0139 -8.94963
182 1 20.4415 1.57242 11.007 -8.94963
193 1 11.0078 7.86145 11.0083 -8.99362
344 1 1.57242 11.007 1.57242 -8.94963
345 1 4.71726 11.007 1.57242 -8.94963
346 1 7.86211 11.007 1.57242 -8.94967
347 1 11.0069 11.007 1.57229 -8.95073
348 1 14.1518 11.007 1.57242 -8.94966
349 1 17.2966 11.007 1.57242 -8.94963
350 1 20.4415 11.007 1.57242 -8.94963
688 3 10.226 11.007 9.43453 3.31336
352 1 1.57242 14.1518 1.57242 -8.94963
353 1 3.14484 12.5794 8.68433e-09 -8.94963
354 1 4.71726 14.1518 1.57242 -8.94963
687 2 11.7887 11.007 9.43453 0.693298
356 1 7.86211 14.1518 1.57242 -8.94963
511 1 18.8691 18.8691 9.43453 -8.94963
358 1 11.0069 14.1518 1.57242 -8.94965
510 1 15.7242 18.8691 9.43453 -8.94962
360 1 14.1518 14.1518 1.57242 -8.94962
509 1 12.5794 18.8691 9.43453 -8.94995
362 1 17.2966 14.1518 1.57242 -8.94964
363 1 18.8691 12.5794 -9.18859e-10 -8.94963
364 1 20.4415 14.1518 1.57242 -8.94963
508 1 9.43453 18.8692 9.43453 -8.95064
366 1 1.57242 17.2966 1.57242 -8.94963
507 1 6.28969 18.8691 9.43453 -8.94963
368 1 4.71726 17.2966 1.57242 -8.94963
369 1 6.28969 15.7242 -1.52493e-07 -8.94963
370 1 7.86211 17.2966 1.57242 -8.94963
371 1 9.43453 15.7242 1.65725e-07 -8.94963
372 1 11.007 17.2966 1.57242 -8.94963
506 1 3.14484 18.8691 9.43453 -8.94963
374 1 14.1518 17.2966 1.57242 -8.94964
526 1 1.57242 17.2966 11.007 -8.94963
376 1 17.2966 17.2966 1.57242 -8.94963
505 1 22.0139 18.8691 9.43453 -8.94963
378 1 20.4415 17.2966 1.57242 -8.94963
504 1 18.8691 15.7242 9.43453 -8.94961
380 1 1.57242 20.4415 1.57242 -8.94963
503 1 15.7241 15.7241 9.43453 -8.95031
382 1 4.71726 20.4415 1.57242 -8.94963
502 1 12.5793 15.7253 9.43453 -8.95712
384 1 7.86211 20.4415 1.57242 -8.94963
385 1 9.43453 18.8691 -4.56607e-09 -8.94963
386 1 11.007 20.4415 1.57242 -8.94963
525 1 20.4415 14.1518 11.007 -8.94963
388 1 14.1518 20.4415 1.57242 -8.94963
501 1 9.43445 15.728 9.43453 -8.96975
390 1 17.2966 20.4415 1.57242 -8.94963
391 1 18.8691 18.8691 -8.63261e-11 -8.94963
392 1 20.4415 20.4415 1.57242 -8.94963
393 1 1.57242 11.007 4.71726 -8.94963
394 1 4.71727 11.007 4.71727 -8.94966
395 1 7.8622 11.007 4.71727 -8.95171
396 1 11.0071 11.007 4.71312 -8.97219
397 1 14.1518 11.007 4.71718 -8.9523
398 1 17.2966 11.007 4.71727 -8.94967
399 1 20.4415 11.007 4.71726 -8.94963
400 1 22.0139 12.5794 3.14484 -8.94963
401 1 1.57242 14.1518 4.71726 -8.94963
402 1 3.14484 12.5794 3.14484 -8.94964
403 1 4.71727 14.1518 4.71727 -8.9497
404 1 6.28968 12.5794 3.14484 -8.94969
405 1 7.86207 14.1518 4.71714 -8.95015
406 1 9.43446 12.5794 3.14476 -8.94899
407 1 11.0069 14.1517 4.71728 -8.95163
408 1 12.5795 12.5795 3.14468 -8.94977
409 1 14.1519 14.1519 4.71712 -8.94804
410 1 15.7242 12.5794 3.14484 -8.94976
411 1 17.2966 14.1518 4.71726 -8.94959
412 1 18.8691 12.5794 3.14484 -8.94964
413 1 20.4415 14.1518 4.71726 -8.94963
414 1 2.00018e-08 15.7242 3.14484 -8.94963
415 1 1.57242 17.2966 4.71726 -8.94963
416 1 3.14484 15.7242 3.14484 -8.94964
417 1 4.71726 17.2966 4.71726 -8.94957
418 1 6.28968 15.7242 3.14484 -8.94964
419 1 7.86211 17.2966 4.71727 -8.94976
420 1 9.43453 15.7242 3.14484 -8.94965
421 1 11.0069 17.2966 4.71726 -8.94966
422 1 12.5794 15.7242 3.14485 -8.94975
423 1 14.1518 17.2966 4.71726 -8.94965
424 1 15.7242 15.7242 3.14484 -8.94957
425 1 17.2966 17.2966 4.71727 -8.94964
426 1 18.8691 15.7242 3.14484 -8.94963
427 1 20.4415 17.2966 4.71726 -8.94963
428 1 22.0139 18.8691 3.14484 -8.94963
429 1 1.57242 20.4415 4.71726 -8.94963
430 1 3.14484 18.8691 3.14484 -8.94963
431 1 4.71726 20.4415 4.71726 -8.94963
432 1 6.28969 18.8691 3.14484 -8.94964
433 1 7.86211 20.4415 4.71726 -8.94963
434 1 9.43453 18.8691 3.14484 -8.94963
435 1 11.007 20.4415 4.71726 -8.94963
436 1 12.5794 18.8691 3.14484 -8.94963
437 1 14.1518 20.4415 4.71726 -8.94963
438 1 15.7242 18.8691 3.14484 -8.94963
439 1 17.2966 20.4415 4.71726 -8.94963
440 1 18.8691 18.8691 3.14484 -8.94963
441 1 20.4415 20.4415 4.71726 -8.94963
442 1 1.57242 11.007 7.86211 -8.94965
443 1 4.71712 11.007 7.86205 -8.94962
444 1 7.85977 11.007 7.8599 -8.96088
445 1 11.0472 11.007 7.73408 -8.27642
446 1 14.1572 11.007 7.85942 -8.99769
447 1 17.2968 11.007 7.86211 -8.95112
448 1 20.4415 11.007 7.86211 -8.94969
449 1 8.58812e-08 12.5794 6.28969 -8.94963
450 1 1.57242 14.1518 7.86211 -8.94966
451 1 3.14484 12.5794 6.28968 -8.94964
452 1 4.71714 14.1518 7.86207 -8.95025
453 1 6.28959 12.5794 6.28962 -8.94946
454 1 7.85837 14.1554 7.85839 -8.90914
455 1 9.43335 12.581 6.28935 -8.97688
456 1 11.0078 14.1525 7.86079 -8.99362
457 1 12.5833 12.583 6.2864 -8.96508
458 1 14.1519 14.1515 7.86172 -8.98826
459 1 15.7245 12.5795 6.28954 -8.94947
460 1 17.2966 14.1518 7.86213 -8.94987
461 1 18.8691 12.5794 6.28968 -8.94967
462 1 20.4415 14.1518 7.86211 -8.94963
463 1 22.0139 15.7242 6.28969 -8.94963
464 1 1.57242 17.2966 7.86211 -8.94963
465 1 3.14484 15.7242 6.28968 -8.94964
466 1 4.71727 17.2966 7.86211 -8.94975
467 1 6.28955 15.7244 6.28954 -8.9479
468 1 7.86204 17.2968 7.86204 -8.94993
469 1 9.43456 15.7242 6.28974 -8.95123
470 1 11.007 17.2967 7.86203 -8.94897
471 1 12.5794 15.7243 6.28967 -8.95054
472 1 14.1518 17.2966 7.86209 -8.9494
473 1 15.7242 15.7242 6.28969 -8.94974
474 1 17.2966 17.2966 7.86211 -8.94965
475 1 18.8691 15.7242 6.28969 -8.94965
476 1 20.4415 17.2966 7.86211 -8.94963
477 1 1.56537e-08 18.8691 6.28969 -8.94963
478 1 1.57242 20.4415 7.86211 -8.94963
479 1 3.14484 18.8691 6.28969 -8.94964
480 1 4.71726 20.4415 7.86211 -8.94963
481 1 6.28968 18.8691 6.28968 -8.94962
482 1 7.86211 20.4415 7.86211 -8.94966
483 1 9.43453 18.8691 6.28969 -8.94964
484 1 11.007 20.4415 7.86211 -8.94964
485 1 12.5794 18.8691 6.28969 -8.94964
486 1 14.1518 20.4415 7.86211 -8.94963
487 1 15.7242 18.8691 6.28969 -8.94963
488 1 17.2966 20.4415 7.86211 -8.94963
489 1 18.8691 18.8691 6.28969 -8.94963
490 1 20.4415 20.4415 7.86211 -8.94963
491 1 22.0139 12.5794 9.43453 -8.94964
492 1 3.14478 12.5794 9.43453 -8.95019
493 1 6.28748 12.5796 9.43453 -8.96131
494 1 9.37897 12.6899 9.43453 -8.05088
495 1 12.5943 12.6053 9.43453 -9.19572
496 1 15.7236 12.5788 9.43453 -8.99802
497 1 18.869 12.5794 9.43453 -8.9494
498 1 1.7036e-08 15.7242 9.43453 -8.94963
499 1 3.14484 15.7242 9.43453 -8.94962
500 1 6.28971 15.7242 9.43453 -8.95158
517 1 17.2968 11.007 11.0069 -8.95112
518 1 20.4415 11.007 11.0069 -8.94969
524 1 17.2966 14.1518 11.0069 -8.94987
523 1 14.1519 14.1515 11.0073 -8.98826
527 1 4.71727 17.2966 11.0069 -8.94975
534 1 4.71726 20.4415 11.007 -8.94963
538 1 17.2966 20.4415 11.007 -8.94963
365 1 22.0139 15.7242 3.57622e-10 -8.94963
373 1 12.5794 15.7242 2.98564e-07 -8.94963
512 1 1.57242 11.007 11.007 -8.94965
513 1 4.71712 11.007 11.007 -8.94962
514 1 7.85977 11.007 11.0092 -8.96088
515 1 11.0472 11.007 11.135 -8.27642
516 1 14.1572 11.007 11.0096 -8.99769
686 1 20.4415 20.4415 20.4415 -8.94963
685 1 18.8691 18.8691 18.8691 -8.94963
519 1 1.57242 14.1518 11.007 -8.94966
520 1 4.71714 14.1518 11.007 -8.95025
521 1 7.85837 14.1554 11.0107 -8.90914
684 1 17.2966 20.4415 20.4415 -8.94963
683 1 15.7242 18.8691 18.8691 -8.94963
682 1 14.1518 20.4415 20.4415 -8.94963
681 1 12.5794 18.8691 18.8691 -8.94963
680 1 11.007 20.4415 20.4415 -8.94963
389 1 15.7242 18.8691 22.0139 -8.94963
528 1 7.86204 17.2968 11.007 -8.94993
529 1 11.007 17.2967 11.007 -8.94897
530 1 14.1518 17.2966 11.007 -8.9494
531 1 17.2966 17.2966 11.0069 -8.94965
532 1 20.4415 17.2966 11.007 -8.94963
533 1 1.57242 20.4415 11.007 -8.94963
383 1 6.28969 18.8691 22.0139 -8.94963
535 1 7.86211 20.4415 11.007 -8.94966
536 1 11.007 20.4415 11.007 -8.94964
537 1 14.1518 20.4415 11.007 -8.94963
381 1 3.14484 18.8691 22.0139 -8.94963
679 1 9.43453 18.8691 18.8691 -8.94963
540 1 1.57242 11.007 14.1518 -8.94963
541 1 4.71727 11.007 14.1518 -8.94966
542 1 7.8622 11.007 14.1518 -8.95171
543 1 11.0071 11.007 14.1559 -8.97219
544 1 14.1518 11.007 14.1519 -8.9523
545 1 17.2966 11.007 14.1518 -8.94967
546 1 20.4415 11.007 14.1518 -8.94963
547 1 8.58812e-08 12.5794 12.5794 -8.94963
548 1 1.57242 14.1518 14.1518 -8.94963
549 1 3.14484 12.5794 12.5794 -8.94964
550 1 4.71727 14.1518 14.1518 -8.9497
551 1 6.28959 12.5794 12.5794 -8.94946
552 1 7.86207 14.1518 14.1519 -8.95015
553 1 9.43335 12.581 12.5797 -8.97688
554 1 11.0069 14.1517 14.1518 -8.95163
555 1 12.5833 12.583 12.5827 -8.96508
556 1 14.1519 14.1519 14.1519 -8.94804
557 1 15.7245 12.5795 12.5795 -8.94947
558 1 17.2966 14.1518 14.1518 -8.94959
559 1 18.8691 12.5794 12.5794 -8.94967
560 1 20.4415 14.1518 14.1518 -8.94963
561 1 22.0139 15.7242 12.5794 -8.94963
562 1 1.57242 17.2966 14.1518 -8.94963
563 1 3.14484 15.7242 12.5794 -8.94964
564 1 4.71726 17.2966 14.1518 -8.94957
565 1 6.28955 15.7244 12.5795 -8.9479
566 1 7.86211 17.2966 14.1518 -8.94976
567 1 9.43456 15.7242 12.5793 -8.95123
568 1 11.0069 17.2966 14.1518 -8.94966
569 1 12.5794 15.7243 12.5794 -8.95054
570 1 14.1518 17.2966 14.1518 -8.94965
571 1 15.7242 15.7242 12.5794 -8.94974
572 1 17.2966 17.2966 14.1518 -8.94964
573 1 18.8691 15.7242 12.5794 -8.94965
574 1 20.4415 17.2966 14.1518 -8.94963
575 1 1.56537e-08 18.8691 12.5794 -8.94963
576 1 1.57242 20.4415 14.1518 -8.94963
577 1 3.14484 18.8691 12.5794 -8.94964
578 1 4.71726 20.4415 14.1518 -8.94963
579 1 6.28968 18.8691 12.5794 -8.94962
580 1 7.86211 20.4415 14.1518 -8.94963
581 1 9.43453 18.8691 12.5794 -8.94964
582 1 11.007 20.4415 14.1518 -8.94963
583 1 12.5794 18.8691 12.5794 -8.94964
584 1 14.1518 20.4415 14.1518 -8.94963
585 1 15.7242 18.8691 12.5794 -8.94963
586 1 17.2966 20.4415 14.1518 -8.94963
587 1 18.8691 18.8691 12.5794 -8.94963
588 1 20.4415 20.4415 14.1518 -8.94963
589 1 1.57242 11.007 17.2966 -8.94963
590 1 4.71726 11.007 17.2966 -8.94963
591 1 7.86211 11.007 17.2966 -8.94967
592 1 11.0069 11.007 17.2968 -8.95073
593 1 14.1518 11.007 17.2966 -8.94966
594 1 17.2966 11.007 17.2966 -8.94963
595 1 20.4415 11.007 17.2966 -8.94963
596 1 22.0139 12.5794 15.7242 -8.94963
597 1 1.57242 14.1518 17.2966 -8.94963
598 1 3.14484 12.5794 15.7242 -8.94964
599 1 4.71726 14.1518 17.2966 -8.94963
600 1 6.28968 12.5794 15.7242 -8.94969
601 1 7.86211 14.1518 17.2966 -8.94963
602 1 9.43446 12.5794 15.7243 -8.94899
603 1 11.0069 14.1518 17.2966 -8.94965
604 1 12.5795 12.5795 15.7244 -8.94977
605 1 14.1518 14.1518 17.2966 -8.94962
606 1 15.7242 12.5794 15.7242 -8.94976
607 1 17.2966 14.1518 17.2966 -8.94964
608 1 18.8691 12.5794 15.7242 -8.94964
609 1 20.4415 14.1518 17.2966 -8.94963
610 1 2.00018e-08 15.7242 15.7242 -8.94963
611 1 1.57242 17.2966 17.2966 -8.94963
612 1 3.14484 15.7242 15.7242 -8.94964
613 1 4.71726 17.2966 17.2966 -8.94963
614 1 6.28968 15.7242 15.7242 -8.94964
615 1 7.86211 17.2966 17.2966 -8.94963
616 1 9.43453 15.7242 15.7242 -8.94965
617 1 11.007 17.2966 17.2966 -8.94963
618 1 12.5794 15.7242 15.7242 -8.94975
619 1 14.1518 17.2966 17.2966 -8.94964
620 1 15.7242 15.7242 15.7242 -8.94957
621 1 17.2966 17.2966 17.2966 -8.94963
622 1 18.8691 15.7242 15.7242 -8.94963
623 1 20.4415 17.2966 17.2966 -8.94963
624 1 22.0139 18.8691 15.7242 -8.94963
625 1 1.57242 20.4415 17.2966 -8.94963
626 1 3.14484 18.8691 15.7242 -8.94963
627 1 4.71726 20.4415 17.2966 -8.94963
628 1 6.28969 18.8691 15.7242 -8.94964
629 1 7.86211 20.4415 17.2966 -8.94963
630 1 9.43453 18.8691 15.7242 -8.94963
631 1 11.007 20.4415 17.2966 -8.94963
632 1 12.5794 18.8691 15.7242 -8.94963
633 1 14.1518 20.4415 17.2966 -8.94963
634 1 15.7242 18.8691 15.7242 -8.94963
635 1 17.2966 20.4415 17.2966 -8.94963
636 1 18.8691 18.8691 15.7242 -8.94963
637 1 20.4415 20.4415 17.2966 -8.94963
638 1 1.57242 11.007 20.4415 -8.94963
639 1 4.71726 11.007 20.4415 -8.94963
640 1 7.86211 11.007 20.4415 -8.94963
641 1 11.007 11.007 20.4415 -8.9497
642 1 14.1518 11.007 20.4415 -8.94963
643 1 17.2966 11.007 20.4415 -8.94963
644 1 20.4415 11.007 20.4415 -8.94963
645 1 1.32395e-11 12.5794 18.8691 -8.94963
646 1 1.57242 14.1518 20.4415 -8.94963
647 1 3.14484 12.5794 18.8691 -8.94963
648 1 4.71726 14.1518 20.4415 -8.94963
649 1 6.28969 12.5794 18.8691 -8.94964
650 1 7.86211 14.1518 20.4415 -8.94963
651 1 9.43453 12.5794 18.8691 -8.94963
652 1 11.007 14.1518 20.4415 -8.94963
653 1 12.5794 12.5794 18.8691 -8.94966
654 1 14.1518 14.1518 20.4415 -8.94963
655 1 15.7242 12.5794 18.8691 -8.94963
656 1 17.2966 14.1518 20.4415 -8.94963
657 1 18.8691 12.5794 18.8691 -8.94963
658 1 20.4415 14.1518 20.4415 -8.94963
659 1 22.0139 15.7242 18.8691 -8.94963
660 1 1.57242 17.2966 20.4415 -8.94963
661 1 3.14484 15.7242 18.8691 -8.94963
662 1 4.71726 17.2966 20.4415 -8.94963
663 1 6.28969 15.7242 18.8691 -8.94963
664 1 7.86211 17.2966 20.4415 -8.94963
665 1 9.43453 15.7242 18.8691 -8.94963
666 1 11.007 17.2966 20.4415 -8.94963
667 1 12.5794 15.7242 18.8691 -8.94963
668 1 14.1518 17.2966 20.4415 -8.94963
669 1 15.7242 15.7242 18.8691 -8.94963
670 1 17.2966 17.2966 20.4415 -8.94963
671 1 18.8691 15.7242 18.8691 -8.94963
672 1 20.4415 17.2966 20.4415 -8.94963
673 1 3.02955e-10 18.8691 18.8691 -8.94963
674 1 1.57242 20.4415 20.4415 -8.94963
675 1 3.14484 18.8691 18.8691 -8.94963
676 1 4.71726 20.4415 20.4415 -8.94963
677 1 6.28969 18.8691 18.8691 -8.94963
678 1 7.86211 20.4415 20.4415 -8.94963
351 1 1.32394e-11 12.5794 22.0139 -8.94963
355 1 6.28969 12.5794 22.0139 -8.94964
357 1 9.43453 12.5794 22.0139 -8.94963
359 1 12.5794 12.5794 22.0139 -8.94966
361 1 15.7242 12.5794 22.0139 -8.94963
379 1 3.02955e-10 18.8691 22.0139 -8.94963
367 1 3.14484 15.7242 22.0139 -8.94963
377 1 18.8691 15.7242 22.0139 -8.94963
375 1 15.7242 15.7242 22.0139 -8.94963
539 1 20.4415 20.4415 11.007 -8.94963
387 1 12.5794 18.8691 22.0139 -8.94963
522 1 11.0078 14.1525 11.0083 -8.99362
