ITEM: TIMESTEP
49
ITEM: NUMBER OF ATOMS
688
ITEM: BOX BOUNDS pp pp pp
0.0000000000000000e+00 2.2013900999999997e+01
0.0000000000000000e+00 2.2013900999999997e+01
0.0000000000000000e+00 2.2013900999999997e+01
ITEM: ATOMS id type x y z c_pot
1 1 22.0139 -2.22629e-16 -4.47278e-09 -8.94963
2 1 1.57242 1.57242 1.57242 -8.94963
175 1 18.8691 9.4345 9.43453 -8.94924
4 1 4.71726 1.57242 1.57242 -8.94964
174 1 15.7238 9.43527 9.43453 -8.99732
6 1 7.86211 1.57242 1.57242 -8.94963
7 1 9.43453 -9.2024e-16 4.99984e-09 -8.94963
8 1 11.007 1.57242 1.57242 -8.94963
173 1 12.5986 9.39553 9.43453 -9.16777
10 1 14.1518 1.57242 1.57242 -8.94963
172 1 9.35539 9.26739 9.43453 -8.10881
12 1 17.2966 1.57242 1.57242 -8.94963
196 1 20.4415 7.86211 11.0069 -8.94964
14 1 20.4415 1.57242 1.57242 -8.94963
171 1 6.2832 9.43352 9.43453 -8.96726
16 1 1.57242 4.71726 1.57242 -8.94964
170 1 3.14443 9.43455 9.43453 -8.95123
18 1 4.71726 4.71726 1.57242 -8.94962
169 1 22.0139 9.43453 9.43453 -8.94972
20 1 7.86211 4.71726 1.57242 -8.94964
21 1 9.43453 3.14484 4.04535e-08 -8.94963
22 1 11.007 4.71726 1.57242 -8.94964
195 1 17.2966 7.86217 11.0069 -8.9502
24 1 14.1518 4.71727 1.57242 -8.94968
168 1 18.8691 6.28968 9.43453 -8.94956
26 1 17.2966 4.71726 1.57242 -8.9496
27 1 18.8691 3.14484 -7.8395e-08 -8.94963
28 1 20.4415 4.71726 1.57242 -8.94963
167 1 15.724 6.28989 9.43453 -8.95009
30 1 1.57242 7.86211 1.57242 -8.94963
166 1 12.5792 6.28625 9.43453 -8.96084
32 1 4.71726 7.86211 1.57242 -8.94965
33 1 6.28968 6.28968 -4.96241e-06 -8.94964
34 1 7.86208 7.86208 1.57235 -8.94976
35 1 9.43453 6.28969 -5.67247e-07 -8.94963
36 1 11.0069 7.8621 1.57239 -8.94963
165 1 9.43404 6.28258 9.43453 -8.98143
38 1 14.1518 7.86206 1.57233 -8.94969
194 1 14.1534 7.86137 11.0085 -8.98337
40 1 17.2966 7.86211 1.57242 -8.94967
164 1 6.28915 6.28911 9.43453 -8.9502
42 1 20.4415 7.86211 1.57242 -8.94963
163 1 3.1448 6.28966 9.43453 -8.94956
44 1 3.14484 9.43453 1.0861e-08 -8.94963
162 1 -2.48075e-06 6.28969 9.43453 -8.94964
161 1 18.8691 3.14484 9.43453 -8.94963
160 1 15.7242 3.14486 9.43453 -8.94957
159 1 12.5794 3.14465 9.43453 -8.95056
49 1 18.8691 9.43453 1.12272e-07 -8.94963
50 1 1.76963e-08 6.73899e-16 3.14484 -8.94963
51 1 1.57242 1.57242 4.71726 -8.94964
52 1 3.14484 -4.38102e-17 3.14484 -8.94963
53 1 4.71726 1.57242 4.71726 -8.94962
54 1 6.28969 -6.4564e-16 3.14484 -8.94963
55 1 7.86211 1.57242 4.71727 -8.94963
56 1 9.43453 -6.44803e-17 3.14484 -8.94964
57 1 11.007 1.57242 4.71726 -8.94964
58 1 12.5794 6.09096e-16 3.14484 -8.94963
59 1 14.1518 1.57242 4.71726 -8.94964
60 1 15.7242 7.30602e-16 3.14484 -8.94963
61 1 17.2966 1.57242 4.71726 -8.94963
62 1 18.8691 -8.58693e-16 3.14484 -8.94963
63 1 20.4415 1.57242 4.71726 -8.94963
64 1 22.0139 3.14484 3.14484 -8.94963
65 1 1.57242 4.71726 4.71726 -8.94963
66 1 3.14484 3.14484 3.14484 -8.9496
67 1 4.7172 4.7172 4.7172 -8.94913
68 1 6.28969 3.14485 3.14485 -8.94968
69 1 7.86212 4.71727 4.71727 -8.94997
70 1 9.43453 3.14484 3.14484 -8.94965
71 1 11.0069 4.71724 4.71723 -8.94961
72 1 12.5794 3.14484 3.14484 -8.94963
73 1 14.1518 4.71719 4.71723 -8.94975
74 1 15.7242 3.14484 3.14484 -8.94963
75 1 17.2966 4.71726 4.71726 -8.94965
76 1 18.8691 3.14484 3.14484 -8.94963
77 1 20.4415 4.71727 4.71726 -8.94964
78 1 5.97384e-07 6.28969 3.14484 -8.94963
79 1 1.57242 7.86211 4.71726 -8.94963
80 1 3.14484 6.28969 3.14485 -8.94967
81 1 4.71726 7.86211 4.71726 -8.94994
82 1 6.28965 6.28965 3.14476 -8.94964
83 1 7.86168 7.86169 4.7162 -8.95086
84 1 9.43453 6.28965 3.14482 -8.94958
85 1 11.0068 7.86191 4.71676 -8.95201
86 1 12.5794 6.28969 3.14485 -8.94992
87 1 14.1529 7.861 4.71609 -8.94362
88 1 15.7243 6.28962 3.14477 -8.94914
89 1 17.2967 7.86204 4.71721 -8.94955
90 1 18.8691 6.28968 3.14484 -8.94961
91 1 20.4415 7.8621 4.71726 -8.94964
92 1 22.0139 9.43453 3.14484 -8.94963
93 1 3.14484 9.43453 3.14484 -8.94965
94 1 6.28967 9.43456 3.14482 -8.94978
95 1 9.43423 9.43423 3.14437 -8.949
96 1 12.5797 9.43416 3.14383 -8.95145
97 1 15.7242 9.43452 3.14481 -8.94988
98 1 18.8691 9.43453 3.14484 -8.94965
99 1 22.0139 1.75606e-16 6.28969 -8.94963
100 1 1.57242 1.57242 7.86211 -8.94963
101 1 3.14484 4.76011e-16 6.28969 -8.94963
102 1 4.71726 1.57242 7.86211 -8.94963
103 1 6.28968 -5.14872e-16 6.28968 -8.94965
104 1 7.86209 1.57236 7.86209 -8.94983
105 1 9.43453 -2.97462e-17 6.28968 -8.94964
106 1 11.007 1.57238 7.86209 -8.94967
107 1 12.5794 9.83452e-16 6.28968 -8.94964
108 1 14.1518 1.57241 7.8621 -8.94964
109 1 15.7242 5.89028e-16 6.28969 -8.94963
110 1 17.2966 1.57242 7.86211 -8.94963
111 1 18.8691 3.68383e-16 6.28969 -8.94963
112 1 20.4415 1.57242 7.86211 -8.94963
113 1 2.52682e-07 3.14484 6.28969 -8.94963
114 1 1.57242 4.71726 7.86211 -8.94963
115 1 3.14485 3.14485 6.28969 -8.94968
116 1 4.71726 4.71727 7.86211 -8.94986
117 1 6.28964 3.14476 6.28964 -8.94967
118 1 7.86175 4.71624 7.86176 -8.95161
119 1 9.43454 3.1448 6.28967 -8.9496
120 1 11.0071 4.71669 7.86172 -8.94829
121 1 12.5794 3.14478 6.28966 -8.94974
122 1 14.1519 4.71714 7.86202 -8.94928
123 1 15.7242 3.14484 6.28968 -8.94961
124 1 17.2966 4.71728 7.86212 -8.94973
125 1 18.8691 3.14484 6.28969 -8.94964
126 1 20.4415 4.71726 7.86211 -8.94963
127 1 22.0139 6.28969 6.28969 -8.94964
128 1 1.57237 7.8621 7.8621 -8.94983
129 1 3.14476 6.28965 6.28965 -8.9497
130 1 4.71629 7.86183 7.86183 -8.95189
131 1 6.28859 6.28859 6.28856 -8.94321
132 1 7.84896 7.84973 7.84953 -8.88092
133 1 9.43472 6.28912 6.28951 -8.95161
134 1 11.0098 7.85973 7.85721 -8.98368
135 1 12.5797 6.28876 6.28942 -8.95199
136 1 14.1534 7.86137 7.86055 -8.98337
137 1 15.7243 6.28961 6.28962 -8.94949
138 1 17.2966 7.86217 7.86219 -8.9502
139 1 18.8691 6.28969 6.28969 -8.94968
140 1 20.4415 7.86211 7.86211 -8.94964
141 1 6.44033e-07 9.43453 6.28968 -8.94966
142 1 3.14479 9.43453 6.28966 -8.94961
143 1 6.28911 9.43472 6.28939 -8.95008
144 1 9.42933 9.42805 6.28711 -8.96208
145 1 12.5931 9.4218 6.27784 -8.93383
146 1 15.7256 9.43399 6.28903 -8.9506
147 1 18.8691 9.43451 6.28966 -8.94988
148 1 -1.22266e-08 9.66903e-16 9.43453 -8.94963
149 1 3.14484 2.46854e-16 9.43453 -8.94963
150 1 6.28968 -9.2477e-17 9.43453 -8.94964
151 1 9.43453 3.3905e-16 9.43453 -8.94991
152 1 12.5794 9.28954e-16 9.43453 -8.94973
153 1 15.7242 -3.75392e-16 9.43453 -8.94962
154 1 18.8691 1.40366e-16 9.43453 -8.94963
155 1 22.0139 3.14484 9.43453 -8.94963
156 1 3.14484 3.14484 9.43453 -8.94966
157 1 6.28966 3.14479 9.43453 -8.94955
158 1 9.43456 3.14427 9.43453 -8.95144
183 1 1.57242 4.71726 11.007 -8.94963
177 1 4.71726 1.57242 11.0069 -8.94963
181 1 17.2966 1.57242 11.0069 -8.94963
184 1 4.71726 4.71727 11.007 -8.94986
3 1 3.14484 6.77857e-17 1.78878e-08 -8.94963
11 1 15.7242 4.72116e-16 2.493e-08 -8.94963
29 1 22.0139 6.28969 1.45391e-08 -8.94963
37 1 12.5794 6.28969 1.87458e-06 -8.94963
176 1 1.57242 1.57242 11.007 -8.94963
48 1 15.7242 9.43453 22.0139 -8.94964
178 1 7.86209 1.57236 11.007 -8.94983
179 1 11.007 1.57238 11.007 -8.94967
180 1 14.1518 1.57241 11.007 -8.94964
47 1 12.5794 9.43451 22.0138 -8.94982
343 1 18.8691 9.43453 18.8691 -8.94963
342 1 15.7242 9.43453 18.8691 -8.94964
46 1 9.43451 9.43451 22.0139 -8.94967
185 1 7.86175 4.71624 11.0073 -8.95161
186 1 11.0071 4.71669 11.0073 -8.94829
187 1 14.1519 4.71714 11.007 -8.94928
188 1 17.2966 4.71728 11.0069 -8.94973
189 1 20.4415 4.71726 11.007 -8.94963
190 1 1.57237 7.8621 11.007 -8.94983
191 1 4.71629 7.86183 11.0072 -8.95189
192 1 7.84896 7.84973 11.0195 -8.88092
341 1 12.5794 9.43451 18.8691 -8.94982
340 1 9.43451 9.43451 18.8691 -8.94967
339 1 6.28969 9.43453 18.8691 -8.94964
338 1 3.14484 9.43453 18.8691 -8.94963
197 1 22.0139 4.75563e-16 12.5794 -8.94963
198 1 1.57242 1.57242 14.1518 -8.94964
199 1 3.14484 4.69698e-16 12.5794 -8.94963
200 1 4.71726 1.57242 14.1518 -8.94962
201 1 6.28968 -5.58744e-16 12.5794 -8.94965
202 1 7.86211 1.57242 14.1518 -8.94963
203 1 9.43453 1.00254e-16 12.5794 -8.94964
204 1 11.007 1.57242 14.1518 -8.94964
205 1 12.5794 8.12203e-16 12.5794 -8.94964
206 1 14.1518 1.57242 14.1518 -8.94964
207 1 15.7242 4.6424e-16 12.5794 -8.94963
208 1 17.2966 1.57242 14.1518 -8.94963
209 1 18.8691 5.00994e-16 12.5794 -8.94963
210 1 20.4415 1.57242 14.1518 -8.94963
211 1 2.52682e-07 3.14484 12.5794 -8.94963
212 1 1.57242 4.71726 14.1518 -8.94963
213 1 3.14485 3.14485 12.5794 -8.94968
214 1 4.7172 4.7172 14.1519 -8.94913
215 1 6.28964 3.14476 12.5794 -8.94967
216 1 7.86212 4.71727 14.1518 -8.94997
217 1 9.43454 3.1448 12.5794 -8.9496
218 1 11.0069 4.71724 14.1518 -8.94961
219 1 12.5794 3.14478 12.5794 -8.94974
220 1 14.1518 4.71719 14.1518 -8.94975
221 1 15.7242 3.14484 12.5794 -8.94961
222 1 17.2966 4.71726 14.1518 -8.94965
223 1 18.8691 3.14484 12.5794 -8.94964
224 1 20.4415 4.71727 14.1518 -8.94964
225 1 22.0139 6.28969 12.5794 -8.94964
226 1 1.57242 7.86211 14.1518 -8.94963
227 1 3.14476 6.28965 12.5794 -8.9497
228 1 4.71726 7.86211 14.1518 -8.94994
229 1 6.28859 6.28859 12.5805 -8.94321
230 1 7.86168 7.86169 14.1529 -8.95086
231 1 9.43472 6.28912 12.5795 -8.95161
232 1 11.0068 7.86191 14.1523 -8.95201
233 1 12.5797 6.28876 12.5796 -8.95199
234 1 14.1529 7.861 14.153 -8.94362
235 1 15.7243 6.28961 12.5794 -8.94949
236 1 17.2967 7.86204 14.1519 -8.94955
237 1 18.8691 6.28969 12.5794 -8.94968
238 1 20.4415 7.8621 14.1518 -8.94964
239 1 6.44033e-07 9.43453 12.5794 -8.94966
240 1 3.14479 9.43453 12.5794 -8.94961
241 1 6.28911 9.43472 12.5797 -8.95008
242 1 9.42933 9.42805 12.5819 -8.96208
243 1 12.5931 9.4218 12.5912 -8.93383
244 1 15.7256 9.43399 12.58 -8.9506
245 1 18.8691 9.43451 12.5794 -8.94988
246 1 1.76963e-08 9.30878e-16 15.7242 -8.94963
247 1 1.57242 1.57242 17.2966 -8.94963
248 1 3.14484 6.07245e-17 15.7242 -8.94963
249 1 4.71726 1.57242 17.2966 -8.94964
250 1 6.28969 -6.92723e-16 15.7242 -8.94963
251 1 7.86211 1.57242 17.2966 -8.94963
252 1 9.43453 -1.06519e-16 15.7242 -8.94964
253 1 11.007 1.57242 17.2966 -8.94963
254 1 12.5794 6.69635e-16 15.7242 -8.94963
255 1 14.1518 1.57242 17.2966 -8.94963
256 1 15.7242 7.91871e-16 15.7242 -8.94963
257 1 17.2966 1.57242 17.2966 -8.94963
258 1 18.8691 -1.01731e-15 15.7242 -8.94963
259 1 20.4415 1.57242 17.2966 -8.94963
260 1 22.0139 3.14484 15.7242 -8.94963
261 1 1.57242 4.71726 17.2966 -8.94964
262 1 3.14484 3.14484 15.7242 -8.9496
263 1 4.71726 4.71726 17.2966 -8.94962
264 1 6.28969 3.14485 15.7242 -8.94968
265 1 7.86211 4.71726 17.2966 -8.94964
266 1 9.43453 3.14484 15.7242 -8.94965
267 1 11.007 4.71726 17.2966 -8.94964
268 1 12.5794 3.14484 15.7242 -8.94963
269 1 14.1518 4.71727 17.2966 -8.94968
270 1 15.7242 3.14484 15.7242 -8.94963
271 1 17.2966 4.71726 17.2966 -8.9496
272 1 18.8691 3.14484 15.7242 -8.94963
273 1 20.4415 4.71726 17.2966 -8.94963
274 1 5.97384e-07 6.28969 15.7242 -8.94963
275 1 1.57242 7.86211 17.2966 -8.94963
276 1 3.14484 6.28969 15.7242 -8.94967
277 1 4.71726 7.86211 17.2966 -8.94965
278 1 6.28965 6.28965 15.7243 -8.94964
279 1 7.86208 7.86208 17.2967 -8.94976
280 1 9.43453 6.28965 15.7242 -8.94958
281 1 11.0069 7.8621 17.2967 -8.94963
282 1 12.5794 6.28969 15.7242 -8.94992
283 1 14.1518 7.86206 17.2967 -8.94969
284 1 15.7243 6.28962 15.7243 -8.94914
285 1 17.2966 7.86211 17.2966 -8.94967
286 1 18.8691 6.28968 15.7242 -8.94961
287 1 20.4415 7.86211 17.2966 -8.94963
288 1 22.0139 9.43453 15.7242 -8.94963
289 1 3.14484 9.43453 15.7242 -8.94965
290 1 6.28967 9.43456 15.7242 -8.94978
291 1 9.43423 9.43423 15.7247 -8.949
292 1 12.5797 9.43416 15.7252 -8.95145
293 1 15.7242 9.43452 15.7243 -8.94988
294 1 18.8691 9.43453 15.7242 -8.94965
295 1 22.0139 1.40411e-16 18.8691 -8.94963
296 1 1.57242 1.57242 20.4415 -8.94963
297 1 3.14484 4.38588e-16 18.8691 -8.94963
298 1 4.71726 1.57242 20.4415 -8.94963
299 1 6.28969 -2.60871e-16 18.8691 -8.94963
300 1 7.86211 1.57242 20.4415 -8.94963
301 1 9.43453 -9.21244e-16 18.8691 -8.94963
302 1 11.007 1.57242 20.4415 -8.94963
303 1 12.5794 8.88863e-16 18.8691 -8.94963
304 1 14.1518 1.57242 20.4415 -8.94963
305 1 15.7242 4.97371e-16 18.8691 -8.94963
306 1 17.2966 1.57242 20.4415 -8.94963
307 1 18.8691 2.92002e-16 18.8691 -8.94963
308 1 20.4415 1.57242 20.4415 -8.94963
309 1 2.17108e-08 3.14484 18.8691 -8.94963
310 1 1.57242 4.71726 20.4415 -8.94963
311 1 3.14484 3.14484 18.8691 -8.94963
312 1 4.71726 4.71726 20.4415 -8.94963
313 1 6.28969 3.14484 18.8691 -8.94963
314 1 7.86211 4.71726 20.4415 -8.94963
315 1 9.43453 3.14484 18.8691 -8.94963
316 1 11.007 4.71726 20.4415 -8.94963
317 1 12.5794 3.14484 18.8691 -8.94963
318 1 14.1518 4.71726 20.4415 -8.94963
319 1 15.7242 3.14484 18.8691 -8.94964
320 1 17.2966 4.71726 20.4415 -8.94963
321 1 18.8691 3.14484 18.8691 -8.94963
322 1 20.4415 4.71726 20.4415 -8.94963
323 1 22.0139 6.28969 18.8691 -8.94963
324 1 1.57242 7.86211 20.4415 -8.94963
325 1 3.14484 6.28969 18.8691 -8.94963
326 1 4.71726 7.86211 20.4415 -8.94963
327 1 6.28968 6.28968 18.8691 -8.94964
328 1 7.8621 7.8621 20.4415 -8.94965
329 1 9.43453 6.28969 18.8691 -8.94963
330 1 11.0069 7.86211 20.4415 -8.94964
331 1 12.5794 6.28969 18.8691 -8.94963
332 1 14.1518 7.8621 20.4415 -8.94965
333 1 15.7242 6.28968 18.8691 -8.94962
334 1 17.2966 7.86211 20.4415 -8.94963
335 1 18.8691 6.28969 18.8691 -8.94964
336 1 20.4415 7.86211 20.4415 -8.94963
337 1 -5.17034e-09 9.43453 18.8691 -8.94963
45 1 6.28969 9.43453 22.0139 -8.94964
5 1 6.28969 -2.67118e-16 22.0139 -8.94963
9 1 12.5794 8.41027e-16 22.0139 -8.94963
43 1 -5.17034e-09 9.43453 22.0139 -8.94963
15 1 2.17108e-08 3.14484 22.0139 -8.94963
17 1 3.14484 3.14484 22.0139 -8.94963
19 1 6.28969 3.14484 22.0139 -8.94963
25 1 15.7242 3.14484 22.0139 -8.94964
41 1 18.8691 6.28969 22.0139 -8.94964
31 1 3.14484 6.28969 22.0139 -8.94963
13 1 18.8691 2.08291e-16 22.0139 -8.94963
23 1 12.5794 3.14484 22.0139 -8.94963
39 1 15.7242 6.28968 22.0139 -8.94962
182 1 20.4415 1.57242 11.007 -8.94963
193 1 11.0098 7.85973 11.0118 -8.98368
344 1 1.57242 11.007 1.57242 -8.94963
345 1 4.71726 11.007 1.57242 -8.94962
346 1 7.86211 11.007 1.57242 -8.94958
347 1 11.0069 11.007 1.57184 -8.95131
348 1 14.1518 11.007 1.57235 -8.94965
349 1 17.2966 11.007 1.57242 -8.94965
350 1 20.4415 11.007 1.57242 -8.94963
688 3 10.2351 11.007 9.43453 2.62654
352 1 1.57242 14.1518 1.57242 -8.94963
353 1 3.14484 12.5794 1.0861e-08 -8.94963
354 1 4.71726 14.1518 1.57242 -8.94965
687 2 11.7766 11.007 9.43453 0.442357
356 1 7.86208 14.1518 1.57235 -8.94976
511 1 18.8691 18.8691 9.43453 -8.94963
358 1 11.0069 14.1518 1.57239 -8.94963
510 1 15.7242 18.869 9.43453 -8.94957
360 1 14.1518 14.1518 1.57233 -8.94969
509 1 12.5794 18.8692 9.43453 -8.95056
362 1 17.2966 14.1518 1.57242 -8.94967
363 1 18.8691 12.5794 1.12272e-07 -8.94963
364 1 20.4415 14.1518 1.57242 -8.94963
508 1 9.43456 18.8696 9.43453 -8.95144
366 1 1.57242 17.2966 1.57242 -8.94964
507 1 6.28966 18.8691 9.43453 -8.94955
368 1 4.71726 17.2966 1.57242 -8.94962
369 1 6.28968 15.7242 -4.96241e-06 -8.94964
370 1 7.86211 17.2966 1.57242 -8.94964
371 1 9.43453 15.7242 -5.67247e-07 -8.94963
372 1 11.007 17.2966 1.57242 -8.94964
506 1 3.14484 18.8691 9.43453 -8.94966
374 1 14.1518 17.2966 1.57242 -8.94968
526 1 1.57242 17.2966 11.007 -8.94963
376 1 17.2966 17.2966 1.57242 -8.9496
505 1 22.0139 18.8691 9.43453 -8.94963
378 1 20.4415 17.2966 1.57242 -8.94963
504 1 18.8691 15.7242 9.43453 -8.94956
380 1 1.57242 20.4415 1.57242 -8.94963
503 1 15.724 15.724 9.43453 -8.95009
382 1 4.71726 20.4415 1.57242 -8.94964
502 1 12.5792 15.7276 9.43453 -8.96084
384 1 7.86211 20.4415 1.57242 -8.94963
385 1 9.43453 18.8691 4.04535e-08 -8.94963
386 1 11.007 20.4415 1.57242 -8.94963
525 1 20.4415 14.1518 11.0069 -8.94964
388 1 14.1518 20.4415 1.57242 -8.94963
501 1 9.43404 15.7313 9.43453 -8.98143
390 1 17.2966 20.4415 1.57242 -8.94963
391 1 18.8691 18.8691 -7.8395e-08 -8.94963
392 1 20.4415 20.4415 1.57242 -8.94963
393 1 1.57242 11.007 4.71726 -8.94963
394 1 4.71725 11.007 4.71722 -8.94933
395 1 7.86232 11.007 4.71726 -8.95169
396 1 11.0074 11.007 4.71073 -8.98745
397 1 14.1524 11.007 4.71633 -8.95153
398 1 17.2967 11.007 4.71724 -8.94956
399 1 20.4415 11.007 4.71726 -8.94963
400 1 22.0139 12.5794 3.14484 -8.94963
401 1 1.57242 14.1518 4.71726 -8.94963
402 1 3.14484 12.5794 3.14484 -8.94965
403 1 4.71726 14.1518 4.71726 -8.94994
404 1 6.28967 12.5793 3.14482 -8.94978
405 1 7.86168 14.1522 4.7162 -8.95086
406 1 9.43423 12.5797 3.14437 -8.949
407 1 11.0068 14.152 4.71676 -8.95201
408 1 12.5797 12.5797 3.14383 -8.95145
409 1 14.1529 14.1529 4.71609 -8.94362
410 1 15.7242 12.5794 3.14481 -8.94988
411 1 17.2967 14.1519 4.71721 -8.94955
412 1 18.8691 12.5794 3.14484 -8.94965
413 1 20.4415 14.1518 4.71726 -8.94964
414 1 5.97384e-07 15.7242 3.14484 -8.94963
415 1 1.57242 17.2966 4.71726 -8.94963
416 1 3.14484 15.7242 3.14485 -8.94967
417 1 4.7172 17.2967 4.7172 -8.94913
418 1 6.28965 15.7243 3.14476 -8.94964
419 1 7.86212 17.2966 4.71727 -8.94997
420 1 9.43453 15.7242 3.14482 -8.94958
421 1 11.0069 17.2967 4.71723 -8.94961
422 1 12.5794 15.7242 3.14485 -8.94992
423 1 14.1518 17.2967 4.71723 -8.94975
424 1 15.7243 15.7243 3.14477 -8.94914
425 1 17.2966 17.2966 4.71726 -8.94965
426 1 18.8691 15.7242 3.14484 -8.94961
427 1 20.4415 17.2966 4.71726 -8.94964
428 1 22.0139 18.8691 3.14484 -8.94963
429 1 1.57242 20.4415 4.71726 -8.94964
430 1 3.14484 18.8691 3.14484 -8.9496
431 1 4.71726 20.4415 4.71726 -8.94962
432 1 6.28969 18.8691 3.14485 -8.94968
433 1 7.86211 20.4415 4.71727 -8.94963
434 1 9.43453 18.8691 3.14484 -8.94965
435 1 11.007 20.4415 4.71726 -8.94964
436 1 12.5794 18.8691 3.14484 -8.94963
437 1 14.1518 20.4415 4.71726 -8.94964
438 1 15.7242 18.8691 3.14484 -8.94963
439 1 17.2966 20.4415 4.71726 -8.94963
440 1 18.8691 18.8691 3.14484 -8.94963
441 1 20.4415 20.4415 4.71726 -8.94963
442 1 1.57238 11.007 7.86209 -8.94963
443 1 4.71681 11.007 7.86175 -8.94739
444 1 7.8629 11.007 7.86118 -8.96034
445 1 11.0642 11.007 7.66527 -8.29256
446 1 14.1626 11.007 7.8571 -9.00469
447 1 17.2974 11.007 7.8621 -8.95238
448 1 20.4415 11.007 7.86211 -8.94986
449 1 6.44033e-07 12.5794 6.28968 -8.94966
450 1 1.57237 14.1518 7.8621 -8.94983
451 1 3.14479 12.5794 6.28966 -8.94961
452 1 4.71629 14.1521 7.86183 -8.95189
453 1 6.28911 12.5792 6.28939 -8.95008
454 1 7.84896 14.1642 7.84953 -8.88092
455 1 9.42933 12.5859 6.28711 -8.96208
456 1 11.0098 14.1542 7.85721 -8.98368
457 1 12.5931 12.5921 6.27784 -8.93383
458 1 14.1534 14.1525 7.86055 -8.98337
459 1 15.7256 12.5799 6.28903 -8.9506
460 1 17.2966 14.1517 7.86219 -8.9502
461 1 18.8691 12.5794 6.28966 -8.94988
462 1 20.4415 14.1518 7.86211 -8.94964
463 1 22.0139 15.7242 6.28969 -8.94964
464 1 1.57242 17.2966 7.86211 -8.94963
465 1 3.14476 15.7243 6.28965 -8.9497
466 1 4.71726 17.2966 7.86211 -8.94986
467 1 6.28859 15.7253 6.28856 -8.94321
468 1 7.86175 17.2977 7.86176 -8.95161
469 1 9.43472 15.7248 6.28951 -8.95161
470 1 11.0071 17.2972 7.86172 -8.94829
471 1 12.5797 15.7251 6.28942 -8.95199
472 1 14.1519 17.2968 7.86202 -8.94928
473 1 15.7243 15.7243 6.28962 -8.94949
474 1 17.2966 17.2966 7.86212 -8.94973
475 1 18.8691 15.7242 6.28969 -8.94968
476 1 20.4415 17.2966 7.86211 -8.94963
477 1 2.52682e-07 18.8691 6.28969 -8.94963
478 1 1.57242 20.4415 7.86211 -8.94963
479 1 3.14485 18.8691 6.28969 -8.94968
480 1 4.71726 20.4415 7.86211 -8.94963
481 1 6.28964 18.8691 6.28964 -8.94967
482 1 7.86209 20.4415 7.86209 -8.94983
483 1 9.43454 18.8691 6.28967 -8.9496
484 1 11.007 20.4415 7.86209 -8.94967
485 1 12.5794 18.8691 6.28966 -8.94974
486 1 14.1518 20.4415 7.8621 -8.94964
487 1 15.7242 18.8691 6.28968 -8.94961
488 1 17.2966 20.4415 7.86211 -8.94963
489 1 18.8691 18.8691 6.28969 -8.94964
490 1 20.4415 20.4415 7.86211 -8.94963
491 1 22.0139 12.5794 9.43453 -8.94972
492 1 3.14443 12.5793 9.43453 -8.95123
493 1 6.2832 12.5804 9.43453 -8.96726
494 1 9.35539 12.7465 9.43453 -8.10881
495 1 12.5986 12.6184 9.43453 -9.16777
496 1 15.7238 12.5786 9.43453 -8.99732
497 1 18.8691 12.5794 9.43453 -8.94924
498 1 -2.48075e-06 15.7242 9.43453 -8.94964
499 1 3.1448 15.7242 9.43453 -8.94956
500 1 6.28915 15.7248 9.43453 -8.9502
517 1 17.2974 11.007 11.007 -8.95238
518 1 20.4415 11.007 11.0069 -8.94986
524 1 17.2966 14.1517 11.0069 -8.9502
523 1 14.1534 14.1525 11.0085 -8.98337
527 1 4.71726 17.2966 11.007 -8.94986
534 1 4.71726 20.4415 11.0069 -8.94963
538 1 17.2966 20.4415 11.0069 -8.94963
365 1 22.0139 15.7242 1.45391e-08 -8.94963
373 1 12.5794 15.7242 1.87458e-06 -8.94963
512 1 1.57238 11.007 11.007 -8.94963
513 1 4.71681 11.007 11.0073 -8.94739
514 1 7.8629 11.007 11.0079 -8.96034
515 1 11.0642 11.007 11.2038 -8.29256
516 1 14.1626 11.007 11.012 -9.00469
686 1 20.4415 20.4415 20.4415 -8.94963
685 1 18.8691 18.8691 18.8691 -8.94963
519 1 1.57237 14.1518 11.007 -8.94983
520 1 4.71629 14.1521 11.0072 -8.95189
521 1 7.84896 14.1642 11.0195 -8.88092
684 1 17.2966 20.4415 20.4415 -8.94963
683 1 15.7242 18.8691 18.8691 -8.94964
682 1 14.1518 20.4415 20.4415 -8.94963
681 1 12.5794 18.8691 18.8691 -8.94963
680 1 11.007 20.4415 20.4415 -8.94963
389 1 15.7242 18.8691 22.0139 -8.94964
528 1 7.86175 17.2977 11.0073 -8.95161
529 1 11.0071 17.2972 11.0073 -8.94829
530 1 14.1519 17.2968 11.007 -8.94928
531 1 17.2966 17.2966 11.0069 -8.94973
532 1 20.4415 17.2966 11.007 -8.94963
533 1 1.57242 20.4415 11.007 -8.94963
383 1 6.28969 18.8691 22.0139 -8.94963
535 1 7.86209 20.4415 11.007 -8.94983
536 1 11.007 20.4415 11.007 -8.94967
537 1 14.1518 20.4415 11.007 -8.94964
381 1 3.14484 18.8691 22.0139 -8.94963
679 1 9.43453 18.8691 18.8691 -8.94963
540 1 1.57242 11.007 14.1518 -8.94963
541 1 4.71725 11.007 14.1518 -8.94933
542 1 7.86232 11.007 14.1518 -8.95169
543 1 11.0074 11.007 14.1583 -8.98745
544 1 14.1524 11.007 14.1527 -8.95153
545 1 17.2967 11.007 14.1518 -8.94956
546 1 20.4415 11.007 14.1518 -8.94963
547 1 6.44033e-07 12.5794 12.5794 -8.94966
548 1 1.57242 14.1518 14.1518 -8.94963
549 1 3.14479 12.5794 12.5794 -8.94961
550 1 4.71726 14.1518 14.1518 -8.94994
551 1 6.28911 12.5792 12.5797 -8.95008
552 1 7.86168 14.1522 14.1529 -8.95086
553 1 9.42933 12.5859 12.5819 -8.96208
554 1 11.0068 14.152 14.1523 -8.95201
555 1 12.5931 12.5921 12.5912 -8.93383
556 1 14.1529 14.1529 14.153 -8.94362
557 1 15.7256 12.5799 12.58 -8.9506
558 1 17.2967 14.1519 14.1519 -8.94955
559 1 18.8691 12.5794 12.5794 -8.94988
560 1 20.4415 14.1518 14.1518 -8.94964
561 1 22.0139 15.7242 12.5794 -8.94964
562 1 1.57242 17.2966 14.1518 -8.94963
563 1 3.14476 15.7243 12.5794 -8.9497
564 1 4.7172 17.2967 14.1519 -8.94913
565 1 6.28859 15.7253 12.5805 -8.94321
566 1 7.86212 17.2966 14.1518 -8.94997
567 1 9.43472 15.7248 12.5795 -8.95161
568 1 11.0069 17.2967 14.1518 -8.94961
569 1 12.5797 15.7251 12.5796 -8.95199
570 1 14.1518 17.2967 14.1518 -8.94975
571 1 15.7243 15.7243 12.5794 -8.94949
572 1 17.2966 17.2966 14.1518 -8.94965
573 1 18.8691 15.7242 12.5794 -8.94968
574 1 20.4415 17.2966 14.1518 -8.94964
575 1 2.52682e-07 18.8691 12.5794 -8.94963
576 1 1.57242 20.4415 14.1518 -8.94964
577 1 3.14485 18.8691 12.5794 -8.94968
578 1 4.71726 20.4415 14.1518 -8.94962
579 1 6.28964 18.8691 12.5794 -8.94967
580 1 7.86211 20.4415 14.1518 -8.94963
581 1 9.43454 18.8691 12.5794 -8.9496
582 1 11.007 20.4415 14.1518 -8.94964
583 1 12.5794 18.8691 12.5794 -8.94974
584 1 14.1518 20.4415 14.1518 -8.94964
585 1 15.7242 18.8691 12.5794 -8.94961
586 1 17.2966 20.4415 14.1518 -8.94963
587 1 18.8691 18.8691 12.5794 -8.94964
588 1 20.4415 20.4415 14.1518 -8.94963
589 1 1.57242 11.007 17.2966 -8.94963
590 1 4.71726 11.007 17.2966 -8.94962
591 1 7.86211 11.007 17.2966 -8.94958
592 1 11.0069 11.007 17.2972 -8.95131
593 1 14.1518 11.007 17.2967 -8.94965
594 1 17.2966 11.007 17.2966 -8.94965
595 1 20.4415 11.007 17.2966 -8.94963
596 1 22.0139 12.5794 15.7242 -8.94963
597 1 1.57242 14.1518 17.2966 -8.94963
598 1 3.14484 12.5794 15.7242 -8.94965
599 1 4.71726 14.1518 17.2966 -8.94965
600 1 6.28967 12.5793 15.7242 -8.94978
601 1 7.86208 14.1518 17.2967 -8.94976
602 1 9.43423 12.5797 15.7247 -8.949
603 1 11.0069 14.1518 17.2967 -8.94963
604 1 12.5797 12.5797 15.7252 -8.95145
605 1 14.1518 14.1518 17.2967 -8.94969
606 1 15.7242 12.5794 15.7243 -8.94988
607 1 17.2966 14.1518 17.2966 -8.94967
608 1 18.8691 12.5794 15.7242 -8.94965
609 1 20.4415 14.1518 17.2966 -8.94963
610 1 5.97384e-07 15.7242 15.7242 -8.94963
611 1 1.57242 17.2966 17.2966 -8.94964
612 1 3.14484 15.7242 15.7242 -8.94967
613 1 4.71726 17.2966 17.2966 -8.94962
614 1 6.28965 15.7243 15.7243 -8.94964
615 1 7.86211 17.2966 17.2966 -8.94964
616 1 9.43453 15.7242 15.7242 -8.94958
617 1 11.007 17.2966 17.2966 -8.94964
618 1 12.5794 15.7242 15.7242 -8.94992
619 1 14.1518 17.2966 17.2966 -8.94968
620 1 15.7243 15.7243 15.7243 -8.94914
621 1 17.2966 17.2966 17.2966 -8.9496
622 1 18.8691 15.7242 15.7242 -8.94961
623 1 20.4415 17.2966 17.2966 -8.94963
624 1 22.0139 18.8691 15.7242 -8.94963
625 1 1.57242 20.4415 17.2966 -8.94963
626 1 3.14484 18.8691 15.7242 -8.9496
627 1 4.71726 20.4415 17.2966 -8.94964
628 1 6.28969 18.8691 15.7242 -8.94968
629 1 7.86211 20.4415 17.2966 -8.94963
630 1 9.43453 18.8691 15.7242 -8.94965
631 1 11.007 20.4415 17.2966 -8.94963
632 1 12.5794 18.8691 15.7242 -8.94963
633 1 14.1518 20.4415 17.2966 -8.94963
634 1 15.7242 18.8691 15.7242 -8.94963
635 1 17.2966 20.4415 17.2966 -8.94963
636 1 18.8691 18.8691 15.7242 -8.94963
637 1 20.4415 20.4415 17.2966 -8.94963
638 1 1.57242 11.007 20.4415 -8.94963
639 1 4.71726 11.007 20.4415 -8.94963
640 1 7.86211 11.007 20.4415 -8.94963
641 1 11.0069 11.007 20.4415 -8.94992
642 1 14.1518 11.007 20.4415 -8.94965
643 1 17.2966 11.007 20.4415 -8.94963
644 1 20.4415 11.007 20.4415 -8.94963
645 1 -5.17034e-09 12.5794 18.8691 -8.94963
646 1 1.57242 14.1518 20.4415 -8.94963
647 1 3.14484 12.5794 18.8691 -8.94963
648 1 4.71726 14.1518 20.4415 -8.94963
649 1 6.28969 12.5794 18.8691 -8.94964
650 1 7.8621 14.1518 20.4415 -8.94965
651 1 9.43451 12.5794 18.8691 -8.94967
652 1 11.0069 14.1518 20.4415 -8.94964
653 1 12.5794 12.5794 18.8691 -8.94982
654 1 14.1518 14.1518 20.4415 -8.94965
655 1 15.7242 12.5794 18.8691 -8.94964
656 1 17.2966 14.1518 20.4415 -8.94963
657 1 18.8691 12.5794 18.8691 -8.94963
658 1 20.4415 14.1518 20.4415 -8.94963
659 1 22.0139 15.7242 18.8691 -8.94963
660 1 1.57242 17.2966 20.4415 -8.94963
661 1 3.14484 15.7242 18.8691 -8.94963
662 1 4.71726 17.2966 20.4415 -8.94963
663 1 6.28968 15.7242 18.8691 -8.94964
664 1 7.86211 17.2966 20.4415 -8.94963
665 1 9.43453 15.7242 18.8691 -8.94963
666 1 11.007 17.2966 20.4415 -8.94963
667 1 12.5794 15.7242 18.8691 -8.94963
668 1 14.1518 17.2966 20.4415 -8.94963
669 1 15.7242 15.7242 18.8691 -8.94962
670 1 17.2966 17.2966 20.4415 -8.94963
671 1 18.8691 15.7242 18.8691 -8.94964
672 1 20.4415 17.2966 20.4415 -8.94963
673 1 2.17108e-08 18.8691 18.8691 -8.94963
674 1 1.57242 20.4415 20.4415 -8.94963
675 1 3.14484 18.8691 18.8691 -8.94963
676 1 4.71726 20.4415 20.4415 -8.94963
677 1 6.28969 18.8691 18.8691 -8.94963
678 1 7.86211 20.4415 20.4415 -8.94963
351 1 -5.17034e-09 12.5794 22.0139 -8.94963
355 1 6.28969 12.5794 22.0139 -8.94964
357 1 9.43451 12.5794 22.0139 -8.94967
359 1 12.5794 12.5794 22.0138 -8.94982
361 1 15.7242 12.5794 22.0139 -8.94964
379 1 2.17108e-08 18.8691 22.0139 -8.94963
367 1 3.14484 15.7242 22.0139 -8.94963
377 1 18.8691 15.7242 22.0139 -8.94964
375 1 15.7242 15.7242 22.0139 -8.94962
539 1 20.4415 20.4415 11.007 -8.94963
387 1 12.5794 18.8691 22.0139 -8.94963
522 1 11.0098 14.1542 11.0118 -8.98368
