ITEM: TIMESTEP
63
ITEM: NUMBER OF ATOMS
688
ITEM: BOX BOUNDS pp pp pp
0.0000000000000000e+00 2.2013900999999997e+01
0.0000000000000000e+00 2.2013900999999997e+01
0.0000000000000000e+00 2.2013900999999997e+01
ITEM: ATOMS id type x y z c_pot
1 1 22.0138 -7.58525e-16 -6.5497e-05 -8.94942
2 1 1.57215 1.57225 1.57216 -8.94928
175 1 18.8697 9.43411 9.43453 -8.9465
4 1 4.71707 1.57217 1.57209 -8.94967
174 1 15.7201 9.43683 9.43453 -8.98757
6 1 7.86204 1.57215 1.57206 -8.94953
7 1 9.43452 1.00302e-15 -0.000145238 -8.9496
8 1 11.007 1.57213 1.57204 -8.94956
173 1 12.5909 9.39697 9.43453 -9.12884
10 1 14.1519 1.57214 1.57212 -8.94951
172 1 9.34966 9.21818 9.43453 -8.18844
12 1 17.2969 1.5721 1.57212 -8.94956
196 1 20.4417 7.86182 11.0069 -8.94989
14 1 20.4415 1.57231 1.57232 -8.94959
171 1 6.28034 9.42776 9.43453 -8.97387
16 1 1.57221 4.71712 1.57212 -8.94982
170 1 3.14211 9.43498 9.43453 -8.95135
18 1 4.71631 4.71638 1.57104 -8.94929
169 1 22.0134 9.43457 9.43453 -8.94946
20 1 7.86182 4.71647 1.57133 -8.94918
21 1 9.43449 3.14449 -0.000296056 -8.94957
22 1 11.0069 4.71636 1.57137 -8.94939
195 1 17.2984 7.86163 11.006 -8.95129
24 1 14.1522 4.7163 1.5714 -8.94964
168 1 18.8698 6.28889 9.43453 -8.94924
26 1 17.2978 4.71612 1.57135 -8.94818
27 1 18.8694 3.14454 -0.000206253 -8.94924
28 1 20.4418 4.71699 1.57214 -8.94954
167 1 15.7255 6.28797 9.43453 -8.94617
30 1 1.57226 7.86207 1.57213 -8.94945
166 1 12.5775 6.28209 9.43453 -8.96038
32 1 4.71687 7.86231 1.57182 -8.94961
33 1 6.28925 6.28935 -0.000847361 -8.95054
34 1 7.86154 7.86173 1.57011 -8.95244
35 1 9.43426 6.28909 -0.000812577 -8.94957
36 1 11.0066 7.8611 1.56983 -8.95031
165 1 9.42926 6.29248 9.43453 -8.99958
38 1 14.1533 7.86057 1.56879 -8.95179
194 1 14.1584 7.85745 11.0088 -8.9781
40 1 17.2978 7.86151 1.57124 -8.94925
164 1 6.27947 6.28008 9.43453 -8.94154
42 1 20.4418 7.86196 1.57208 -8.9495
163 1 3.14094 6.28771 9.43453 -8.94906
44 1 3.14459 9.43452 -0.000238274 -8.94958
162 1 -0.000766902 6.28919 9.43453 -8.94991
161 1 18.8693 3.14446 9.43453 -8.94962
160 1 15.725 3.14382 9.43453 -8.94914
159 1 12.5796 3.14273 9.43453 -8.95119
49 1 18.8695 9.43445 -0.000305225 -8.94954
50 1 -0.000103686 -2.89673e-16 3.14476 -8.94964
51 1 1.57209 1.57219 4.71707 -8.94957
52 1 3.14445 -9.51776e-17 3.14444 -8.94955
53 1 4.71655 1.57154 4.71654 -8.94995
54 1 6.28953 1.25021e-16 3.14443 -8.94957
55 1 7.86195 1.57153 4.71659 -8.94959
56 1 9.43455 4.58307e-16 3.14438 -8.94957
57 1 11.0072 1.57157 4.71659 -8.9496
58 1 12.5795 7.89811e-16 3.14443 -8.94952
59 1 14.1522 1.57159 4.7169 -8.95051
60 1 15.7245 1.69091e-15 3.14456 -8.94997
61 1 17.2969 1.57211 4.71713 -8.94963
62 1 18.8692 -8.44679e-16 3.14476 -8.94964
63 1 20.4415 1.57231 4.71722 -8.9496
64 1 22.0136 3.14458 3.1446 -8.94958
65 1 1.57126 4.71656 4.71654 -8.94967
66 1 3.14383 3.14394 3.14384 -8.94833
67 1 4.7136 4.71377 4.71366 -8.94471
68 1 6.2892 3.1438 3.14386 -8.94968
69 1 7.86098 4.71396 4.71489 -8.94936
70 1 9.43447 3.14377 3.1439 -8.94941
71 1 11.0073 4.71417 4.71502 -8.94795
72 1 12.5796 3.14372 3.14402 -8.94913
73 1 14.1541 4.71296 4.71488 -8.95067
74 1 15.7251 3.14346 3.14395 -8.94964
75 1 17.2978 4.7161 4.71674 -8.94981
76 1 18.8694 3.14445 3.14462 -8.94968
77 1 20.4415 4.71695 4.71711 -8.94987
78 1 8.43888e-05 6.28952 3.14454 -8.9498
79 1 1.57184 7.86216 4.71683 -8.94982
80 1 3.14398 6.28947 3.14404 -8.95035
81 1 4.71502 7.86215 4.71579 -8.95176
82 1 6.28684 6.28707 3.14046 -8.9493
83 1 7.85478 7.85473 4.70627 -8.9507
84 1 9.4339 6.28743 3.14191 -8.94776
85 1 11.0073 7.85675 4.70878 -8.95014
86 1 12.5801 6.28721 3.14176 -8.94872
87 1 14.1653 7.84903 4.70348 -8.92869
88 1 15.7283 6.28559 3.1407 -8.9442
89 1 17.3011 7.85985 4.71499 -8.95023
90 1 18.8704 6.28881 3.14399 -8.94953
91 1 20.4424 7.86175 4.71682 -8.95017
92 1 22.014 9.43445 3.14442 -8.94956
93 1 3.14414 9.43455 3.14408 -8.94902
94 1 6.28902 9.43522 3.14393 -8.94882
95 1 9.4344 9.4341 3.14243 -8.95199
96 1 12.5822 9.43282 3.13629 -8.95892
97 1 15.7278 9.43321 3.14103 -8.94776
98 1 18.8705 9.43422 3.1439 -8.94928
99 1 22.0138 1.02649e-15 6.28964 -8.94961
100 1 1.57205 1.57216 7.86204 -8.94957
101 1 3.14438 1.70048e-15 6.28947 -8.94945
102 1 4.71642 1.57147 7.86182 -8.94938
103 1 6.28931 8.4995e-16 6.28929 -8.95056
104 1 7.86192 1.57085 7.86199 -8.95136
105 1 9.43462 1.06346e-15 6.28922 -8.95018
106 1 11.0069 1.57151 7.86202 -8.94946
107 1 12.5795 8.06335e-16 6.28952 -8.95025
108 1 14.1523 1.57167 7.86203 -8.9497
109 1 15.7246 -1.80605e-16 6.28957 -8.94964
110 1 17.297 1.57214 7.86207 -8.94949
111 1 18.8692 -1.39155e-16 6.28965 -8.94956
112 1 20.4415 1.57229 7.86209 -8.94961
113 1 -0.000279112 3.14454 6.28956 -8.9495
114 1 1.57121 4.71649 7.86184 -8.94931
115 1 3.14379 3.14386 6.28916 -8.94928
116 1 4.71402 4.71408 7.86093 -8.9477
117 1 6.28817 3.14158 6.28827 -8.95144
118 1 7.85918 4.70926 7.86092 -8.95919
119 1 9.43454 3.14197 6.28853 -8.95035
120 1 11.0056 4.71442 7.86159 -8.94943
121 1 12.5797 3.14248 6.28937 -8.9522
122 1 14.1531 4.71456 7.86203 -8.94841
123 1 15.7249 3.14373 6.28951 -8.94951
124 1 17.2975 4.71649 7.86218 -8.94921
125 1 18.8693 3.14453 6.28966 -8.94954
126 1 20.4415 4.71685 7.86205 -8.94954
127 1 22.0133 6.28933 6.28942 -8.95017
128 1 1.57024 7.86184 7.86186 -8.95168
129 1 3.1411 6.28796 6.28792 -8.95079
130 1 4.70732 7.85863 7.8598 -8.95793
131 1 6.27741 6.27788 6.27838 -8.93048
132 1 7.82168 7.82561 7.83056 -8.85751
133 1 9.43332 6.28056 6.28502 -8.95228
134 1 11.0175 7.85569 7.84077 -8.9658
135 1 12.5844 6.27898 6.28437 -8.95583
136 1 14.1584 7.85745 7.86031 -8.9781
137 1 15.7274 6.28688 6.28861 -8.94988
138 1 17.2984 7.86163 7.86303 -8.95129
139 1 18.8699 6.28921 6.28974 -8.95012
140 1 20.4417 7.86182 7.86217 -8.94989
141 1 3.83133e-05 9.43454 6.2894 -8.95004
142 1 3.14323 9.43519 6.28909 -8.94987
143 1 6.28549 9.43691 6.28908 -8.9546
144 1 9.4141 9.4064 6.27905 -8.93576
145 1 12.6245 9.39623 6.25038 -8.89402
146 1 15.7365 9.43096 6.2844 -8.95638
147 1 18.8719 9.43414 6.28919 -8.95208
148 1 -0.00012553 1.69504e-15 9.43453 -8.94961
149 1 3.14434 1.64253e-15 9.43453 -8.94952
150 1 6.28908 1.47817e-15 9.43453 -8.95025
151 1 9.43469 1.57626e-15 9.43453 -8.94868
152 1 12.5796 1.40766e-15 9.43453 -8.95008
153 1 15.7246 -1.16404e-16 9.43453 -8.94958
154 1 18.8692 1.64109e-16 9.43453 -8.94961
155 1 22.0136 3.14451 9.43453 -8.94956
156 1 3.14374 3.14383 9.43453 -8.9495
157 1 6.28767 3.14135 9.43453 -8.94943
158 1 9.43441 3.14351 9.43453 -8.94633
183 1 1.57121 4.71649 11.0072 -8.94931
177 1 4.71642 1.57147 11.0072 -8.94938
181 1 17.297 1.57214 11.007 -8.94949
184 1 4.71402 4.71408 11.0081 -8.9477
3 1 3.14476 -8.1187e-16 -0.000111369 -8.94966
11 1 15.7243 1.84532e-15 -0.000104024 -8.9496
29 1 22.0139 6.28963 -0.000108169 -8.94957
37 1 12.5794 6.28907 -0.000841864 -8.94958
176 1 1.57205 1.57216 11.007 -8.94957
48 1 15.7251 9.43424 22.0128 -8.94948
178 1 7.86192 1.57085 11.0071 -8.95136
179 1 11.0069 1.57151 11.007 -8.94946
180 1 14.1523 1.57167 11.007 -8.9497
47 1 12.5794 9.43439 22.0123 -8.95143
343 1 18.8695 9.43445 18.8694 -8.94954
342 1 15.7251 9.43424 18.8701 -8.94948
46 1 9.4343 9.43458 22.0132 -8.9496
185 1 7.85918 4.70926 11.0081 -8.95919
186 1 11.0056 4.71442 11.0075 -8.94943
187 1 14.1531 4.71456 11.007 -8.94841
188 1 17.2975 4.71649 11.0069 -8.94921
189 1 20.4415 4.71685 11.007 -8.94954
190 1 1.57024 7.86184 11.0072 -8.95168
191 1 4.70732 7.85863 11.0093 -8.95793
192 1 7.82168 7.82561 11.0385 -8.85751
341 1 12.5794 9.43439 18.8707 -8.95143
340 1 9.4343 9.43458 18.8698 -8.9496
339 1 6.28934 9.43463 18.8694 -8.94938
338 1 3.14459 9.43452 18.8693 -8.94958
197 1 22.0138 1.71457e-15 12.5794 -8.94961
198 1 1.57209 1.57219 14.152 -8.94957
199 1 3.14438 1.6742e-15 12.5796 -8.94945
200 1 4.71655 1.57154 14.1525 -8.94995
201 1 6.28931 1.63943e-15 12.5798 -8.95056
202 1 7.86195 1.57153 14.1525 -8.94959
203 1 9.43462 1.61354e-15 12.5798 -8.95018
204 1 11.0072 1.57157 14.1525 -8.9496
205 1 12.5795 1.82651e-15 12.5795 -8.95025
206 1 14.1522 1.57159 14.1522 -8.95051
207 1 15.7246 -1.72993e-16 12.5795 -8.94964
208 1 17.2969 1.57211 14.1519 -8.94963
209 1 18.8692 2.67967e-17 12.5794 -8.94956
210 1 20.4415 1.57231 14.1518 -8.9496
211 1 -0.000279112 3.14454 12.5795 -8.9495
212 1 1.57126 4.71656 14.1525 -8.94967
213 1 3.14379 3.14386 12.5799 -8.94928
214 1 4.7136 4.71377 14.1554 -8.94471
215 1 6.28817 3.14158 12.5808 -8.95144
216 1 7.86098 4.71396 14.1542 -8.94936
217 1 9.43454 3.14197 12.5805 -8.95035
218 1 11.0073 4.71417 14.154 -8.94795
219 1 12.5797 3.14248 12.5797 -8.9522
220 1 14.1541 4.71296 14.1542 -8.95067
221 1 15.7249 3.14373 12.5795 -8.94951
222 1 17.2978 4.7161 14.1523 -8.94981
223 1 18.8693 3.14453 12.5794 -8.94954
224 1 20.4415 4.71695 14.152 -8.94987
225 1 22.0133 6.28933 12.5796 -8.95017
226 1 1.57184 7.86216 14.1522 -8.94982
227 1 3.1411 6.28796 12.5811 -8.95079
228 1 4.71502 7.86215 14.1533 -8.95176
229 1 6.27741 6.27788 12.5907 -8.93048
230 1 7.85478 7.85473 14.1628 -8.9507
231 1 9.43332 6.28056 12.584 -8.95228
232 1 11.0073 7.85675 14.1603 -8.95014
233 1 12.5844 6.27898 12.5847 -8.95583
234 1 14.1653 7.84903 14.1656 -8.92869
235 1 15.7274 6.28688 12.5805 -8.94988
236 1 17.3011 7.85985 14.1541 -8.95023
237 1 18.8699 6.28921 12.5793 -8.95012
238 1 20.4424 7.86175 14.1522 -8.95017
239 1 3.83133e-05 9.43454 12.5797 -8.95004
240 1 3.14323 9.43519 12.58 -8.94987
241 1 6.28549 9.43691 12.58 -8.9546
242 1 9.4141 9.4064 12.59 -8.93576
243 1 12.6245 9.39623 12.6187 -8.89402
244 1 15.7365 9.43096 12.5847 -8.95638
245 1 18.8719 9.43414 12.5799 -8.95208
246 1 -0.000103686 1.09591e-15 15.7243 -8.94964
247 1 1.57215 1.57225 17.2969 -8.94928
248 1 3.14445 8.88699e-16 15.7246 -8.94955
249 1 4.71707 1.57217 17.297 -8.94967
250 1 6.28953 7.44315e-16 15.7246 -8.94957
251 1 7.86204 1.57215 17.297 -8.94953
252 1 9.43455 1.53841e-15 15.7247 -8.94957
253 1 11.007 1.57213 17.297 -8.94956
254 1 12.5795 1.81479e-15 15.7246 -8.94952
255 1 14.1519 1.57214 17.2969 -8.94951
256 1 15.7245 1.19023e-15 15.7245 -8.94997
257 1 17.2969 1.5721 17.2969 -8.94956
258 1 18.8692 -4.79683e-16 15.7243 -8.94964
259 1 20.4415 1.57231 17.2967 -8.94959
260 1 22.0136 3.14458 15.7245 -8.94958
261 1 1.57221 4.71712 17.2969 -8.94982
262 1 3.14383 3.14394 15.7252 -8.94833
263 1 4.71631 4.71638 17.298 -8.94929
264 1 6.2892 3.1438 15.7252 -8.94968
265 1 7.86182 4.71647 17.2977 -8.94918
266 1 9.43447 3.14377 15.7252 -8.94941
267 1 11.0069 4.71636 17.2977 -8.94939
268 1 12.5796 3.14372 15.725 -8.94913
269 1 14.1522 4.7163 17.2977 -8.94964
270 1 15.7251 3.14346 15.7251 -8.94964
271 1 17.2978 4.71612 17.2977 -8.94818
272 1 18.8694 3.14445 15.7244 -8.94968
273 1 20.4418 4.71699 17.2969 -8.94954
274 1 8.43888e-05 6.28952 15.7245 -8.9498
275 1 1.57226 7.86207 17.2969 -8.94945
276 1 3.14398 6.28947 15.725 -8.95035
277 1 4.71687 7.86231 17.2972 -8.94961
278 1 6.28684 6.28707 15.7286 -8.9493
279 1 7.86154 7.86173 17.2989 -8.95244
280 1 9.4339 6.28743 15.7271 -8.94776
281 1 11.0066 7.8611 17.2992 -8.95031
282 1 12.5801 6.28721 15.7273 -8.94872
283 1 14.1533 7.86057 17.3003 -8.95179
284 1 15.7283 6.28559 15.7284 -8.9442
285 1 17.2978 7.86151 17.2978 -8.94925
286 1 18.8704 6.28881 15.7251 -8.94953
287 1 20.4418 7.86196 17.297 -8.9495
288 1 22.014 9.43445 15.7246 -8.94956
289 1 3.14414 9.43455 15.725 -8.94902
290 1 6.28902 9.43522 15.7251 -8.94882
291 1 9.4344 9.4341 15.7266 -8.95199
292 1 12.5822 9.43282 15.7328 -8.95892
293 1 15.7278 9.43321 15.728 -8.94776
294 1 18.8705 9.43422 15.7252 -8.94928
295 1 22.0138 -2.88183e-16 18.8691 -8.94942
296 1 1.57232 1.57231 20.4415 -8.94948
297 1 3.14476 8.16756e-16 18.8692 -8.94966
298 1 4.71721 1.57233 20.4415 -8.94961
299 1 6.28964 7.53453e-16 18.8692 -8.94959
300 1 7.86207 1.57229 20.4415 -8.9496
301 1 9.43452 9.38927e-16 18.8692 -8.9496
302 1 11.007 1.57228 20.4415 -8.9496
303 1 12.5794 1.62774e-15 18.8692 -8.94959
304 1 14.1518 1.5723 20.4415 -8.94959
305 1 15.7243 1.75745e-15 18.8692 -8.9496
306 1 17.2967 1.57231 20.4415 -8.94968
307 1 18.8692 2.93222e-16 18.8692 -8.94953
308 1 20.4416 1.57235 20.4415 -8.94942
309 1 1.3858e-05 3.14476 18.8692 -8.94962
310 1 1.57237 4.71724 20.4415 -8.9497
311 1 3.14455 3.14455 18.8694 -8.94946
312 1 4.71696 4.717 20.4415 -8.94994
313 1 6.28956 3.14456 18.8693 -8.94953
314 1 7.86194 4.71689 20.4415 -8.94952
315 1 9.43449 3.14449 18.8694 -8.94957
316 1 11.0069 4.71684 20.4415 -8.94956
317 1 12.5794 3.14449 18.8693 -8.94953
318 1 14.1519 4.71687 20.4415 -8.94958
319 1 15.7244 3.14452 18.8693 -8.94968
320 1 17.297 4.71683 20.4415 -8.94958
321 1 18.8694 3.14454 18.8693 -8.94924
322 1 20.4416 4.71717 20.4415 -8.94961
323 1 22.0139 6.28963 18.8692 -8.94957
324 1 1.57233 7.86208 20.4415 -8.94958
325 1 3.14467 6.2897 18.8692 -8.9497
326 1 4.71704 7.86214 20.4415 -8.94953
327 1 6.28925 6.28935 18.8699 -8.95054
328 1 7.86188 7.86203 20.4415 -8.95041
329 1 9.43426 6.28909 18.8699 -8.94957
330 1 11.0067 7.86174 20.4415 -8.95012
331 1 12.5794 6.28907 18.8699 -8.94958
332 1 14.1521 7.8617 20.4415 -8.9507
333 1 15.7249 6.28891 18.87 -8.95005
334 1 17.2971 7.86188 20.4415 -8.94948
335 1 18.8694 6.28946 18.8693 -8.94956
336 1 20.4416 7.86205 20.4415 -8.9496
337 1 2.97696e-05 9.4345 18.8692 -8.9496
45 1 6.28934 9.43463 22.0135 -8.94938
5 1 6.28964 3.27786e-16 22.0138 -8.94959
9 1 12.5794 1.04452e-15 22.0138 -8.94959
43 1 2.97696e-05 9.4345 22.0138 -8.9496
15 1 1.3858e-05 3.14476 22.0138 -8.94962
17 1 3.14455 3.14455 22.0136 -8.94946
19 1 6.28956 3.14456 22.0136 -8.94953
25 1 15.7244 3.14452 22.0136 -8.94968
41 1 18.8694 6.28946 22.0136 -8.94956
31 1 3.14467 6.2897 22.0137 -8.9497
13 1 18.8692 -1.88911e-16 22.0138 -8.94953
23 1 12.5794 3.14449 22.0136 -8.94953
39 1 15.7249 6.28891 22.0129 -8.95005
182 1 20.4415 1.57229 11.007 -8.94961
193 1 11.0175 7.85569 11.0283 -8.9658
344 1 1.57222 11.007 1.57207 -8.94959
345 1 4.71671 11.007 1.57169 -8.94965
346 1 7.86172 11.007 1.57192 -8.94839
347 1 11.0068 11.007 1.57089 -8.94761
348 1 14.1537 11.007 1.56865 -8.94981
349 1 17.2979 11.007 1.5712 -8.9494
350 1 20.4418 11.007 1.57205 -8.94955
688 3 10.2875 11.007 9.43453 2.19311
352 1 1.57226 14.1518 1.57213 -8.94945
353 1 3.14459 12.5794 -0.000238274 -8.94958
354 1 4.71687 14.1516 1.57182 -8.94961
687 2 11.6809 11.007 9.43453 0.199917
356 1 7.86154 14.1522 1.57011 -8.95244
511 1 18.8693 18.8694 9.43453 -8.94962
358 1 11.0066 14.1528 1.56983 -8.95031
510 1 15.725 18.8701 9.43453 -8.94914
360 1 14.1533 14.1533 1.56879 -8.95179
509 1 12.5796 18.8712 9.43453 -8.95119
362 1 17.2978 14.1524 1.57124 -8.94925
363 1 18.8695 12.5795 -0.000305225 -8.94954
364 1 20.4418 14.1519 1.57208 -8.9495
508 1 9.43441 18.8704 9.43453 -8.94633
366 1 1.57221 17.2968 1.57212 -8.94982
507 1 6.28767 18.8726 9.43453 -8.94943
368 1 4.71631 17.2975 1.57104 -8.94929
369 1 6.28925 15.7246 -0.000847361 -8.95054
370 1 7.86182 17.2974 1.57133 -8.94918
371 1 9.43426 15.7248 -0.000812577 -8.94957
372 1 11.0069 17.2975 1.57137 -8.94939
506 1 3.14374 18.8701 9.43453 -8.9495
374 1 14.1522 17.2976 1.5714 -8.94964
526 1 1.57121 17.2974 11.0072 -8.94931
376 1 17.2978 17.2978 1.57135 -8.94818
505 1 22.0136 18.8694 9.43453 -8.94956
378 1 20.4418 17.2969 1.57214 -8.94954
504 1 18.8698 15.725 9.43453 -8.94924
380 1 1.57215 20.4417 1.57216 -8.94928
503 1 15.7255 15.7259 9.43453 -8.94617
382 1 4.71707 20.4417 1.57209 -8.94967
502 1 12.5775 15.7318 9.43453 -8.96038
384 1 7.86204 20.4418 1.57206 -8.94953
385 1 9.43449 18.8694 -0.000296056 -8.94957
386 1 11.007 20.4418 1.57204 -8.94956
525 1 20.4417 14.1521 11.0069 -8.94989
388 1 14.1519 20.4418 1.57212 -8.94951
501 1 9.42926 15.7214 9.43453 -8.99958
390 1 17.2969 20.4418 1.57212 -8.94956
391 1 18.8694 18.8694 -0.000206253 -8.94924
392 1 20.4415 20.4416 1.57232 -8.94959
393 1 1.57181 11.007 4.71655 -8.94956
394 1 4.71551 11.007 4.71554 -8.94667
395 1 7.86305 11.007 4.71846 -8.94523
396 1 11.0116 11.007 4.71666 -9.01368
397 1 14.1625 11.007 4.70595 -8.94402
398 1 17.3011 11.007 4.7148 -8.94856
399 1 20.4425 11.007 4.71668 -8.94986
400 1 22.014 12.5795 3.14442 -8.94956
401 1 1.57184 14.1517 4.71683 -8.94982
402 1 3.14414 12.5794 3.14408 -8.94902
403 1 4.71502 14.1518 4.71579 -8.95176
404 1 6.28902 12.5787 3.14393 -8.94882
405 1 7.85478 14.1592 4.70627 -8.9507
406 1 9.4344 12.5798 3.14243 -8.95199
407 1 11.0073 14.1572 4.70878 -8.95014
408 1 12.5822 12.5811 3.13629 -8.95892
409 1 14.1653 14.1649 4.70348 -8.92869
410 1 15.7278 12.5807 3.14103 -8.94776
411 1 17.3011 14.1541 4.71499 -8.95023
412 1 18.8705 12.5797 3.1439 -8.94928
413 1 20.4424 14.1522 4.71682 -8.95017
414 1 8.43888e-05 15.7244 3.14454 -8.9498
415 1 1.57126 17.2973 4.71654 -8.94967
416 1 3.14398 15.7244 3.14404 -8.95035
417 1 4.7136 17.3001 4.71366 -8.94471
418 1 6.28684 15.7268 3.14046 -8.9493
419 1 7.86098 17.2999 4.71489 -8.94936
420 1 9.4339 15.7265 3.14191 -8.94776
421 1 11.0073 17.2997 4.71502 -8.94795
422 1 12.5801 15.7267 3.14176 -8.94872
423 1 14.1541 17.3009 4.71488 -8.95067
424 1 15.7283 15.7283 3.1407 -8.9442
425 1 17.2978 17.2978 4.71674 -8.94981
426 1 18.8704 15.7251 3.14399 -8.94953
427 1 20.4415 17.297 4.71711 -8.94987
428 1 22.0136 18.8693 3.1446 -8.94958
429 1 1.57209 20.4417 4.71707 -8.94957
430 1 3.14383 18.87 3.14384 -8.94833
431 1 4.71655 20.4424 4.71654 -8.94995
432 1 6.2892 18.8701 3.14386 -8.94968
433 1 7.86195 20.4424 4.71659 -8.94959
434 1 9.43447 18.8701 3.1439 -8.94941
435 1 11.0072 20.4423 4.71659 -8.9496
436 1 12.5796 18.8702 3.14402 -8.94913
437 1 14.1522 20.4423 4.7169 -8.95051
438 1 15.7251 18.8704 3.14395 -8.94964
439 1 17.2969 20.4418 4.71713 -8.94963
440 1 18.8694 18.8694 3.14462 -8.94968
441 1 20.4415 20.4416 4.71722 -8.9496
442 1 1.57186 11.007 7.86178 -8.94793
443 1 4.71858 11.007 7.86237 -8.9395
444 1 7.88308 11.007 7.8711 -8.96747
445 1 11.0747 11.007 7.58603 -8.31541
446 1 14.1687 11.007 7.84663 -9.01591
447 1 17.3008 11.007 7.86235 -8.95369
448 1 20.4424 11.007 7.86222 -8.94997
449 1 3.83133e-05 12.5794 6.2894 -8.95004
450 1 1.57024 14.1521 7.86186 -8.95168
451 1 3.14323 12.5787 6.28909 -8.94987
452 1 4.70732 14.1553 7.8598 -8.95793
453 1 6.28549 12.577 6.28908 -8.9546
454 1 7.82168 14.1883 7.83056 -8.85751
455 1 9.4141 12.6075 6.27905 -8.93576
456 1 11.0175 14.1582 7.84077 -8.9658
457 1 12.6245 12.6177 6.25038 -8.89402
458 1 14.1584 14.1565 7.86031 -8.9781
459 1 15.7365 12.5829 6.2844 -8.95638
460 1 17.2984 14.1523 7.86303 -8.95129
461 1 18.8719 12.5798 6.28919 -8.95208
462 1 20.4417 14.1521 7.86217 -8.94989
463 1 22.0133 15.7246 6.28942 -8.95017
464 1 1.57121 17.2974 7.86184 -8.94931
465 1 3.1411 15.7259 6.28792 -8.95079
466 1 4.71402 17.2998 7.86093 -8.9477
467 1 6.27741 15.736 6.27838 -8.93048
468 1 7.85918 17.3046 7.86092 -8.95919
469 1 9.43332 15.7333 6.28502 -8.95228
470 1 11.0056 17.2995 7.86159 -8.94943
471 1 12.5844 15.7349 6.28437 -8.95583
472 1 14.1531 17.2993 7.86203 -8.94841
473 1 15.7274 15.727 6.28861 -8.94988
474 1 17.2975 17.2974 7.86218 -8.94921
475 1 18.8699 15.7247 6.28974 -8.95012
476 1 20.4415 17.297 7.86205 -8.94954
477 1 -0.000279112 18.8694 6.28956 -8.9495
478 1 1.57205 20.4417 7.86204 -8.94957
479 1 3.14379 18.87 6.28916 -8.94928
480 1 4.71642 20.4424 7.86182 -8.94938
481 1 6.28817 18.8723 6.28827 -8.95144
482 1 7.86192 20.4431 7.86199 -8.95136
483 1 9.43454 18.8719 6.28853 -8.95035
484 1 11.0069 20.4424 7.86202 -8.94946
485 1 12.5797 18.8714 6.28937 -8.9522
486 1 14.1523 20.4422 7.86203 -8.9497
487 1 15.7249 18.8702 6.28951 -8.94951
488 1 17.297 20.4418 7.86207 -8.94949
489 1 18.8693 18.8694 6.28966 -8.94954
490 1 20.4415 20.4416 7.86209 -8.94961
491 1 22.0134 12.5793 9.43453 -8.94946
492 1 3.14211 12.5789 9.43453 -8.95135
493 1 6.28034 12.5861 9.43453 -8.97387
494 1 9.34966 12.7957 9.43453 -8.18844
495 1 12.5909 12.6169 9.43453 -9.12884
496 1 15.7201 12.5771 9.43453 -8.98757
497 1 18.8697 12.5798 9.43453 -8.9465
498 1 -0.000766902 15.7247 9.43453 -8.94991
499 1 3.14094 15.7262 9.43453 -8.94906
500 1 6.27947 15.7338 9.43453 -8.94154
517 1 17.3008 11.007 11.0067 -8.95369
518 1 20.4424 11.007 11.0068 -8.94997
524 1 17.2984 14.1523 11.006 -8.95129
523 1 14.1584 14.1565 11.0088 -8.9781
527 1 4.71402 17.2998 11.0081 -8.9477
534 1 4.71642 20.4424 11.0072 -8.94938
538 1 17.297 20.4418 11.007 -8.94949
365 1 22.0139 15.7243 -0.000108169 -8.94957
373 1 12.5794 15.7248 -0.000841864 -8.94958
512 1 1.57186 11.007 11.0073 -8.94793
513 1 4.71858 11.007 11.0067 -8.9395
514 1 7.88308 11.007 10.998 -8.96747
515 1 11.0747 11.007 11.283 -8.31541
516 1 14.1687 11.007 11.0224 -9.01591
686 1 20.4416 20.4416 20.4415 -8.94942
685 1 18.8694 18.8694 18.8693 -8.94924
519 1 1.57024 14.1521 11.0072 -8.95168
520 1 4.70732 14.1553 11.0093 -8.95793
521 1 7.82168 14.1883 11.0385 -8.85751
684 1 17.2967 20.4416 20.4415 -8.94968
683 1 15.7244 18.8694 18.8693 -8.94968
682 1 14.1518 20.4416 20.4415 -8.94959
681 1 12.5794 18.8694 18.8693 -8.94953
680 1 11.007 20.4416 20.4415 -8.9496
389 1 15.7244 18.8694 22.0136 -8.94968
528 1 7.85918 17.3046 11.0081 -8.95919
529 1 11.0056 17.2995 11.0075 -8.94943
530 1 14.1531 17.2993 11.007 -8.94841
531 1 17.2975 17.2974 11.0069 -8.94921
532 1 20.4415 17.297 11.007 -8.94954
533 1 1.57205 20.4417 11.007 -8.94957
383 1 6.28956 18.8693 22.0136 -8.94953
535 1 7.86192 20.4431 11.0071 -8.95136
536 1 11.0069 20.4424 11.007 -8.94946
537 1 14.1523 20.4422 11.007 -8.9497
381 1 3.14455 18.8693 22.0136 -8.94946
679 1 9.43449 18.8694 18.8694 -8.94957
540 1 1.57181 11.007 14.1525 -8.94956
541 1 4.71551 11.007 14.1535 -8.94667
542 1 7.86305 11.007 14.1506 -8.94523
543 1 11.0116 11.007 14.1524 -9.01368
544 1 14.1625 11.007 14.1631 -8.94402
545 1 17.3011 11.007 14.1543 -8.94856
546 1 20.4425 11.007 14.1524 -8.94986
547 1 3.83133e-05 12.5794 12.5797 -8.95004
548 1 1.57184 14.1517 14.1522 -8.94982
549 1 3.14323 12.5787 12.58 -8.94987
550 1 4.71502 14.1518 14.1533 -8.95176
551 1 6.28549 12.577 12.58 -8.9546
552 1 7.85478 14.1592 14.1628 -8.9507
553 1 9.4141 12.6075 12.59 -8.93576
554 1 11.0073 14.1572 14.1603 -8.95014
555 1 12.6245 12.6177 12.6187 -8.89402
556 1 14.1653 14.1649 14.1656 -8.92869
557 1 15.7365 12.5829 12.5847 -8.95638
558 1 17.3011 14.1541 14.1541 -8.95023
559 1 18.8719 12.5798 12.5799 -8.95208
560 1 20.4424 14.1522 14.1522 -8.95017
561 1 22.0133 15.7246 12.5796 -8.95017
562 1 1.57126 17.2973 14.1525 -8.94967
563 1 3.1411 15.7259 12.5811 -8.95079
564 1 4.7136 17.3001 14.1554 -8.94471
565 1 6.27741 15.736 12.5907 -8.93048
566 1 7.86098 17.2999 14.1542 -8.94936
567 1 9.43332 15.7333 12.584 -8.95228
568 1 11.0073 17.2997 14.154 -8.94795
569 1 12.5844 15.7349 12.5847 -8.95583
570 1 14.1541 17.3009 14.1542 -8.95067
571 1 15.7274 15.727 12.5805 -8.94988
572 1 17.2978 17.2978 14.1523 -8.94981
573 1 18.8699 15.7247 12.5793 -8.95012
574 1 20.4415 17.297 14.152 -8.94987
575 1 -0.000279112 18.8694 12.5795 -8.9495
576 1 1.57209 20.4417 14.152 -8.94957
577 1 3.14379 18.87 12.5799 -8.94928
578 1 4.71655 20.4424 14.1525 -8.94995
579 1 6.28817 18.8723 12.5808 -8.95144
580 1 7.86195 20.4424 14.1525 -8.94959
581 1 9.43454 18.8719 12.5805 -8.95035
582 1 11.0072 20.4423 14.1525 -8.9496
583 1 12.5797 18.8714 12.5797 -8.9522
584 1 14.1522 20.4423 14.1522 -8.95051
585 1 15.7249 18.8702 12.5795 -8.94951
586 1 17.2969 20.4418 14.1519 -8.94963
587 1 18.8693 18.8694 12.5794 -8.94954
588 1 20.4415 20.4416 14.1518 -8.9496
589 1 1.57222 11.007 17.297 -8.94959
590 1 4.71671 11.007 17.2974 -8.94965
591 1 7.86172 11.007 17.2971 -8.94839
592 1 11.0068 11.007 17.2982 -8.94761
593 1 14.1537 11.007 17.3004 -8.94981
594 1 17.2979 11.007 17.2979 -8.9494
595 1 20.4418 11.007 17.297 -8.94955
596 1 22.014 12.5795 15.7246 -8.94956
597 1 1.57226 14.1518 17.2969 -8.94945
598 1 3.14414 12.5794 15.725 -8.94902
599 1 4.71687 14.1516 17.2972 -8.94961
600 1 6.28902 12.5787 15.7251 -8.94882
601 1 7.86154 14.1522 17.2989 -8.95244
602 1 9.4344 12.5798 15.7266 -8.95199
603 1 11.0066 14.1528 17.2992 -8.95031
604 1 12.5822 12.5811 15.7328 -8.95892
605 1 14.1533 14.1533 17.3003 -8.95179
606 1 15.7278 12.5807 15.728 -8.94776
607 1 17.2978 14.1524 17.2978 -8.94925
608 1 18.8705 12.5797 15.7252 -8.94928
609 1 20.4418 14.1519 17.297 -8.9495
610 1 8.43888e-05 15.7244 15.7245 -8.9498
611 1 1.57221 17.2968 17.2969 -8.94982
612 1 3.14398 15.7244 15.725 -8.95035
613 1 4.71631 17.2975 17.298 -8.94929
614 1 6.28684 15.7268 15.7286 -8.9493
615 1 7.86182 17.2974 17.2977 -8.94918
616 1 9.4339 15.7265 15.7271 -8.94776
617 1 11.0069 17.2975 17.2977 -8.94939
618 1 12.5801 15.7267 15.7273 -8.94872
619 1 14.1522 17.2976 17.2977 -8.94964
620 1 15.7283 15.7283 15.7284 -8.9442
621 1 17.2978 17.2978 17.2977 -8.94818
622 1 18.8704 15.7251 15.7251 -8.94953
623 1 20.4418 17.2969 17.2969 -8.94954
624 1 22.0136 18.8693 15.7245 -8.94958
625 1 1.57215 20.4417 17.2969 -8.94928
626 1 3.14383 18.87 15.7252 -8.94833
627 1 4.71707 20.4417 17.297 -8.94967
628 1 6.2892 18.8701 15.7252 -8.94968
629 1 7.86204 20.4418 17.297 -8.94953
630 1 9.43447 18.8701 15.7252 -8.94941
631 1 11.007 20.4418 17.297 -8.94956
632 1 12.5796 18.8702 15.725 -8.94913
633 1 14.1519 20.4418 17.2969 -8.94951
634 1 15.7251 18.8704 15.7251 -8.94964
635 1 17.2969 20.4418 17.2969 -8.94956
636 1 18.8694 18.8694 15.7244 -8.94968
637 1 20.4415 20.4416 17.2967 -8.94959
638 1 1.57232 11.007 20.4415 -8.94961
639 1 4.71697 11.007 20.4415 -8.94967
640 1 7.86178 11.007 20.4415 -8.9493
641 1 11.0067 11.007 20.4415 -8.94888
642 1 14.1523 11.007 20.4415 -8.95033
643 1 17.2972 11.007 20.4415 -8.94953
644 1 20.4416 11.007 20.4415 -8.94961
645 1 2.97696e-05 12.5794 18.8692 -8.9496
646 1 1.57233 14.1518 20.4415 -8.94958
647 1 3.14459 12.5794 18.8693 -8.94958
648 1 4.71704 14.1518 20.4415 -8.94953
649 1 6.28934 12.5793 18.8694 -8.94938
650 1 7.86188 14.1519 20.4415 -8.95041
651 1 9.4343 12.5793 18.8698 -8.9496
652 1 11.0067 14.1522 20.4415 -8.95012
653 1 12.5794 12.5795 18.8707 -8.95143
654 1 14.1521 14.1522 20.4415 -8.9507
655 1 15.7251 12.5797 18.8701 -8.94948
656 1 17.2971 14.152 20.4415 -8.94948
657 1 18.8695 12.5795 18.8694 -8.94954
658 1 20.4416 14.1519 20.4415 -8.9496
659 1 22.0139 15.7243 18.8692 -8.94957
660 1 1.57237 17.2967 20.4415 -8.9497
661 1 3.14467 15.7242 18.8692 -8.9497
662 1 4.71696 17.2969 20.4415 -8.94994
663 1 6.28925 15.7246 18.8699 -8.95054
664 1 7.86194 17.297 20.4415 -8.94952
665 1 9.43426 15.7248 18.8699 -8.94957
666 1 11.0069 17.2971 20.4415 -8.94956
667 1 12.5794 15.7248 18.8699 -8.94958
668 1 14.1519 17.297 20.4415 -8.94958
669 1 15.7249 15.725 18.87 -8.95005
670 1 17.297 17.2971 20.4415 -8.94958
671 1 18.8694 15.7244 18.8693 -8.94956
672 1 20.4416 17.2967 20.4415 -8.94961
673 1 1.3858e-05 18.8691 18.8692 -8.94962
674 1 1.57232 20.4416 20.4415 -8.94948
675 1 3.14455 18.8693 18.8694 -8.94946
676 1 4.71721 20.4416 20.4415 -8.94961
677 1 6.28956 18.8693 18.8693 -8.94953
678 1 7.86207 20.4416 20.4415 -8.9496
351 1 2.97696e-05 12.5794 22.0138 -8.9496
355 1 6.28934 12.5793 22.0135 -8.94938
357 1 9.4343 12.5793 22.0132 -8.9496
359 1 12.5794 12.5795 22.0123 -8.95143
361 1 15.7251 12.5797 22.0128 -8.94948
379 1 1.3858e-05 18.8691 22.0138 -8.94962
367 1 3.14467 15.7242 22.0137 -8.9497
377 1 18.8694 15.7244 22.0136 -8.94956
375 1 15.7249 15.725 22.0129 -8.95005
539 1 20.4415 20.4416 11.007 -8.94961
387 1 12.5794 18.8694 22.0136 -8.94953
522 1 11.0175 14.1582 11.0283 -8.9658
