ITEM: TIMESTEP
90
ITEM: NUMBER OF ATOMS
688
ITEM: BOX BOUNDS pp pp pp
0.0000000000000000e+00 2.2013900999999997e+01
0.0000000000000000e+00 2.2013900999999997e+01
0.0000000000000000e+00 2.2013900999999997e+01
ITEM: ATOMS id type x y z c_pot
1 1 22.0138 2.32157e-16 -0.000194423 -8.94924
2 1 1.57185 1.57207 1.57184 -8.94918
175 1 18.8694 9.43414 9.43453 -8.94609
4 1 4.71673 1.57193 1.57167 -8.94961
174 1 15.7188 9.43755 9.43453 -8.98594
6 1 7.86189 1.57192 1.57168 -8.94946
7 1 9.43448 4.14829e-16 -0.000339078 -8.94954
8 1 11.007 1.57189 1.5717 -8.94949
173 1 12.5907 9.39976 9.43453 -9.12329
10 1 14.1521 1.57186 1.5718 -8.94947
172 1 9.35191 9.22313 9.43453 -8.19397
12 1 17.2973 1.57181 1.57182 -8.94954
196 1 20.4416 7.86172 11.0069 -8.94985
14 1 20.4416 1.57213 1.57212 -8.94953
171 1 6.2809 9.42733 9.43453 -8.97367
16 1 1.57198 4.71688 1.57175 -8.94984
170 1 3.14219 9.43477 9.43453 -8.95122
18 1 4.71576 4.71591 1.57042 -8.94922
169 1 22.0134 9.43452 9.43453 -8.94924
20 1 7.86148 4.71596 1.57078 -8.94912
21 1 9.43439 3.14415 -0.000531027 -8.9495
22 1 11.007 4.7158 1.57083 -8.94934
195 1 17.2983 7.86166 11.006 -8.95138
24 1 14.1526 4.71558 1.57075 -8.94958
168 1 18.8698 6.28869 9.43453 -8.94925
26 1 17.2984 4.71542 1.5708 -8.94803
27 1 18.8697 3.14418 -0.00040558 -8.94911
28 1 20.4421 4.71666 1.57184 -8.94951
167 1 15.7253 6.28803 9.43453 -8.94612
30 1 1.5722 7.86201 1.57185 -8.94941
166 1 12.5773 6.28283 9.43453 -8.95976
32 1 4.71658 7.86221 1.57149 -8.9496
33 1 6.28894 6.28913 -0.0011699 -8.95069
34 1 7.86127 7.86141 1.56967 -8.95256
35 1 9.43409 6.28875 -0.00111298 -8.9496
36 1 11.0067 7.86064 1.56919 -8.95042
165 1 9.42907 6.29299 9.43453 -8.9985
38 1 14.1541 7.85992 1.56783 -8.95183
194 1 14.1579 7.85794 11.009 -8.97744
40 1 17.2987 7.86097 1.57054 -8.94914
164 1 6.27832 6.27911 9.43453 -8.94144
42 1 20.4423 7.86173 1.57173 -8.94944
163 1 3.13993 6.28699 9.43453 -8.94905
44 1 3.14446 9.43452 -0.000372867 -8.94954
162 1 -0.00117326 6.28889 9.43453 -8.94996
161 1 18.8694 3.1442 9.43453 -8.94957
160 1 15.7251 3.14364 9.43453 -8.94905
159 1 12.5794 3.14288 9.43453 -8.95103
49 1 18.87 9.4343 -0.00058341 -8.94946
50 1 -0.000301591 1.07805e-16 3.14455 -8.94955
51 1 1.57166 1.57197 4.71673 -8.94947
52 1 3.14403 3.01939e-16 3.14403 -8.94953
53 1 4.71605 1.57119 4.71608 -8.94998
54 1 6.28925 5.58629e-16 3.14398 -8.94958
55 1 7.86172 1.57116 4.71619 -8.94971
56 1 9.43452 9.1668e-16 3.14399 -8.94956
57 1 11.0072 1.57126 4.71629 -8.94968
58 1 12.5797 7.74128e-16 3.14412 -8.94954
59 1 14.1524 1.57125 4.71671 -8.9507
60 1 15.7248 1.04777e-15 3.14431 -8.95009
61 1 17.2972 1.57188 4.71701 -8.94966
62 1 18.8693 1.27324e-16 3.1446 -8.94964
63 1 20.4414 1.57215 4.71707 -8.94954
64 1 22.0135 3.14432 3.1443 -8.94957
65 1 1.57073 4.71618 4.71612 -8.94968
66 1 3.14326 3.1435 3.14328 -8.94828
67 1 4.71269 4.71299 4.71295 -8.94479
68 1 6.28868 3.14318 3.14323 -8.94967
69 1 7.86027 4.71293 4.71418 -8.94947
70 1 9.43433 3.14321 3.14338 -8.94937
71 1 11.0074 4.7133 4.71431 -8.94793
72 1 12.5799 3.14311 3.14353 -8.94911
73 1 14.1549 4.71196 4.71414 -8.95072
74 1 15.7256 3.14277 3.14347 -8.94967
75 1 17.2984 4.71551 4.71643 -8.94995
76 1 18.8697 3.14406 3.14436 -8.94972
77 1 20.4416 4.71664 4.71692 -8.94995
78 1 0.000134327 6.2893 3.14423 -8.94988
79 1 1.57162 7.86205 4.71659 -8.94997
80 1 3.14346 6.28916 3.14353 -8.95045
81 1 4.71429 7.86167 4.71537 -8.95193
82 1 6.28598 6.28623 3.13959 -8.94905
83 1 7.8537 7.85329 4.70534 -8.94966
84 1 9.43364 6.28657 3.14111 -8.94759
85 1 11.0077 7.85554 4.70735 -8.94963
86 1 12.5808 6.28622 3.14068 -8.9486
87 1 14.1669 7.8478 4.70186 -8.92794
88 1 15.7295 6.28451 3.13967 -8.9439
89 1 17.3022 7.85921 4.71427 -8.95025
90 1 18.8712 6.28828 3.14352 -8.94952
91 1 20.4428 7.86154 4.71656 -8.95029
92 1 22.0142 9.43438 3.1441 -8.94955
93 1 3.14395 9.43452 3.14382 -8.94899
94 1 6.28875 9.43501 3.14374 -8.94866
95 1 9.43438 9.4336 3.14188 -8.95225
96 1 12.5832 9.43229 3.13493 -8.95907
97 1 15.7292 9.43268 3.13978 -8.94757
98 1 18.8713 9.43398 3.14334 -8.94926
99 1 22.0135 4.81257e-16 6.28949 -8.94953
100 1 1.57157 1.57192 7.8619 -8.94949
101 1 3.14385 1.18933e-15 6.28916 -8.94938
102 1 4.71579 1.57107 7.86161 -8.94938
103 1 6.28898 3.19807e-15 6.28903 -8.95063
104 1 7.86163 1.57064 7.86191 -8.95139
105 1 9.43456 2.34679e-15 6.28905 -8.95027
106 1 11.0068 1.5715 7.86203 -8.94935
107 1 12.5796 1.68504e-15 6.2895 -8.95035
108 1 14.1524 1.57156 7.86205 -8.94967
109 1 15.7248 -1.46776e-16 6.28954 -8.94964
110 1 17.2972 1.57199 7.86206 -8.94944
111 1 18.8693 4.96892e-16 6.28959 -8.9495
112 1 20.4414 1.57212 7.86203 -8.94955
113 1 -0.00058902 3.14423 6.28936 -8.94944
114 1 1.5705 4.716 7.86165 -8.94928
115 1 3.14304 3.1433 6.28872 -8.94918
116 1 4.71287 4.71314 7.8606 -8.94762
117 1 6.2875 3.14089 6.28787 -8.95147
118 1 7.85839 4.70877 7.86079 -8.95921
119 1 9.43428 3.14149 6.28825 -8.95055
120 1 11.0053 4.71457 7.86138 -8.94933
121 1 12.5797 3.14207 6.28919 -8.95242
122 1 14.1531 4.71444 7.86196 -8.94823
123 1 15.7252 3.14336 6.28943 -8.94953
124 1 17.2976 4.71622 7.86219 -8.94916
125 1 18.8694 3.14426 6.2896 -8.94949
126 1 20.4414 4.71655 7.86199 -8.94953
127 1 22.013 6.28909 6.28927 -8.95024
128 1 1.56984 7.86162 7.8618 -8.95172
129 1 3.14024 6.2874 6.28752 -8.95078
130 1 4.70671 7.8579 7.85971 -8.95779
131 1 6.27647 6.27701 6.278 -8.93105
132 1 7.82202 7.82548 7.83131 -8.86046
133 1 9.43281 6.27958 6.28433 -8.9527
134 1 11.0177 7.85619 7.83981 -8.96743
135 1 12.5849 6.27811 6.28335 -8.95602
136 1 14.1579 7.85794 7.86004 -8.97744
137 1 15.7279 6.28641 6.28828 -8.95021
138 1 17.2983 7.86166 7.86308 -8.95138
139 1 18.8702 6.28896 6.28969 -8.95026
140 1 20.4416 7.86172 7.86218 -8.94985
141 1 0.000141098 9.43452 6.28932 -8.95008
142 1 3.14309 9.43512 6.28906 -8.95002
143 1 6.28512 9.43633 6.28899 -8.9551
144 1 9.41295 9.40454 6.27689 -8.93392
145 1 12.626 9.39519 6.24774 -8.89148
146 1 15.7376 9.43057 6.28326 -8.95648
147 1 18.8725 9.43403 6.28895 -8.9523
148 1 -0.000375537 8.90569e-16 9.43453 -8.94954
149 1 3.14379 1.19169e-15 9.43453 -8.94947
150 1 6.28866 4.03466e-15 9.43453 -8.95036
151 1 9.43456 1.68687e-14 9.43453 -8.94842
152 1 12.5797 -2.15527e-15 9.43453 -8.94993
153 1 15.7248 1.4923e-16 9.43453 -8.94954
154 1 18.8693 5.69376e-16 9.43453 -8.94956
155 1 22.0133 3.14419 9.43453 -8.94951
156 1 3.14293 3.14323 9.43453 -8.94945
157 1 6.28681 3.14064 9.43453 -8.9495
158 1 9.43403 3.14364 9.43453 -8.94612
183 1 1.5705 4.716 11.0074 -8.94928
177 1 4.71579 1.57107 11.0074 -8.94938
181 1 17.2972 1.57199 11.007 -8.94944
184 1 4.71287 4.71314 11.0085 -8.94762
3 1 3.14451 1.34154e-16 -0.000313621 -8.94958
11 1 15.7245 9.50578e-16 -0.000273367 -8.94955
29 1 22.0141 6.28949 -0.000276605 -8.94951
37 1 12.5795 6.28862 -0.00124025 -8.94964
176 1 1.57157 1.57192 11.0072 -8.94949
48 1 15.7257 9.43399 22.0123 -8.9495
178 1 7.86163 1.57064 11.0072 -8.95139
179 1 11.0068 1.5715 11.007 -8.94935
180 1 14.1524 1.57156 11.007 -8.94967
47 1 12.5797 9.43424 22.0119 -8.95162
343 1 18.87 9.4343 18.8696 -8.94946
342 1 15.7257 9.43399 18.8706 -8.9495
46 1 9.43425 9.43453 22.0131 -8.94963
185 1 7.85839 4.70877 11.0083 -8.95921
186 1 11.0053 4.71457 11.0077 -8.94933
187 1 14.1531 4.71444 11.0071 -8.94823
188 1 17.2976 4.71622 11.0069 -8.94916
189 1 20.4414 4.71655 11.0071 -8.94953
190 1 1.56984 7.86162 11.0073 -8.95172
191 1 4.70671 7.8579 11.0094 -8.95779
192 1 7.82202 7.82548 11.0377 -8.86046
341 1 12.5797 9.43424 18.8711 -8.95162
340 1 9.43425 9.43453 18.8699 -8.94963
339 1 6.28919 9.43464 18.8695 -8.94933
338 1 3.14446 9.43452 18.8694 -8.94954
197 1 22.0135 8.77061e-16 12.5796 -8.94953
198 1 1.57166 1.57197 14.1523 -8.94947
199 1 3.14385 1.48026e-15 12.5799 -8.94938
200 1 4.71605 1.57119 14.153 -8.94998
201 1 6.28898 3.78977e-15 12.58 -8.95063
202 1 7.86172 1.57116 14.1529 -8.94971
203 1 9.43456 3.03954e-15 12.58 -8.95027
204 1 11.0072 1.57126 14.1528 -8.94968
205 1 12.5796 1.78968e-15 12.5796 -8.95035
206 1 14.1524 1.57125 14.1523 -8.9507
207 1 15.7248 1.22185e-16 12.5795 -8.94964
208 1 17.2972 1.57188 14.1521 -8.94966
209 1 18.8693 5.40363e-16 12.5795 -8.9495
210 1 20.4414 1.57215 14.152 -8.94954
211 1 -0.00058902 3.14423 12.5797 -8.94944
212 1 1.57073 4.71618 14.1529 -8.94968
213 1 3.14304 3.1433 12.5803 -8.94918
214 1 4.71269 4.71299 14.1561 -8.94479
215 1 6.2875 3.14089 12.5812 -8.95147
216 1 7.86027 4.71293 14.1549 -8.94947
217 1 9.43428 3.14149 12.5808 -8.95055
218 1 11.0074 4.7133 14.1547 -8.94793
219 1 12.5797 3.14207 12.5799 -8.95242
220 1 14.1549 4.71196 14.1549 -8.95072
221 1 15.7252 3.14336 12.5796 -8.94953
222 1 17.2984 4.71551 14.1526 -8.94995
223 1 18.8694 3.14426 12.5795 -8.94949
224 1 20.4416 4.71664 14.1521 -8.94995
225 1 22.013 6.28909 12.5798 -8.95024
226 1 1.57162 7.86205 14.1525 -8.94997
227 1 3.14024 6.2874 12.5815 -8.95078
228 1 4.71429 7.86167 14.1537 -8.95193
229 1 6.27647 6.27701 12.5911 -8.93105
230 1 7.8537 7.85329 14.1637 -8.94966
231 1 9.43281 6.27958 12.5847 -8.9527
232 1 11.0077 7.85554 14.1617 -8.94963
233 1 12.5849 6.27811 12.5857 -8.95602
234 1 14.1669 7.8478 14.1672 -8.92794
235 1 15.7279 6.28641 12.5808 -8.95021
236 1 17.3022 7.85921 14.1548 -8.95025
237 1 18.8702 6.28896 12.5794 -8.95026
238 1 20.4428 7.86154 14.1525 -8.95029
239 1 0.000141098 9.43452 12.5797 -8.95008
240 1 3.14309 9.43512 12.58 -8.95002
241 1 6.28512 9.43633 12.5801 -8.9551
242 1 9.41295 9.40454 12.5922 -8.93392
243 1 12.626 9.39519 12.6213 -8.89148
244 1 15.7376 9.43057 12.5858 -8.95648
245 1 18.8725 9.43403 12.5801 -8.9523
246 1 -0.000301591 1.55644e-15 15.7245 -8.94955
247 1 1.57185 1.57207 17.2972 -8.94918
248 1 3.14403 1.80414e-15 15.725 -8.94953
249 1 4.71673 1.57193 17.2974 -8.94961
250 1 6.28925 1.56753e-15 15.7251 -8.94958
251 1 7.86189 1.57192 17.2974 -8.94946
252 1 9.43452 1.8438e-15 15.7251 -8.94956
253 1 11.007 1.57189 17.2974 -8.94949
254 1 12.5797 1.33078e-15 15.7249 -8.94954
255 1 14.1521 1.57186 17.2973 -8.94947
256 1 15.7248 9.22746e-16 15.7247 -8.95009
257 1 17.2973 1.57181 17.2972 -8.94954
258 1 18.8693 9.31118e-18 15.7245 -8.94964
259 1 20.4416 1.57213 17.2969 -8.94953
260 1 22.0135 3.14432 15.7248 -8.94957
261 1 1.57198 4.71688 17.2973 -8.94984
262 1 3.14326 3.1435 15.7258 -8.94828
263 1 4.71576 4.71591 17.2986 -8.94922
264 1 6.28868 3.14318 15.7258 -8.94967
265 1 7.86148 4.71596 17.2983 -8.94912
266 1 9.43433 3.14321 15.7257 -8.94937
267 1 11.007 4.7158 17.2982 -8.94934
268 1 12.5799 3.14311 15.7255 -8.94911
269 1 14.1526 4.71558 17.2983 -8.94958
270 1 15.7256 3.14277 15.7256 -8.94967
271 1 17.2984 4.71542 17.2983 -8.94803
272 1 18.8697 3.14406 15.7247 -8.94972
273 1 20.4421 4.71666 17.2972 -8.94951
274 1 0.000134327 6.2893 15.7248 -8.94988
275 1 1.5722 7.86201 17.2972 -8.94941
276 1 3.14346 6.28916 15.7255 -8.95045
277 1 4.71658 7.86221 17.2976 -8.9496
278 1 6.28598 6.28623 15.7295 -8.94905
279 1 7.86127 7.86141 17.2994 -8.95256
280 1 9.43364 6.28657 15.7279 -8.94759
281 1 11.0067 7.86064 17.2999 -8.95042
282 1 12.5808 6.28622 15.7284 -8.9486
283 1 14.1541 7.85992 17.3012 -8.95183
284 1 15.7295 6.28451 15.7294 -8.9439
285 1 17.2987 7.86097 17.2985 -8.94914
286 1 18.8712 6.28828 15.7255 -8.94952
287 1 20.4423 7.86173 17.2973 -8.94944
288 1 22.0142 9.43438 15.725 -8.94955
289 1 3.14395 9.43452 15.7252 -8.94899
290 1 6.28875 9.43501 15.7253 -8.94866
291 1 9.43438 9.4336 15.7272 -8.95225
292 1 12.5832 9.43229 15.7341 -8.95907
293 1 15.7292 9.43268 15.7293 -8.94757
294 1 18.8713 9.43398 15.7257 -8.94926
295 1 22.0138 5.28417e-16 18.8693 -8.94924
296 1 1.57214 1.57217 20.4415 -8.94935
297 1 3.14451 1.58857e-15 18.8694 -8.94958
298 1 4.717 1.57217 20.4415 -8.94956
299 1 6.28948 1.29579e-15 18.8694 -8.94952
300 1 7.86196 1.57212 20.4415 -8.94953
301 1 9.43448 5.49483e-16 18.8694 -8.94954
302 1 11.007 1.5721 20.4415 -8.94954
303 1 12.5795 5.41346e-16 18.8694 -8.94953
304 1 14.152 1.5721 20.4415 -8.94952
305 1 15.7245 8.57317e-16 18.8693 -8.94955
306 1 17.297 1.5721 20.4415 -8.94961
307 1 18.8694 3.49033e-16 18.8693 -8.94942
308 1 20.4417 1.5722 20.4415 -8.94924
309 1 1.93796e-05 3.14456 18.8693 -8.94956
310 1 1.57228 4.71712 20.4415 -8.9497
311 1 3.14423 3.14428 18.8696 -8.94941
312 1 4.71666 4.71676 20.4415 -8.95002
313 1 6.2893 3.14426 18.8696 -8.94949
314 1 7.86172 4.71659 20.4415 -8.94951
315 1 9.43439 3.14415 18.8696 -8.9495
316 1 11.0069 4.71645 20.4415 -8.94954
317 1 12.5795 3.14411 18.8696 -8.94946
318 1 14.1521 4.71641 20.4415 -8.94957
319 1 15.7247 3.14407 18.8696 -8.94962
320 1 17.2975 4.71635 20.4415 -8.94954
321 1 18.8697 3.14418 18.8695 -8.94911
322 1 20.4419 4.71693 20.4415 -8.94952
323 1 22.0141 6.28949 18.8693 -8.94951
324 1 1.5723 7.86204 20.4415 -8.94953
325 1 3.14448 6.28961 18.8695 -8.94972
326 1 4.71685 7.86215 20.4415 -8.94952
327 1 6.28894 6.28913 18.8702 -8.95069
328 1 7.86172 7.86196 20.4415 -8.9505
329 1 9.43409 6.28875 18.8702 -8.9496
330 1 11.0066 7.86154 20.4415 -8.95023
331 1 12.5795 6.28862 18.8703 -8.94964
332 1 14.1524 7.86138 20.4415 -8.95082
333 1 15.7255 6.28834 18.8705 -8.95008
334 1 17.2977 7.86153 20.4415 -8.94942
335 1 18.87 6.28908 18.8696 -8.94945
336 1 20.442 7.86189 20.4415 -8.94952
337 1 0.000184666 9.43445 18.8694 -8.94954
45 1 6.28919 9.43464 22.0134 -8.94933
5 1 6.28948 6.01345e-16 22.0136 -8.94952
9 1 12.5795 2.86891e-16 22.0136 -8.94953
43 1 0.000184666 9.43445 22.0136 -8.94954
15 1 1.93796e-05 3.14456 22.0136 -8.94956
17 1 3.14423 3.14428 22.0133 -8.94941
19 1 6.2893 3.14426 22.0133 -8.94949
25 1 15.7247 3.14407 22.0134 -8.94962
41 1 18.87 6.28908 22.0134 -8.94945
31 1 3.14448 6.28961 22.0135 -8.94972
13 1 18.8694 -2.44497e-17 22.0136 -8.94942
23 1 12.5795 3.14411 22.0134 -8.94946
39 1 15.7255 6.28834 22.0125 -8.95008
182 1 20.4414 1.57212 11.007 -8.94955
193 1 11.0177 7.85619 11.0293 -8.96743
344 1 1.57222 11.007 1.57181 -8.94955
345 1 4.71656 11.007 1.57154 -8.94962
346 1 7.86166 11.007 1.57187 -8.94837
347 1 11.0071 11.007 1.57053 -8.94786
348 1 14.1546 11.007 1.56764 -8.94992
349 1 17.2988 11.007 1.5705 -8.94933
350 1 20.4423 11.007 1.57169 -8.94949
688 3 10.3006 11.007 9.43453 2.19105
352 1 1.5722 14.1519 1.57185 -8.94941
353 1 3.14446 12.5794 -0.000372867 -8.94954
354 1 4.71658 14.1517 1.57149 -8.9496
687 2 11.6592 11.007 9.43453 0.179848
356 1 7.86127 14.1525 1.56967 -8.95256
511 1 18.8694 18.8697 9.43453 -8.94957
358 1 11.0067 14.1533 1.56919 -8.95042
510 1 15.7251 18.8703 9.43453 -8.94905
360 1 14.1541 14.154 1.56783 -8.95183
509 1 12.5794 18.871 9.43453 -8.95103
362 1 17.2987 14.1529 1.57054 -8.94914
363 1 18.87 12.5796 -0.00058341 -8.94946
364 1 20.4423 14.1522 1.57173 -8.94944
508 1 9.43403 18.8703 9.43453 -8.94612
366 1 1.57198 17.297 1.57175 -8.94984
507 1 6.28681 18.8733 9.43453 -8.9495
368 1 4.71576 17.298 1.57042 -8.94922
369 1 6.28894 15.7248 -0.0011699 -8.95069
370 1 7.86148 17.2979 1.57078 -8.94912
371 1 9.43409 15.7252 -0.00111298 -8.9496
372 1 11.007 17.2981 1.57083 -8.94934
506 1 3.14293 18.8707 9.43453 -8.94945
374 1 14.1526 17.2983 1.57075 -8.94958
526 1 1.5705 17.2979 11.0074 -8.94928
376 1 17.2984 17.2985 1.5708 -8.94803
505 1 22.0133 18.8697 9.43453 -8.94951
378 1 20.4421 17.2972 1.57184 -8.94951
504 1 18.8698 15.7252 9.43453 -8.94925
380 1 1.57185 20.4418 1.57184 -8.94918
503 1 15.7253 15.7259 9.43453 -8.94612
382 1 4.71673 20.442 1.57167 -8.94961
502 1 12.5773 15.7311 9.43453 -8.95976
384 1 7.86189 20.442 1.57168 -8.94946
385 1 9.43439 18.8697 -0.000531027 -8.9495
386 1 11.007 20.442 1.5717 -8.94949
525 1 20.4416 14.1522 11.0069 -8.94985
388 1 14.1521 20.442 1.5718 -8.94947
501 1 9.42907 15.7209 9.43453 -8.9985
390 1 17.2973 20.4421 1.57182 -8.94954
391 1 18.8697 18.8697 -0.00040558 -8.94911
392 1 20.4416 20.4418 1.57212 -8.94953
393 1 1.57181 11.007 4.71634 -8.94961
394 1 4.71534 11.007 4.71543 -8.94665
395 1 7.86279 11.007 4.71807 -8.94476
396 1 11.0121 11.007 4.71495 -9.01447
397 1 14.1642 11.007 4.70397 -8.9438
398 1 17.3024 11.007 4.71392 -8.94856
399 1 20.4431 11.007 4.71637 -8.94995
400 1 22.0142 12.5795 3.1441 -8.94955
401 1 1.57162 14.1519 4.71659 -8.94997
402 1 3.14395 12.5794 3.14382 -8.94899
403 1 4.71429 14.1522 4.71537 -8.95193
404 1 6.28875 12.5789 3.14374 -8.94866
405 1 7.8537 14.1606 4.70534 -8.94966
406 1 9.43438 12.5803 3.14188 -8.95225
407 1 11.0077 14.1584 4.70735 -8.94963
408 1 12.5832 12.5816 3.13493 -8.95907
409 1 14.1669 14.1661 4.70186 -8.92794
410 1 15.7292 12.5812 3.13978 -8.94757
411 1 17.3022 14.1547 4.71427 -8.95025
412 1 18.8713 12.5799 3.14334 -8.94926
413 1 20.4428 14.1524 4.71656 -8.95029
414 1 0.000134327 15.7246 3.14423 -8.94988
415 1 1.57073 17.2977 4.71612 -8.94968
416 1 3.14346 15.7247 3.14353 -8.95045
417 1 4.71269 17.3009 4.71295 -8.94479
418 1 6.28598 15.7277 3.13959 -8.94905
419 1 7.86027 17.301 4.71418 -8.94947
420 1 9.43364 15.7273 3.14111 -8.94759
421 1 11.0074 17.3006 4.71431 -8.94793
422 1 12.5808 15.7277 3.14068 -8.9486
423 1 14.1549 17.3019 4.71414 -8.95072
424 1 15.7295 15.7294 3.13967 -8.9439
425 1 17.2984 17.2984 4.71643 -8.94995
426 1 18.8712 15.7256 3.14352 -8.94952
427 1 20.4416 17.2973 4.71692 -8.94995
428 1 22.0135 18.8696 3.1443 -8.94957
429 1 1.57166 20.4419 4.71673 -8.94947
430 1 3.14326 18.8704 3.14328 -8.94828
431 1 4.71605 20.4427 4.71608 -8.94998
432 1 6.28868 18.8707 3.14323 -8.94967
433 1 7.86172 20.4427 4.71619 -8.94971
434 1 9.43433 18.8707 3.14338 -8.94937
435 1 11.0072 20.4426 4.71629 -8.94968
436 1 12.5799 18.8708 3.14353 -8.94911
437 1 14.1524 20.4426 4.71671 -8.9507
438 1 15.7256 18.8711 3.14347 -8.94967
439 1 17.2972 20.442 4.71701 -8.94966
440 1 18.8697 18.8698 3.14436 -8.94972
441 1 20.4414 20.4417 4.71707 -8.94954
442 1 1.57198 11.007 7.86183 -8.94776
443 1 4.71906 11.007 7.86251 -8.93938
444 1 7.88377 11.007 7.87039 -8.9705
445 1 11.074 11.007 7.57923 -8.31314
446 1 14.1683 11.007 7.84458 -9.01693
447 1 17.3007 11.007 7.86208 -8.95373
448 1 20.4424 11.007 7.86222 -8.94985
449 1 0.000141098 12.5794 6.28932 -8.95008
450 1 1.56984 14.1523 7.8618 -8.95172
451 1 3.14309 12.5788 6.28906 -8.95002
452 1 4.70671 14.156 7.85971 -8.95779
453 1 6.28512 12.5776 6.28899 -8.9551
454 1 7.82202 14.1884 7.83131 -8.86046
455 1 9.41295 12.6094 6.27689 -8.93392
456 1 11.0177 14.1577 7.83981 -8.96743
457 1 12.626 12.6187 6.24774 -8.89148
458 1 14.1579 14.156 7.86004 -8.97744
459 1 15.7376 12.5833 6.28326 -8.95648
460 1 17.2983 14.1522 7.86308 -8.95138
461 1 18.8725 12.5799 6.28895 -8.9523
462 1 20.4416 14.1522 7.86218 -8.94985
463 1 22.013 15.7248 6.28927 -8.95024
464 1 1.5705 17.2979 7.86165 -8.94928
465 1 3.14024 15.7265 6.28752 -8.95078
466 1 4.71287 17.3008 7.8606 -8.94762
467 1 6.27647 15.7369 6.278 -8.93105
468 1 7.85839 17.3051 7.86079 -8.95921
469 1 9.43281 15.7343 6.28433 -8.9527
470 1 11.0053 17.2993 7.86138 -8.94933
471 1 12.5849 15.7358 6.28335 -8.95602
472 1 14.1531 17.2995 7.86196 -8.94823
473 1 15.7279 15.7275 6.28828 -8.95021
474 1 17.2976 17.2977 7.86219 -8.94916
475 1 18.8702 15.7249 6.28969 -8.95026
476 1 20.4414 17.2974 7.86199 -8.94953
477 1 -0.00058902 18.8697 6.28936 -8.94944
478 1 1.57157 20.442 7.8619 -8.94949
479 1 3.14304 18.8706 6.28872 -8.94918
480 1 4.71579 20.4428 7.86161 -8.94938
481 1 6.2875 18.873 6.28787 -8.95147
482 1 7.86163 20.4433 7.86191 -8.95139
483 1 9.43428 18.8724 6.28825 -8.95055
484 1 11.0068 20.4424 7.86203 -8.94935
485 1 12.5797 18.8718 6.28919 -8.95242
486 1 14.1524 20.4423 7.86205 -8.94967
487 1 15.7252 18.8705 6.28943 -8.94953
488 1 17.2972 20.4419 7.86206 -8.94944
489 1 18.8694 18.8696 6.2896 -8.94949
490 1 20.4414 20.4418 7.86203 -8.94955
491 1 22.0134 12.5794 9.43453 -8.94924
492 1 3.14219 12.5791 9.43453 -8.95122
493 1 6.2809 12.5866 9.43453 -8.97367
494 1 9.35191 12.7908 9.43453 -8.19397
495 1 12.5907 12.6141 9.43453 -9.12329
496 1 15.7188 12.5764 9.43453 -8.98594
497 1 18.8694 12.5798 9.43453 -8.94609
498 1 -0.00117326 15.725 9.43453 -8.94996
499 1 3.13993 15.7269 9.43453 -8.94905
500 1 6.27832 15.7348 9.43453 -8.94144
517 1 17.3007 11.007 11.007 -8.95373
518 1 20.4424 11.007 11.0068 -8.94985
524 1 17.2983 14.1522 11.006 -8.95138
523 1 14.1579 14.156 11.009 -8.97744
527 1 4.71287 17.3008 11.0085 -8.94762
534 1 4.71579 20.4428 11.0074 -8.94938
538 1 17.2972 20.4419 11.007 -8.94944
365 1 22.0141 15.7244 -0.000276605 -8.94951
373 1 12.5795 15.7253 -0.00124025 -8.94964
512 1 1.57198 11.007 11.0072 -8.94776
513 1 4.71906 11.007 11.0065 -8.93938
514 1 7.88377 11.007 10.9987 -8.9705
515 1 11.074 11.007 11.2898 -8.31314
516 1 14.1683 11.007 11.0245 -9.01693
686 1 20.4417 20.4417 20.4415 -8.94924
685 1 18.8697 18.8697 18.8695 -8.94911
519 1 1.56984 14.1523 11.0073 -8.95172
520 1 4.70671 14.156 11.0094 -8.95779
521 1 7.82202 14.1884 11.0377 -8.86046
684 1 17.297 20.4418 20.4415 -8.94961
683 1 15.7247 18.8698 18.8696 -8.94962
682 1 14.152 20.4418 20.4415 -8.94952
681 1 12.5795 18.8698 18.8696 -8.94946
680 1 11.007 20.4418 20.4415 -8.94954
389 1 15.7247 18.8698 22.0134 -8.94962
528 1 7.85839 17.3051 11.0083 -8.95921
529 1 11.0053 17.2993 11.0077 -8.94933
530 1 14.1531 17.2995 11.0071 -8.94823
531 1 17.2976 17.2977 11.0069 -8.94916
532 1 20.4414 17.2974 11.0071 -8.94953
533 1 1.57157 20.442 11.0072 -8.94949
383 1 6.2893 18.8696 22.0133 -8.94949
535 1 7.86163 20.4433 11.0072 -8.95139
536 1 11.0068 20.4424 11.007 -8.94935
537 1 14.1524 20.4423 11.007 -8.94967
381 1 3.14423 18.8696 22.0133 -8.94941
679 1 9.43439 18.8697 18.8696 -8.9495
540 1 1.57181 11.007 14.1527 -8.94961
541 1 4.71534 11.007 14.1536 -8.94665
542 1 7.86279 11.007 14.151 -8.94476
543 1 11.0121 11.007 14.1541 -9.01447
544 1 14.1642 11.007 14.1651 -8.9438
545 1 17.3024 11.007 14.1551 -8.94856
546 1 20.4431 11.007 14.1527 -8.94995
547 1 0.000141098 12.5794 12.5797 -8.95008
548 1 1.57162 14.1519 14.1525 -8.94997
549 1 3.14309 12.5788 12.58 -8.95002
550 1 4.71429 14.1522 14.1537 -8.95193
551 1 6.28512 12.5776 12.5801 -8.9551
552 1 7.8537 14.1606 14.1637 -8.94966
553 1 9.41295 12.6094 12.5922 -8.93392
554 1 11.0077 14.1584 14.1617 -8.94963
555 1 12.626 12.6187 12.6213 -8.89148
556 1 14.1669 14.1661 14.1672 -8.92794
557 1 15.7376 12.5833 12.5858 -8.95648
558 1 17.3022 14.1547 14.1548 -8.95025
559 1 18.8725 12.5799 12.5801 -8.9523
560 1 20.4428 14.1524 14.1525 -8.95029
561 1 22.013 15.7248 12.5798 -8.95024
562 1 1.57073 17.2977 14.1529 -8.94968
563 1 3.14024 15.7265 12.5815 -8.95078
564 1 4.71269 17.3009 14.1561 -8.94479
565 1 6.27647 15.7369 12.5911 -8.93105
566 1 7.86027 17.301 14.1549 -8.94947
567 1 9.43281 15.7343 12.5847 -8.9527
568 1 11.0074 17.3006 14.1547 -8.94793
569 1 12.5849 15.7358 12.5857 -8.95602
570 1 14.1549 17.3019 14.1549 -8.95072
571 1 15.7279 15.7275 12.5808 -8.95021
572 1 17.2984 17.2984 14.1526 -8.94995
573 1 18.8702 15.7249 12.5794 -8.95026
574 1 20.4416 17.2973 14.1521 -8.94995
575 1 -0.00058902 18.8697 12.5797 -8.94944
576 1 1.57166 20.4419 14.1523 -8.94947
577 1 3.14304 18.8706 12.5803 -8.94918
578 1 4.71605 20.4427 14.153 -8.94998
579 1 6.2875 18.873 12.5812 -8.95147
580 1 7.86172 20.4427 14.1529 -8.94971
581 1 9.43428 18.8724 12.5808 -8.95055
582 1 11.0072 20.4426 14.1528 -8.94968
583 1 12.5797 18.8718 12.5799 -8.95242
584 1 14.1524 20.4426 14.1523 -8.9507
585 1 15.7252 18.8705 12.5796 -8.94953
586 1 17.2972 20.442 14.1521 -8.94966
587 1 18.8694 18.8696 12.5795 -8.94949
588 1 20.4414 20.4417 14.152 -8.94954
589 1 1.57222 11.007 17.2973 -8.94955
590 1 4.71656 11.007 17.2975 -8.94962
591 1 7.86166 11.007 17.2972 -8.94837
592 1 11.0071 11.007 17.2985 -8.94786
593 1 14.1546 11.007 17.3014 -8.94992
594 1 17.2988 11.007 17.2986 -8.94933
595 1 20.4423 11.007 17.2974 -8.94949
596 1 22.0142 12.5795 15.725 -8.94955
597 1 1.5722 14.1519 17.2972 -8.94941
598 1 3.14395 12.5794 15.7252 -8.94899
599 1 4.71658 14.1517 17.2976 -8.9496
600 1 6.28875 12.5789 15.7253 -8.94866
601 1 7.86127 14.1525 17.2994 -8.95256
602 1 9.43438 12.5803 15.7272 -8.95225
603 1 11.0067 14.1533 17.2999 -8.95042
604 1 12.5832 12.5816 15.7341 -8.95907
605 1 14.1541 14.154 17.3012 -8.95183
606 1 15.7292 12.5812 15.7293 -8.94757
607 1 17.2987 14.1529 17.2985 -8.94914
608 1 18.8713 12.5799 15.7257 -8.94926
609 1 20.4423 14.1522 17.2973 -8.94944
610 1 0.000134327 15.7246 15.7248 -8.94988
611 1 1.57198 17.297 17.2973 -8.94984
612 1 3.14346 15.7247 15.7255 -8.95045
613 1 4.71576 17.298 17.2986 -8.94922
614 1 6.28598 15.7277 15.7295 -8.94905
615 1 7.86148 17.2979 17.2983 -8.94912
616 1 9.43364 15.7273 15.7279 -8.94759
617 1 11.007 17.2981 17.2982 -8.94934
618 1 12.5808 15.7277 15.7284 -8.9486
619 1 14.1526 17.2983 17.2983 -8.94958
620 1 15.7295 15.7294 15.7294 -8.9439
621 1 17.2984 17.2985 17.2983 -8.94803
622 1 18.8712 15.7256 15.7255 -8.94952
623 1 20.4421 17.2972 17.2972 -8.94951
624 1 22.0135 18.8696 15.7248 -8.94957
625 1 1.57185 20.4418 17.2972 -8.94918
626 1 3.14326 18.8704 15.7258 -8.94828
627 1 4.71673 20.442 17.2974 -8.94961
628 1 6.28868 18.8707 15.7258 -8.94967
629 1 7.86189 20.442 17.2974 -8.94946
630 1 9.43433 18.8707 15.7257 -8.94937
631 1 11.007 20.442 17.2974 -8.94949
632 1 12.5799 18.8708 15.7255 -8.94911
633 1 14.1521 20.442 17.2973 -8.94947
634 1 15.7256 18.8711 15.7256 -8.94967
635 1 17.2973 20.4421 17.2972 -8.94954
636 1 18.8697 18.8698 15.7247 -8.94972
637 1 20.4416 20.4418 17.2969 -8.94953
638 1 1.57229 11.007 20.4415 -8.94957
639 1 4.7168 11.007 20.4415 -8.94964
640 1 7.86164 11.007 20.4415 -8.94921
641 1 11.0067 11.007 20.4415 -8.94882
642 1 14.1527 11.007 20.4415 -8.95048
643 1 17.2978 11.007 20.4415 -8.94947
644 1 20.442 11.007 20.4415 -8.94953
645 1 0.000184666 12.5795 18.8694 -8.94954
646 1 1.5723 14.1519 20.4415 -8.94953
647 1 3.14446 12.5794 18.8694 -8.94954
648 1 4.71685 14.1518 20.4415 -8.94952
649 1 6.28919 12.5793 18.8695 -8.94933
650 1 7.86172 14.1519 20.4415 -8.9505
651 1 9.43425 12.5794 18.8699 -8.94963
652 1 11.0066 14.1524 20.4415 -8.95023
653 1 12.5797 12.5797 18.8711 -8.95162
654 1 14.1524 14.1525 20.4415 -8.95082
655 1 15.7257 12.5799 18.8706 -8.9495
656 1 17.2977 14.1524 20.4415 -8.94942
657 1 18.87 12.5796 18.8696 -8.94946
658 1 20.442 14.152 20.4415 -8.94952
659 1 22.0141 15.7244 18.8693 -8.94951
660 1 1.57228 17.2968 20.4415 -8.9497
661 1 3.14448 15.7243 18.8695 -8.94972
662 1 4.71666 17.2971 20.4415 -8.95002
663 1 6.28894 15.7248 18.8702 -8.95069
664 1 7.86172 17.2973 20.4415 -8.94951
665 1 9.43409 15.7252 18.8702 -8.9496
666 1 11.0069 17.2975 20.4415 -8.94954
667 1 12.5795 15.7253 18.8703 -8.94964
668 1 14.1521 17.2975 20.4415 -8.94957
669 1 15.7255 15.7256 18.8705 -8.95008
670 1 17.2975 17.2976 20.4415 -8.94954
671 1 18.87 15.7248 18.8696 -8.94945
672 1 20.4419 17.297 20.4415 -8.94952
673 1 1.93796e-05 18.8693 18.8693 -8.94956
674 1 1.57214 20.4417 20.4415 -8.94935
675 1 3.14423 18.8696 18.8696 -8.94941
676 1 4.717 20.4417 20.4415 -8.94956
677 1 6.2893 18.8696 18.8696 -8.94949
678 1 7.86196 20.4418 20.4415 -8.94953
351 1 0.000184666 12.5795 22.0136 -8.94954
355 1 6.28919 12.5793 22.0134 -8.94933
357 1 9.43425 12.5794 22.0131 -8.94963
359 1 12.5797 12.5797 22.0119 -8.95162
361 1 15.7257 12.5799 22.0123 -8.9495
379 1 1.93796e-05 18.8693 22.0136 -8.94956
367 1 3.14448 15.7243 22.0135 -8.94972
377 1 18.87 15.7248 22.0134 -8.94945
375 1 15.7255 15.7256 22.0125 -8.95008
539 1 20.4414 20.4418 11.007 -8.94955
387 1 12.5795 18.8698 22.0134 -8.94946
522 1 11.0177 14.1577 11.0293 -8.96743
