ITEM: TIMESTEP
65
ITEM: NUMBER OF ATOMS
688
ITEM: BOX BOUNDS pp pp pp
0.0000000000000000e+00 2.2013900999999997e+01
0.0000000000000000e+00 2.2013900999999997e+01
0.0000000000000000e+00 2.2013900999999997e+01
ITEM: ATOMS id type x y z c_pot
1 1 22.0138 -4.25824e-16 -8.04792e-05 -8.94939
2 1 1.57211 1.57222 1.57211 -8.94926
175 1 18.8697 9.43411 9.43453 -8.94643
4 1 4.71703 1.57214 1.57203 -8.94966
174 1 15.7199 9.43694 9.43453 -8.98732
6 1 7.86203 1.57212 1.572 -8.94952
7 1 9.43451 1.03423e-15 -0.00017234 -8.94959
8 1 11.007 1.57209 1.57199 -8.94955
173 1 12.5909 9.39735 9.43453 -9.12814
10 1 14.1519 1.5721 1.57207 -8.9495
172 1 9.3502 9.21903 9.43453 -8.18887
12 1 17.297 1.57206 1.57208 -8.94955
196 1 20.4417 7.8618 11.0069 -8.94989
14 1 20.4415 1.57228 1.57229 -8.94958
171 1 6.28044 9.42765 9.43453 -8.97379
16 1 1.57218 4.71709 1.57206 -8.94982
170 1 3.14211 9.43496 9.43453 -8.95133
18 1 4.71623 4.71631 1.57094 -8.94928
169 1 22.0134 9.43456 9.43453 -8.94942
20 1 7.86178 4.7164 1.57124 -8.94917
21 1 9.43448 3.14444 -0.000331349 -8.94956
22 1 11.0069 4.71628 1.57128 -8.94938
195 1 17.2984 7.86163 11.006 -8.95131
24 1 14.1522 4.7162 1.5713 -8.94963
168 1 18.8698 6.28885 9.43453 -8.94924
26 1 17.2979 4.71602 1.57126 -8.94814
27 1 18.8694 3.14449 -0.000234438 -8.94922
28 1 20.4419 4.71695 1.5721 -8.94953
167 1 15.7255 6.28796 9.43453 -8.94615
30 1 1.57224 7.86207 1.57209 -8.94944
166 1 12.5775 6.28218 9.43453 -8.96026
32 1 4.71683 7.8623 1.57177 -8.94961
33 1 6.28921 6.28932 -0.000900258 -8.95058
34 1 7.8615 7.86169 1.57004 -8.95247
35 1 9.43424 6.28904 -0.000861396 -8.94957
36 1 11.0066 7.86104 1.56973 -8.95033
165 1 9.4292 6.29263 9.43453 -8.99941
38 1 14.1534 7.86048 1.56864 -8.9518
194 1 14.1583 7.8575 11.0088 -8.978
40 1 17.2979 7.86143 1.57113 -8.94923
164 1 6.27924 6.27989 9.43453 -8.94149
42 1 20.4419 7.86193 1.57203 -8.94949
163 1 3.14076 6.28759 9.43453 -8.94906
44 1 3.14456 9.43452 -0.000260634 -8.94957
162 1 -0.000826162 6.28914 9.43453 -8.94992
161 1 18.8694 3.14442 9.43453 -8.94961
160 1 15.725 3.14378 9.43453 -8.94913
159 1 12.5796 3.14274 9.43453 -8.95117
49 1 18.8696 9.43443 -0.000345556 -8.94953
50 1 -0.000126934 -1.47806e-16 3.14474 -8.94962
51 1 1.57203 1.57216 4.71703 -8.94956
52 1 3.14439 6.99278e-17 3.14439 -8.94955
53 1 4.71648 1.57149 4.71648 -8.94996
54 1 6.2895 1.52335e-16 3.14437 -8.94957
55 1 7.86193 1.57147 4.71653 -8.94961
56 1 9.43455 2.36188e-16 3.14432 -8.94957
57 1 11.0072 1.57152 4.71655 -8.94961
58 1 12.5796 7.88083e-16 3.14438 -8.94952
59 1 14.1522 1.57153 4.71687 -8.95054
60 1 15.7245 1.55617e-15 3.14452 -8.94999
61 1 17.297 1.57208 4.71712 -8.94963
62 1 18.8692 -8.27679e-16 3.14474 -8.94964
63 1 20.4415 1.57229 4.7172 -8.94959
64 1 22.0136 3.14455 3.14456 -8.94958
65 1 1.57118 4.71651 4.71647 -8.94967
66 1 3.14375 3.14387 3.14375 -8.94831
67 1 4.71344 4.71363 4.71353 -8.94471
68 1 6.28913 3.1437 3.14377 -8.94968
69 1 7.86087 4.71378 4.71477 -8.94937
70 1 9.43446 3.14369 3.14382 -8.9494
71 1 11.0073 4.71403 4.71491 -8.94794
72 1 12.5796 3.14363 3.14394 -8.94912
73 1 14.1543 4.71278 4.71476 -8.95068
74 1 15.7252 3.14335 3.14387 -8.94964
75 1 17.2979 4.71601 4.7167 -8.94983
76 1 18.8694 3.1444 3.14458 -8.94969
77 1 20.4416 4.71691 4.71708 -8.94988
78 1 9.07293e-05 6.28949 3.14449 -8.94981
79 1 1.5718 7.86215 4.71679 -8.94985
80 1 3.1439 6.28944 3.14396 -8.95037
81 1 4.7149 7.86209 4.71572 -8.95179
82 1 6.28671 6.28694 3.1403 -8.94927
83 1 7.85459 7.8545 4.70611 -8.95055
84 1 9.43386 6.28731 3.14178 -8.94774
85 1 11.0073 7.85656 4.70855 -8.95008
86 1 12.5802 6.28705 3.14158 -8.9487
87 1 14.1656 7.84882 4.70321 -8.92856
88 1 15.7285 6.28541 3.14053 -8.94415
89 1 17.3013 7.85974 4.71488 -8.95023
90 1 18.8705 6.28874 3.14392 -8.94952
91 1 20.4425 7.86172 4.71678 -8.95019
92 1 22.014 9.43444 3.14437 -8.94955
93 1 3.1441 9.43455 3.14404 -8.94901
94 1 6.28898 9.4352 3.1439 -8.94879
95 1 9.4344 9.43404 3.14237 -8.95203
96 1 12.5823 9.43275 3.13609 -8.95896
97 1 15.728 9.43313 3.14083 -8.94773
98 1 18.8706 9.43419 3.14382 -8.94927
99 1 22.0138 1.15e-15 6.28962 -8.9496
100 1 1.57199 1.57213 7.86202 -8.94956
101 1 3.14431 1.6597e-15 6.28943 -8.94943
102 1 4.71633 1.57141 7.86179 -8.94938
103 1 6.28927 7.60349e-16 6.28926 -8.95058
104 1 7.86189 1.57081 7.86198 -8.95137
105 1 9.43462 8.75097e-16 6.28919 -8.95019
106 1 11.0069 1.5715 7.86203 -8.94944
107 1 12.5796 5.88218e-16 6.28952 -8.95027
108 1 14.1523 1.57164 7.86204 -8.9497
109 1 15.7246 -1.87457e-16 6.28956 -8.94964
110 1 17.297 1.57211 7.86207 -8.94948
111 1 18.8692 2.98308e-17 6.28965 -8.94955
112 1 20.4415 1.57226 7.86208 -8.9496
113 1 -0.000318783 3.1445 6.28954 -8.94949
114 1 1.5711 4.71641 7.86181 -8.9493
115 1 3.14369 3.14378 6.28909 -8.94926
116 1 4.71383 4.71392 7.86087 -8.94768
117 1 6.28808 3.14146 6.28821 -8.95145
118 1 7.85905 4.70916 7.8609 -8.95922
119 1 9.4345 3.14187 6.28849 -8.95039
120 1 11.0055 4.71444 7.86157 -8.94945
121 1 12.5797 3.1424 6.28935 -8.95224
122 1 14.1531 4.71452 7.86203 -8.94837
123 1 15.725 3.14366 6.2895 -8.94951
124 1 17.2975 4.71644 7.86219 -8.94919
125 1 18.8693 3.14449 6.28966 -8.94953
126 1 20.4415 4.71681 7.86204 -8.94953
127 1 22.0132 6.2893 6.28939 -8.95018
128 1 1.57016 7.86181 7.86185 -8.9517
129 1 3.14095 6.28787 6.28785 -8.9508
130 1 4.70718 7.85852 7.85978 -8.95793
131 1 6.27721 6.2777 6.27827 -8.93054
132 1 7.82166 7.82553 7.83064 -8.85805
133 1 9.43322 6.28037 6.2849 -8.95233
134 1 11.0175 7.85572 7.84056 -8.96596
135 1 12.5845 6.2788 6.28419 -8.95584
136 1 14.1583 7.8575 7.86027 -8.978
137 1 15.7275 6.28679 6.28856 -8.94994
138 1 17.2984 7.86163 7.86305 -8.95131
139 1 18.8699 6.28917 6.28974 -8.95014
140 1 20.4417 7.8618 7.86218 -8.94989
141 1 5.04585e-05 9.43454 6.28938 -8.95004
142 1 3.1432 9.4352 6.28909 -8.94989
143 1 6.28542 9.43683 6.28907 -8.95466
144 1 9.41389 9.40605 6.27875 -8.93537
145 1 12.6248 9.39604 6.24997 -8.8933
146 1 15.7367 9.43088 6.28423 -8.9564
147 1 18.872 9.43412 6.28916 -8.95212
148 1 -0.000152322 1.59536e-15 9.43453 -8.9496
149 1 3.14427 1.6396e-15 9.43453 -8.94951
150 1 6.28903 1.43415e-15 9.43453 -8.95027
151 1 9.43468 1.73403e-15 9.43453 -8.94862
152 1 12.5797 1.4371e-15 9.43453 -8.95006
153 1 15.7247 2.13612e-16 9.43453 -8.94957
154 1 18.8692 3.94036e-16 9.43453 -8.9496
155 1 22.0136 3.14447 9.43453 -8.94955
156 1 3.14362 3.14374 9.43453 -8.94949
157 1 6.28754 3.14122 9.43453 -8.94945
158 1 9.43435 3.14353 9.43453 -8.94627
183 1 1.5711 4.71641 11.0072 -8.9493
177 1 4.71633 1.57141 11.0073 -8.94938
181 1 17.297 1.57211 11.007 -8.94948
184 1 4.71383 4.71392 11.0082 -8.94768
3 1 3.14473 -8.11898e-16 -0.000136195 -8.94965
11 1 15.7243 1.97822e-15 -0.000126049 -8.94959
29 1 22.014 6.28962 -0.000129841 -8.94956
37 1 12.5794 6.28901 -0.00090464 -8.94959
176 1 1.57199 1.57213 11.007 -8.94956
48 1 15.7251 9.43421 22.0128 -8.94948
178 1 7.86189 1.57081 11.0071 -8.95137
179 1 11.0069 1.5715 11.007 -8.94944
180 1 14.1523 1.57164 11.007 -8.9497
47 1 12.5794 9.43438 22.0122 -8.95145
343 1 18.8696 9.43443 18.8694 -8.94953
342 1 15.7251 9.43421 18.8702 -8.94948
46 1 9.43429 9.43458 22.0132 -8.94959
185 1 7.85905 4.70916 11.0082 -8.95922
186 1 11.0055 4.71444 11.0075 -8.94945
187 1 14.1531 4.71452 11.007 -8.94837
188 1 17.2975 4.71644 11.0069 -8.94919
189 1 20.4415 4.71681 11.007 -8.94953
190 1 1.57016 7.86181 11.0072 -8.9517
191 1 4.70718 7.85852 11.0093 -8.95793
192 1 7.82166 7.82553 11.0384 -8.85805
341 1 12.5794 9.43438 18.8708 -8.95145
340 1 9.43429 9.43458 18.8698 -8.94959
339 1 6.28932 9.43463 18.8694 -8.94937
338 1 3.14456 9.43452 18.8693 -8.94957
197 1 22.0138 1.4817e-15 12.5794 -8.9496
198 1 1.57203 1.57216 14.152 -8.94956
199 1 3.14431 1.5934e-15 12.5796 -8.94943
200 1 4.71648 1.57149 14.1526 -8.94996
201 1 6.28927 1.61195e-15 12.5798 -8.95058
202 1 7.86193 1.57147 14.1525 -8.94961
203 1 9.43462 1.65364e-15 12.5799 -8.95019
204 1 11.0072 1.57152 14.1525 -8.94961
205 1 12.5796 1.609e-15 12.5795 -8.95027
206 1 14.1522 1.57153 14.1522 -8.95054
207 1 15.7246 -1.3332e-16 12.5795 -8.94964
208 1 17.297 1.57208 14.1519 -8.94963
209 1 18.8692 1.52672e-16 12.5794 -8.94955
210 1 20.4415 1.57229 14.1519 -8.94959
211 1 -0.000318783 3.1445 12.5795 -8.94949
212 1 1.57118 4.71651 14.1526 -8.94967
213 1 3.14369 3.14378 12.58 -8.94926
214 1 4.71344 4.71363 14.1555 -8.94471
215 1 6.28808 3.14146 12.5808 -8.95145
216 1 7.86087 4.71378 14.1543 -8.94937
217 1 9.4345 3.14187 12.5806 -8.95039
218 1 11.0073 4.71403 14.1541 -8.94794
219 1 12.5797 3.1424 12.5797 -8.95224
220 1 14.1543 4.71278 14.1543 -8.95068
221 1 15.725 3.14366 12.5796 -8.94951
222 1 17.2979 4.71601 14.1524 -8.94983
223 1 18.8693 3.14449 12.5794 -8.94953
224 1 20.4416 4.71691 14.152 -8.94988
225 1 22.0132 6.2893 12.5797 -8.95018
226 1 1.5718 7.86215 14.1523 -8.94985
227 1 3.14095 6.28787 12.5812 -8.9508
228 1 4.7149 7.86209 14.1533 -8.95179
229 1 6.27721 6.2777 12.5908 -8.93054
230 1 7.85459 7.8545 14.163 -8.95055
231 1 9.43322 6.28037 12.5842 -8.95233
232 1 11.0073 7.85656 14.1605 -8.95008
233 1 12.5845 6.2788 12.5849 -8.95584
234 1 14.1656 7.84882 14.1658 -8.92856
235 1 15.7275 6.28679 12.5805 -8.94994
236 1 17.3013 7.85974 14.1542 -8.95023
237 1 18.8699 6.28917 12.5793 -8.95014
238 1 20.4425 7.86172 14.1523 -8.95019
239 1 5.04585e-05 9.43454 12.5797 -8.95004
240 1 3.1432 9.4352 12.58 -8.94989
241 1 6.28542 9.43683 12.58 -8.95466
242 1 9.41389 9.40605 12.5903 -8.93537
243 1 12.6248 9.39604 12.6191 -8.8933
244 1 15.7367 9.43088 12.5848 -8.9564
245 1 18.872 9.43412 12.5799 -8.95212
246 1 -0.000126934 1.19154e-15 15.7243 -8.94962
247 1 1.57211 1.57222 17.2969 -8.94926
248 1 3.14439 1.12017e-15 15.7247 -8.94955
249 1 4.71703 1.57214 17.297 -8.94966
250 1 6.2895 1.02135e-15 15.7247 -8.94957
251 1 7.86203 1.57212 17.2971 -8.94952
252 1 9.43455 1.50566e-15 15.7247 -8.94957
253 1 11.007 1.57209 17.2971 -8.94955
254 1 12.5796 1.63961e-15 15.7247 -8.94952
255 1 14.1519 1.5721 17.297 -8.9495
256 1 15.7245 1.14895e-15 15.7245 -8.94999
257 1 17.297 1.57206 17.297 -8.94955
258 1 18.8692 -3.94367e-16 15.7243 -8.94964
259 1 20.4415 1.57228 17.2968 -8.94958
260 1 22.0136 3.14455 15.7245 -8.94958
261 1 1.57218 4.71709 17.297 -8.94982
262 1 3.14375 3.14387 15.7253 -8.94831
263 1 4.71623 4.71631 17.2981 -8.94928
264 1 6.28913 3.1437 15.7253 -8.94968
265 1 7.86178 4.7164 17.2978 -8.94917
266 1 9.43446 3.14369 15.7252 -8.9494
267 1 11.0069 4.71628 17.2978 -8.94938
268 1 12.5796 3.14363 15.7251 -8.94912
269 1 14.1522 4.7162 17.2978 -8.94963
270 1 15.7252 3.14335 15.7252 -8.94964
271 1 17.2979 4.71602 17.2978 -8.94814
272 1 18.8694 3.1444 15.7245 -8.94969
273 1 20.4419 4.71695 17.297 -8.94953
274 1 9.07293e-05 6.28949 15.7246 -8.94981
275 1 1.57224 7.86207 17.297 -8.94944
276 1 3.1439 6.28944 15.7251 -8.95037
277 1 4.71683 7.8623 17.2973 -8.94961
278 1 6.28671 6.28694 15.7288 -8.94927
279 1 7.8615 7.86169 17.299 -8.95247
280 1 9.43386 6.28731 15.7273 -8.94774
281 1 11.0066 7.86104 17.2993 -8.95033
282 1 12.5802 6.28705 15.7275 -8.9487
283 1 14.1534 7.86048 17.3004 -8.9518
284 1 15.7285 6.28541 15.7285 -8.94415
285 1 17.2979 7.86143 17.2979 -8.94923
286 1 18.8705 6.28874 15.7251 -8.94952
287 1 20.4419 7.86193 17.297 -8.94949
288 1 22.014 9.43444 15.7247 -8.94955
289 1 3.1441 9.43455 15.725 -8.94901
290 1 6.28898 9.4352 15.7252 -8.94879
291 1 9.4344 9.43404 15.7267 -8.95203
292 1 12.5823 9.43275 15.733 -8.95896
293 1 15.728 9.43313 15.7282 -8.94773
294 1 18.8706 9.43419 15.7252 -8.94927
295 1 22.0138 -1.23822e-17 18.8691 -8.94939
296 1 1.5723 1.57229 20.4415 -8.94947
297 1 3.14473 6.92327e-16 18.8692 -8.94965
298 1 4.71719 1.5723 20.4415 -8.9496
299 1 6.28962 6.28363e-16 18.8692 -8.94958
300 1 7.86206 1.57227 20.4415 -8.94959
301 1 9.43451 1.02647e-15 18.8692 -8.94959
302 1 11.007 1.57226 20.4415 -8.9496
303 1 12.5794 1.85807e-15 18.8692 -8.94959
304 1 14.1518 1.57227 20.4415 -8.94958
305 1 15.7243 1.62344e-15 18.8692 -8.94959
306 1 17.2967 1.57229 20.4415 -8.94967
307 1 18.8692 3.98006e-16 18.8692 -8.94951
308 1 20.4416 1.57233 20.4415 -8.9494
309 1 1.4263e-05 3.14473 18.8692 -8.94961
310 1 1.57236 4.71723 20.4415 -8.9497
311 1 3.1445 3.14451 18.8694 -8.94946
312 1 4.71692 4.71696 20.4415 -8.94995
313 1 6.28953 3.14452 18.8694 -8.94953
314 1 7.86191 4.71685 20.4415 -8.94952
315 1 9.43448 3.14444 18.8694 -8.94956
316 1 11.0069 4.71678 20.4415 -8.94956
317 1 12.5794 3.14444 18.8694 -8.94952
318 1 14.1519 4.71682 20.4415 -8.94958
319 1 15.7244 3.14446 18.8693 -8.94967
320 1 17.2971 4.71677 20.4415 -8.94958
321 1 18.8694 3.14449 18.8693 -8.94922
322 1 20.4416 4.71715 20.4415 -8.9496
323 1 22.014 6.28962 18.8692 -8.94956
324 1 1.57232 7.86207 20.4415 -8.94957
325 1 3.14465 6.28969 18.8693 -8.94971
326 1 4.71701 7.86215 20.4415 -8.94953
327 1 6.28921 6.28932 18.87 -8.95058
328 1 7.86186 7.86202 20.4415 -8.95042
329 1 9.43424 6.28904 18.8699 -8.94957
330 1 11.0067 7.86172 20.4415 -8.95014
331 1 12.5794 6.28901 18.87 -8.94959
332 1 14.1521 7.86166 20.4415 -8.95072
333 1 15.725 6.28884 18.8701 -8.95006
334 1 17.2972 7.86183 20.4415 -8.94947
335 1 18.8695 6.28941 18.8694 -8.94954
336 1 20.4417 7.86203 20.4415 -8.94959
337 1 4.18934e-05 9.4345 18.8692 -8.94959
45 1 6.28932 9.43463 22.0135 -8.94937
5 1 6.28962 3.12344e-16 22.0137 -8.94958
9 1 12.5794 1.3645e-15 22.0137 -8.94959
43 1 4.18934e-05 9.4345 22.0137 -8.94959
15 1 1.4263e-05 3.14473 22.0138 -8.94961
17 1 3.1445 3.14451 22.0135 -8.94946
19 1 6.28953 3.14452 22.0136 -8.94953
25 1 15.7244 3.14446 22.0136 -8.94967
41 1 18.8695 6.28941 22.0136 -8.94954
31 1 3.14465 6.28969 22.0137 -8.94971
13 1 18.8692 -1.10089e-16 22.0138 -8.94951
23 1 12.5794 3.14444 22.0136 -8.94952
39 1 15.725 6.28884 22.0128 -8.95006
182 1 20.4415 1.57226 11.007 -8.9496
193 1 11.0175 7.85572 11.0285 -8.96596
344 1 1.57221 11.007 1.57203 -8.94958
345 1 4.71668 11.007 1.57166 -8.94965
346 1 7.86171 11.007 1.57192 -8.94838
347 1 11.0068 11.007 1.57086 -8.94763
348 1 14.1538 11.007 1.56849 -8.94984
349 1 17.298 11.007 1.5711 -8.94939
350 1 20.4419 11.007 1.572 -8.94954
688 3 10.2888 11.007 9.43453 2.19138
352 1 1.57224 14.1518 1.57209 -8.94944
353 1 3.14456 12.5794 -0.000260634 -8.94957
354 1 4.71683 14.1516 1.57177 -8.94961
687 2 11.6775 11.007 9.43453 0.195347
356 1 7.8615 14.1522 1.57004 -8.95247
511 1 18.8694 18.8695 9.43453 -8.94961
358 1 11.0066 14.1529 1.56973 -8.95033
510 1 15.725 18.8701 9.43453 -8.94913
360 1 14.1534 14.1534 1.56864 -8.9518
509 1 12.5796 18.8712 9.43453 -8.95117
362 1 17.2979 14.1525 1.57113 -8.94923
363 1 18.8696 12.5795 -0.000345556 -8.94953
364 1 20.4419 14.152 1.57203 -8.94949
508 1 9.43435 18.8704 9.43453 -8.94627
366 1 1.57218 17.2968 1.57206 -8.94982
507 1 6.28754 18.8727 9.43453 -8.94945
368 1 4.71623 17.2976 1.57094 -8.94928
369 1 6.28921 15.7246 -0.000900258 -8.95058
370 1 7.86178 17.2975 1.57124 -8.94917
371 1 9.43424 15.7249 -0.000861396 -8.94957
372 1 11.0069 17.2976 1.57128 -8.94938
506 1 3.14362 18.8702 9.43453 -8.94949
374 1 14.1522 17.2977 1.5713 -8.94963
526 1 1.5711 17.2975 11.0072 -8.9493
376 1 17.2979 17.2979 1.57126 -8.94814
505 1 22.0136 18.8694 9.43453 -8.94955
378 1 20.4419 17.297 1.5721 -8.94953
504 1 18.8698 15.725 9.43453 -8.94924
380 1 1.57211 20.4417 1.57211 -8.94926
503 1 15.7255 15.7259 9.43453 -8.94615
382 1 4.71703 20.4418 1.57203 -8.94966
502 1 12.5775 15.7317 9.43453 -8.96026
384 1 7.86203 20.4418 1.572 -8.94952
385 1 9.43448 18.8695 -0.000331349 -8.94956
386 1 11.007 20.4418 1.57199 -8.94955
525 1 20.4417 14.1521 11.0069 -8.94989
388 1 14.1519 20.4418 1.57207 -8.9495
501 1 9.4292 15.7213 9.43453 -8.99941
390 1 17.297 20.4418 1.57208 -8.94955
391 1 18.8694 18.8694 -0.000234438 -8.94922
392 1 20.4415 20.4416 1.57229 -8.94958
393 1 1.5718 11.007 4.71651 -8.94957
394 1 4.71548 11.007 4.71552 -8.94665
395 1 7.86303 11.007 4.71844 -8.94516
396 1 11.0117 11.007 4.71647 -9.01389
397 1 14.1628 11.007 4.70565 -8.94398
398 1 17.3013 11.007 4.71466 -8.94856
399 1 20.4426 11.007 4.71663 -8.94988
400 1 22.014 12.5795 3.14437 -8.94955
401 1 1.5718 14.1518 4.71679 -8.94985
402 1 3.1441 12.5793 3.14404 -8.94901
403 1 4.7149 14.1518 4.71572 -8.95179
404 1 6.28898 12.5787 3.1439 -8.94879
405 1 7.85459 14.1594 4.70611 -8.95055
406 1 9.4344 12.5799 3.14237 -8.95203
407 1 11.0073 14.1573 4.70855 -8.95008
408 1 12.5823 12.5811 3.13609 -8.95896
409 1 14.1656 14.1651 4.70321 -8.92856
410 1 15.728 12.5808 3.14083 -8.94773
411 1 17.3013 14.1542 4.71488 -8.95023
412 1 18.8706 12.5797 3.14382 -8.94927
413 1 20.4425 14.1522 4.71678 -8.95019
414 1 9.07293e-05 15.7244 3.14449 -8.94981
415 1 1.57118 17.2974 4.71647 -8.94967
416 1 3.1439 15.7245 3.14396 -8.95037
417 1 4.71344 17.3003 4.71353 -8.94471
418 1 6.28671 15.727 3.1403 -8.94927
419 1 7.86087 17.3001 4.71477 -8.94937
420 1 9.43386 15.7266 3.14178 -8.94774
421 1 11.0073 17.2999 4.71491 -8.94794
422 1 12.5802 15.7268 3.14158 -8.9487
423 1 14.1543 17.3011 4.71476 -8.95068
424 1 15.7285 15.7285 3.14053 -8.94415
425 1 17.2979 17.2979 4.7167 -8.94983
426 1 18.8705 15.7252 3.14392 -8.94952
427 1 20.4416 17.297 4.71708 -8.94988
428 1 22.0136 18.8694 3.14456 -8.94958
429 1 1.57203 20.4417 4.71703 -8.94956
430 1 3.14375 18.87 3.14375 -8.94831
431 1 4.71648 20.4424 4.71648 -8.94996
432 1 6.28913 18.8702 3.14377 -8.94968
433 1 7.86193 20.4424 4.71653 -8.94961
434 1 9.43446 18.8702 3.14382 -8.9494
435 1 11.0072 20.4424 4.71655 -8.94961
436 1 12.5796 18.8703 3.14394 -8.94912
437 1 14.1522 20.4424 4.71687 -8.95054
438 1 15.7252 18.8706 3.14387 -8.94964
439 1 17.297 20.4418 4.71712 -8.94963
440 1 18.8694 18.8695 3.14458 -8.94969
441 1 20.4415 20.4416 4.7172 -8.94959
442 1 1.57187 11.007 7.86179 -8.94789
443 1 4.71867 11.007 7.86241 -8.93949
444 1 7.88316 11.007 7.871 -8.96772
445 1 11.0748 11.007 7.5844 -8.31511
446 1 14.1687 11.007 7.84631 -9.0161
447 1 17.3008 11.007 7.86232 -8.9537
448 1 20.4424 11.007 7.86222 -8.94995
449 1 5.04585e-05 12.5794 6.28938 -8.95004
450 1 1.57016 14.1521 7.86185 -8.9517
451 1 3.1432 12.5787 6.28909 -8.94989
452 1 4.70718 14.1554 7.85978 -8.95793
453 1 6.28542 12.5771 6.28907 -8.95466
454 1 7.82166 14.1884 7.83064 -8.85805
455 1 9.41389 12.6078 6.27875 -8.93537
456 1 11.0175 14.1582 7.84056 -8.96596
457 1 12.6248 12.6179 6.24997 -8.8933
458 1 14.1583 14.1564 7.86027 -8.978
459 1 15.7367 12.583 6.28423 -8.9564
460 1 17.2984 14.1523 7.86305 -8.95131
461 1 18.872 12.5798 6.28916 -8.95212
462 1 20.4417 14.1521 7.86218 -8.94989
463 1 22.0132 15.7246 6.28939 -8.95018
464 1 1.5711 17.2975 7.86181 -8.9493
465 1 3.14095 15.726 6.28785 -8.9508
466 1 4.71383 17.3 7.86087 -8.94768
467 1 6.27721 15.7362 6.27827 -8.93054
468 1 7.85905 17.3047 7.8609 -8.95922
469 1 9.43322 15.7335 6.2849 -8.95233
470 1 11.0055 17.2995 7.86157 -8.94945
471 1 12.5845 15.7351 6.28419 -8.95584
472 1 14.1531 17.2994 7.86203 -8.94837
473 1 15.7275 15.7271 6.28856 -8.94994
474 1 17.2975 17.2975 7.86219 -8.94919
475 1 18.8699 15.7247 6.28974 -8.95014
476 1 20.4415 17.2971 7.86204 -8.94953
477 1 -0.000318783 18.8694 6.28954 -8.94949
478 1 1.57199 20.4418 7.86202 -8.94956
479 1 3.14369 18.8701 6.28909 -8.94926
480 1 4.71633 20.4425 7.86179 -8.94938
481 1 6.28808 18.8724 6.28821 -8.95145
482 1 7.86189 20.4431 7.86198 -8.95137
483 1 9.4345 18.872 6.28849 -8.95039
484 1 11.0069 20.4424 7.86203 -8.94944
485 1 12.5797 18.8715 6.28935 -8.95224
486 1 14.1523 20.4423 7.86204 -8.9497
487 1 15.725 18.8702 6.2895 -8.94951
488 1 17.297 20.4418 7.86207 -8.94948
489 1 18.8693 18.8694 6.28966 -8.94953
490 1 20.4415 20.4416 7.86208 -8.9496
491 1 22.0134 12.5793 9.43453 -8.94942
492 1 3.14211 12.5789 9.43453 -8.95133
493 1 6.28044 12.5862 9.43453 -8.97379
494 1 9.3502 12.7949 9.43453 -8.18887
495 1 12.5909 12.6166 9.43453 -9.12814
496 1 15.7199 12.577 9.43453 -8.98732
497 1 18.8697 12.5798 9.43453 -8.94643
498 1 -0.000826162 15.7248 9.43453 -8.94992
499 1 3.14076 15.7263 9.43453 -8.94906
500 1 6.27924 15.734 9.43453 -8.94149
517 1 17.3008 11.007 11.0067 -8.9537
518 1 20.4424 11.007 11.0068 -8.94995
524 1 17.2984 14.1523 11.006 -8.95131
523 1 14.1583 14.1564 11.0088 -8.978
527 1 4.71383 17.3 11.0082 -8.94768
534 1 4.71633 20.4425 11.0073 -8.94938
538 1 17.297 20.4418 11.007 -8.94948
365 1 22.014 15.7243 -0.000129841 -8.94956
373 1 12.5794 15.7249 -0.00090464 -8.94959
512 1 1.57187 11.007 11.0073 -8.94789
513 1 4.71867 11.007 11.0067 -8.93949
514 1 7.88316 11.007 10.9981 -8.96772
515 1 11.0748 11.007 11.2847 -8.31511
516 1 14.1687 11.007 11.0228 -9.0161
686 1 20.4416 20.4416 20.4415 -8.9494
685 1 18.8694 18.8694 18.8693 -8.94922
519 1 1.57016 14.1521 11.0072 -8.9517
520 1 4.70718 14.1554 11.0093 -8.95793
521 1 7.82166 14.1884 11.0384 -8.85805
684 1 17.2967 20.4416 20.4415 -8.94967
683 1 15.7244 18.8694 18.8693 -8.94967
682 1 14.1518 20.4416 20.4415 -8.94958
681 1 12.5794 18.8695 18.8694 -8.94952
680 1 11.007 20.4416 20.4415 -8.9496
389 1 15.7244 18.8694 22.0136 -8.94967
528 1 7.85905 17.3047 11.0082 -8.95922
529 1 11.0055 17.2995 11.0075 -8.94945
530 1 14.1531 17.2994 11.007 -8.94837
531 1 17.2975 17.2975 11.0069 -8.94919
532 1 20.4415 17.2971 11.007 -8.94953
533 1 1.57199 20.4418 11.007 -8.94956
383 1 6.28953 18.8694 22.0136 -8.94953
535 1 7.86189 20.4431 11.0071 -8.95137
536 1 11.0069 20.4424 11.007 -8.94944
537 1 14.1523 20.4423 11.007 -8.9497
381 1 3.1445 18.8694 22.0135 -8.94946
679 1 9.43448 18.8695 18.8694 -8.94956
540 1 1.5718 11.007 14.1525 -8.94957
541 1 4.71548 11.007 14.1535 -8.94665
542 1 7.86303 11.007 14.1506 -8.94516
543 1 11.0117 11.007 14.1526 -9.01389
544 1 14.1628 11.007 14.1634 -8.94398
545 1 17.3013 11.007 14.1544 -8.94856
546 1 20.4426 11.007 14.1524 -8.94988
547 1 5.04585e-05 12.5794 12.5797 -8.95004
548 1 1.5718 14.1518 14.1523 -8.94985
549 1 3.1432 12.5787 12.58 -8.94989
550 1 4.7149 14.1518 14.1533 -8.95179
551 1 6.28542 12.5771 12.58 -8.95466
552 1 7.85459 14.1594 14.163 -8.95055
553 1 9.41389 12.6078 12.5903 -8.93537
554 1 11.0073 14.1573 14.1605 -8.95008
555 1 12.6248 12.6179 12.6191 -8.8933
556 1 14.1656 14.1651 14.1658 -8.92856
557 1 15.7367 12.583 12.5848 -8.9564
558 1 17.3013 14.1542 14.1542 -8.95023
559 1 18.872 12.5798 12.5799 -8.95212
560 1 20.4425 14.1522 14.1523 -8.95019
561 1 22.0132 15.7246 12.5797 -8.95018
562 1 1.57118 17.2974 14.1526 -8.94967
563 1 3.14095 15.726 12.5812 -8.9508
564 1 4.71344 17.3003 14.1555 -8.94471
565 1 6.27721 15.7362 12.5908 -8.93054
566 1 7.86087 17.3001 14.1543 -8.94937
567 1 9.43322 15.7335 12.5842 -8.95233
568 1 11.0073 17.2999 14.1541 -8.94794
569 1 12.5845 15.7351 12.5849 -8.95584
570 1 14.1543 17.3011 14.1543 -8.95068
571 1 15.7275 15.7271 12.5805 -8.94994
572 1 17.2979 17.2979 14.1524 -8.94983
573 1 18.8699 15.7247 12.5793 -8.95014
574 1 20.4416 17.297 14.152 -8.94988
575 1 -0.000318783 18.8694 12.5795 -8.94949
576 1 1.57203 20.4417 14.152 -8.94956
577 1 3.14369 18.8701 12.58 -8.94926
578 1 4.71648 20.4424 14.1526 -8.94996
579 1 6.28808 18.8724 12.5808 -8.95145
580 1 7.86193 20.4424 14.1525 -8.94961
581 1 9.4345 18.872 12.5806 -8.95039
582 1 11.0072 20.4424 14.1525 -8.94961
583 1 12.5797 18.8715 12.5797 -8.95224
584 1 14.1522 20.4424 14.1522 -8.95054
585 1 15.725 18.8702 12.5796 -8.94951
586 1 17.297 20.4418 14.1519 -8.94963
587 1 18.8693 18.8694 12.5794 -8.94953
588 1 20.4415 20.4416 14.1519 -8.94959
589 1 1.57221 11.007 17.297 -8.94958
590 1 4.71668 11.007 17.2974 -8.94965
591 1 7.86171 11.007 17.2971 -8.94838
592 1 11.0068 11.007 17.2982 -8.94763
593 1 14.1538 11.007 17.3006 -8.94984
594 1 17.298 11.007 17.298 -8.94939
595 1 20.4419 11.007 17.2971 -8.94954
596 1 22.014 12.5795 15.7247 -8.94955
597 1 1.57224 14.1518 17.297 -8.94944
598 1 3.1441 12.5793 15.725 -8.94901
599 1 4.71683 14.1516 17.2973 -8.94961
600 1 6.28898 12.5787 15.7252 -8.94879
601 1 7.8615 14.1522 17.299 -8.95247
602 1 9.4344 12.5799 15.7267 -8.95203
603 1 11.0066 14.1529 17.2993 -8.95033
604 1 12.5823 12.5811 15.733 -8.95896
605 1 14.1534 14.1534 17.3004 -8.9518
606 1 15.728 12.5808 15.7282 -8.94773
607 1 17.2979 14.1525 17.2979 -8.94923
608 1 18.8706 12.5797 15.7252 -8.94927
609 1 20.4419 14.152 17.297 -8.94949
610 1 9.07293e-05 15.7244 15.7246 -8.94981
611 1 1.57218 17.2968 17.297 -8.94982
612 1 3.1439 15.7245 15.7251 -8.95037
613 1 4.71623 17.2976 17.2981 -8.94928
614 1 6.28671 15.727 15.7288 -8.94927
615 1 7.86178 17.2975 17.2978 -8.94917
616 1 9.43386 15.7266 15.7273 -8.94774
617 1 11.0069 17.2976 17.2978 -8.94938
618 1 12.5802 15.7268 15.7275 -8.9487
619 1 14.1522 17.2977 17.2978 -8.94963
620 1 15.7285 15.7285 15.7285 -8.94415
621 1 17.2979 17.2979 17.2978 -8.94814
622 1 18.8705 15.7252 15.7251 -8.94952
623 1 20.4419 17.297 17.297 -8.94953
624 1 22.0136 18.8694 15.7245 -8.94958
625 1 1.57211 20.4417 17.2969 -8.94926
626 1 3.14375 18.87 15.7253 -8.94831
627 1 4.71703 20.4418 17.297 -8.94966
628 1 6.28913 18.8702 15.7253 -8.94968
629 1 7.86203 20.4418 17.2971 -8.94952
630 1 9.43446 18.8702 15.7252 -8.9494
631 1 11.007 20.4418 17.2971 -8.94955
632 1 12.5796 18.8703 15.7251 -8.94912
633 1 14.1519 20.4418 17.297 -8.9495
634 1 15.7252 18.8706 15.7252 -8.94964
635 1 17.297 20.4418 17.297 -8.94955
636 1 18.8694 18.8695 15.7245 -8.94969
637 1 20.4415 20.4416 17.2968 -8.94958
638 1 1.57231 11.007 20.4415 -8.94961
639 1 4.71694 11.007 20.4415 -8.94967
640 1 7.86175 11.007 20.4415 -8.94928
641 1 11.0067 11.007 20.4415 -8.94884
642 1 14.1524 11.007 20.4415 -8.95035
643 1 17.2973 11.007 20.4415 -8.94952
644 1 20.4417 11.007 20.4415 -8.9496
645 1 4.18934e-05 12.5794 18.8692 -8.94959
646 1 1.57232 14.1518 20.4415 -8.94957
647 1 3.14456 12.5794 18.8693 -8.94957
648 1 4.71701 14.1518 20.4415 -8.94953
649 1 6.28932 12.5793 18.8694 -8.94937
650 1 7.86186 14.1519 20.4415 -8.95042
651 1 9.43429 12.5793 18.8698 -8.94959
652 1 11.0067 14.1522 20.4415 -8.95014
653 1 12.5794 12.5795 18.8708 -8.95145
654 1 14.1521 14.1522 20.4415 -8.95072
655 1 15.7251 12.5797 18.8702 -8.94948
656 1 17.2972 14.1521 20.4415 -8.94947
657 1 18.8696 12.5795 18.8694 -8.94953
658 1 20.4417 14.1519 20.4415 -8.94959
659 1 22.014 15.7243 18.8692 -8.94956
660 1 1.57236 17.2967 20.4415 -8.9497
661 1 3.14465 15.7242 18.8693 -8.94971
662 1 4.71692 17.2969 20.4415 -8.94995
663 1 6.28921 15.7246 18.87 -8.95058
664 1 7.86191 17.297 20.4415 -8.94952
665 1 9.43424 15.7249 18.8699 -8.94957
666 1 11.0069 17.2971 20.4415 -8.94956
667 1 12.5794 15.7249 18.87 -8.94959
668 1 14.1519 17.2971 20.4415 -8.94958
669 1 15.725 15.7251 18.8701 -8.95006
670 1 17.2971 17.2971 20.4415 -8.94958
671 1 18.8695 15.7245 18.8694 -8.94954
672 1 20.4416 17.2968 20.4415 -8.9496
673 1 1.4263e-05 18.8692 18.8692 -8.94961
674 1 1.5723 20.4416 20.4415 -8.94947
675 1 3.1445 18.8694 18.8694 -8.94946
676 1 4.71719 20.4416 20.4415 -8.9496
677 1 6.28953 18.8694 18.8694 -8.94953
678 1 7.86206 20.4416 20.4415 -8.94959
351 1 4.18934e-05 12.5794 22.0137 -8.94959
355 1 6.28932 12.5793 22.0135 -8.94937
357 1 9.43429 12.5793 22.0132 -8.94959
359 1 12.5794 12.5795 22.0122 -8.95145
361 1 15.7251 12.5797 22.0128 -8.94948
379 1 1.4263e-05 18.8692 22.0138 -8.94961
367 1 3.14465 15.7242 22.0137 -8.94971
377 1 18.8695 15.7245 22.0136 -8.94954
375 1 15.725 15.7251 22.0128 -8.95006
539 1 20.4415 20.4416 11.007 -8.9496
387 1 12.5794 18.8695 22.0136 -8.94952
522 1 11.0175 14.1582 11.0285 -8.96596
