ITEM: TIMESTEP
72
ITEM: NUMBER OF ATOMS
688
ITEM: BOX BOUNDS pp pp pp
0.0000000000000000e+00 2.2013900999999997e+01
0.0000000000000000e+00 2.2013900999999997e+01
0.0000000000000000e+00 2.2013900999999997e+01
ITEM: ATOMS id type x y z c_pot
1 1 22.0138 3.46449e-16 -0.000117522 -8.94934
2 1 1.57202 1.57217 1.57202 -8.94923
175 1 18.8696 9.43412 9.43453 -8.9463
4 1 4.71693 1.57206 1.5719 -8.94964
174 1 15.7195 9.43717 9.43453 -8.98681
6 1 7.86199 1.57204 1.57189 -8.9495
7 1 9.4345 5.86458e-16 -0.0002326 -8.94957
8 1 11.007 1.57202 1.57189 -8.94953
173 1 12.5909 9.39822 9.43453 -9.12637
10 1 14.152 1.57201 1.57198 -8.94949
172 1 9.35073 9.21993 9.43453 -8.19068
12 1 17.2971 1.57197 1.57198 -8.94955
196 1 20.4417 7.86177 11.0069 -8.94987
14 1 20.4415 1.57223 1.57224 -8.94956
171 1 6.28063 9.42749 9.43453 -8.97376
16 1 1.5721 4.71702 1.57195 -8.94983
170 1 3.14212 9.43489 9.43453 -8.95128
18 1 4.71606 4.71616 1.57073 -8.94926
169 1 22.0134 9.43455 9.43453 -8.94935
20 1 7.86167 4.71624 1.57106 -8.94915
21 1 9.43445 3.14434 -0.00040627 -8.94954
22 1 11.0069 4.71611 1.57111 -8.94936
195 1 17.2984 7.86163 11.006 -8.95135
24 1 14.1524 4.71597 1.57109 -8.94961
168 1 18.8698 6.28878 9.43453 -8.94924
26 1 17.2981 4.7158 1.57108 -8.94809
27 1 18.8695 3.14439 -0.000296568 -8.94917
28 1 20.4419 4.71685 1.57201 -8.94952
167 1 15.7254 6.28795 9.43453 -8.94611
30 1 1.57222 7.86205 1.572 -8.94943
166 1 12.5774 6.28238 9.43453 -8.96005
32 1 4.71674 7.86228 1.57166 -8.94961
33 1 6.28912 6.28926 -0.00100711 -8.95063
34 1 7.86142 7.8616 1.56989 -8.95252
35 1 9.43418 6.28894 -0.000959555 -8.94958
36 1 11.0066 7.8609 1.56953 -8.95038
165 1 9.42912 6.29285 9.43453 -8.99919
38 1 14.1536 7.86028 1.56833 -8.95183
194 1 14.1582 7.85763 11.0089 -8.97779
40 1 17.2982 7.86127 1.57091 -8.94919
164 1 6.27882 6.27954 9.43453 -8.94146
42 1 20.442 7.86187 1.57192 -8.94947
163 1 3.14042 6.28736 9.43453 -8.94906
44 1 3.14451 9.43452 -0.000305859 -8.94956
162 1 -0.000953251 6.28905 9.43453 -8.94994
161 1 18.8694 3.14433 9.43453 -8.94959
160 1 15.725 3.1437 9.43453 -8.9491
159 1 12.5795 3.14277 9.43453 -8.95112
49 1 18.8697 9.43439 -0.000433222 -8.9495
50 1 -0.000183725 -3.81879e-17 3.14468 -8.9496
51 1 1.57191 1.57209 4.71693 -8.94952
52 1 3.14427 4.30718e-16 3.14426 -8.94955
53 1 4.71633 1.57137 4.71633 -8.94998
54 1 6.28942 5.38916e-16 3.14423 -8.94957
55 1 7.86186 1.57134 4.7164 -8.94965
56 1 9.43455 2.87033e-16 3.1442 -8.94956
57 1 11.0072 1.57142 4.71645 -8.94963
58 1 12.5796 4.42964e-16 3.14429 -8.94953
59 1 14.1523 1.57142 4.71681 -8.95061
60 1 15.7246 1.39975e-15 3.14444 -8.95003
61 1 17.2971 1.572 4.71708 -8.94964
62 1 18.8692 -2.47231e-16 3.1447 -8.94964
63 1 20.4415 1.57224 4.71716 -8.94957
64 1 22.0136 3.14447 3.14447 -8.94958
65 1 1.571 4.71638 4.71634 -8.94967
66 1 3.14356 3.14373 3.14357 -8.94828
67 1 4.71314 4.71337 4.71328 -8.94472
68 1 6.28898 3.14351 3.14356 -8.94967
69 1 7.86064 4.71344 4.71453 -8.9494
70 1 9.43442 3.14351 3.14365 -8.94938
71 1 11.0073 4.71374 4.71469 -8.94793
72 1 12.5797 3.14343 3.14379 -8.94911
73 1 14.1545 4.71244 4.71451 -8.95069
74 1 15.7253 3.14313 3.14372 -8.94965
75 1 17.2981 4.71582 4.7166 -8.94987
76 1 18.8695 3.14428 3.14451 -8.9497
77 1 20.4416 4.71681 4.71703 -8.94991
78 1 0.000105033 6.28943 3.1444 -8.94984
79 1 1.57172 7.86213 4.71671 -8.94989
80 1 3.14373 6.28934 3.14379 -8.9504
81 1 4.71466 7.86195 4.71558 -8.95185
82 1 6.28642 6.28668 3.14 -8.94919
83 1 7.85423 7.85402 4.70579 -8.95022
84 1 9.43378 6.28704 3.14152 -8.94768
85 1 11.0075 7.85616 4.7081 -8.94992
86 1 12.5805 6.28674 3.14123 -8.94867
87 1 14.1661 7.8484 4.70268 -8.92831
88 1 15.7288 6.28506 3.1402 -8.94405
89 1 17.3017 7.85953 4.71466 -8.95024
90 1 18.8708 6.28857 3.14377 -8.94952
91 1 20.4426 7.86165 4.7167 -8.95023
92 1 22.0141 9.43442 3.14427 -8.94955
93 1 3.14404 9.43455 3.14395 -8.949
94 1 6.2889 9.43515 3.14384 -8.94875
95 1 9.4344 9.43389 3.14223 -8.95212
96 1 12.5826 9.43259 3.13567 -8.95903
97 1 15.7285 9.43296 3.14043 -8.94766
98 1 18.8709 9.43411 3.14364 -8.94926
99 1 22.0137 9.60472e-16 6.28958 -8.94957
100 1 1.57185 1.57205 7.86198 -8.94953
101 1 3.14415 1.67775e-15 6.28934 -8.94941
102 1 4.71614 1.57127 7.86172 -8.94938
103 1 6.28918 1.03996e-15 6.28918 -8.95061
104 1 7.86181 1.57073 7.86196 -8.95138
105 1 9.43462 4.78402e-16 6.28914 -8.95023
106 1 11.0069 1.57149 7.86203 -8.9494
107 1 12.5796 5.94329e-16 6.28951 -8.9503
108 1 14.1523 1.5716 7.86204 -8.94969
109 1 15.7247 1.60335e-16 6.28955 -8.94964
110 1 17.2971 1.57206 7.86207 -8.94946
111 1 18.8693 1.80285e-16 6.28962 -8.94953
112 1 20.4415 1.57221 7.86206 -8.94958
113 1 -0.000409713 3.1444 6.28948 -8.94947
114 1 1.57088 4.71626 7.86175 -8.94929
115 1 3.14345 3.14359 6.28895 -8.94922
116 1 4.71345 4.7136 7.86076 -8.94764
117 1 6.28787 3.14122 6.28808 -8.95147
118 1 7.85879 4.70899 7.86086 -8.95924
119 1 9.43443 3.1417 6.2884 -8.95046
120 1 11.0054 4.71447 7.86151 -8.94944
121 1 12.5797 3.14226 6.2893 -8.95233
122 1 14.1531 4.71446 7.86201 -8.94831
123 1 15.7251 3.14353 6.28948 -8.94952
124 1 17.2976 4.71634 7.86219 -8.94917
125 1 18.8694 3.1444 6.28964 -8.94951
126 1 20.4415 4.71671 7.86202 -8.94953
127 1 22.0131 6.28923 6.28935 -8.95021
128 1 1.57002 7.86175 7.86183 -8.95172
129 1 3.14065 6.28769 6.28771 -8.9508
130 1 4.70695 7.85828 7.85974 -8.95789
131 1 6.27686 6.27739 6.27812 -8.93071
132 1 7.8217 7.82544 7.83086 -8.85865
133 1 9.43304 6.28003 6.28466 -8.95247
134 1 11.0177 7.85583 7.84021 -8.96638
135 1 12.5847 6.27848 6.28385 -8.95589
136 1 14.1582 7.85763 7.86018 -8.97779
137 1 15.7277 6.28661 6.28845 -8.95005
138 1 17.2984 7.86163 7.86307 -8.95135
139 1 18.87 6.28909 6.28972 -8.95019
140 1 20.4417 7.86177 7.86218 -8.94987
141 1 7.99173e-05 9.43454 6.28935 -8.95006
142 1 3.14314 9.43518 6.28907 -8.94995
143 1 6.28529 9.43666 6.28905 -8.95488
144 1 9.4135 9.4054 6.27809 -8.9348
145 1 12.6253 9.39568 6.24912 -8.89271
146 1 15.7371 9.43075 6.28387 -8.95644
147 1 18.8722 9.43409 6.28909 -8.9522
148 1 -0.000219276 1.43916e-15 9.43453 -8.94958
149 1 3.14411 1.55799e-15 9.43453 -8.94949
150 1 6.2889 1.67772e-15 9.43453 -8.95031
151 1 9.43465 1.83659e-15 9.43453 -8.94852
152 1 12.5797 1.39351e-15 9.43453 -8.95001
153 1 15.7247 7.28945e-16 9.43453 -8.94956
154 1 18.8693 8.94733e-17 9.43453 -8.94958
155 1 22.0135 3.14437 9.43453 -8.94953
156 1 3.14337 3.14355 9.43453 -8.94947
157 1 6.28726 3.14097 9.43453 -8.94948
158 1 9.43424 3.14358 9.43453 -8.94617
183 1 1.57088 4.71626 11.0073 -8.94929
177 1 4.71614 1.57127 11.0073 -8.94938
181 1 17.2971 1.57206 11.007 -8.94946
184 1 4.71345 4.7136 11.0083 -8.94764
3 1 3.14466 -8.41694e-17 -0.000195601 -8.94963
11 1 15.7243 1.78763e-15 -0.000177402 -8.94957
29 1 22.014 6.28958 -0.000180413 -8.94954
37 1 12.5794 6.28887 -0.0010331 -8.94961
176 1 1.57185 1.57205 11.0071 -8.94953
48 1 15.7253 9.43413 22.0126 -8.94948
178 1 7.86181 1.57073 11.0071 -8.95138
179 1 11.0069 1.57149 11.007 -8.9494
180 1 14.1523 1.5716 11.007 -8.94969
47 1 12.5795 9.43434 22.0121 -8.95152
343 1 18.8697 9.43439 18.8695 -8.9495
342 1 15.7253 9.43413 18.8704 -8.94948
46 1 9.43427 9.43457 22.0132 -8.9496
185 1 7.85879 4.70899 11.0082 -8.95924
186 1 11.0054 4.71447 11.0076 -8.94944
187 1 14.1531 4.71446 11.0071 -8.94831
188 1 17.2976 4.71634 11.0069 -8.94917
189 1 20.4415 4.71671 11.007 -8.94953
190 1 1.57002 7.86175 11.0072 -8.95172
191 1 4.70695 7.85828 11.0093 -8.95789
192 1 7.8217 7.82544 11.0382 -8.85865
341 1 12.5795 9.43434 18.8709 -8.95152
340 1 9.43427 9.43457 18.8698 -8.9496
339 1 6.28927 9.43464 18.8695 -8.94935
338 1 3.14451 9.43452 18.8694 -8.94956
197 1 22.0137 1.3894e-15 12.5795 -8.94957
198 1 1.57191 1.57209 14.1521 -8.94952
199 1 3.14415 1.62202e-15 12.5797 -8.94941
200 1 4.71633 1.57137 14.1527 -8.94998
201 1 6.28918 1.84362e-15 12.5799 -8.95061
202 1 7.86186 1.57134 14.1527 -8.94965
203 1 9.43462 1.44427e-15 12.5799 -8.95023
204 1 11.0072 1.57142 14.1526 -8.94963
205 1 12.5796 1.4105e-15 12.5795 -8.9503
206 1 14.1523 1.57142 14.1522 -8.95061
207 1 15.7247 7.9393e-17 12.5795 -8.94964
208 1 17.2971 1.572 14.152 -8.94964
209 1 18.8693 1.30642e-17 12.5794 -8.94953
210 1 20.4415 1.57224 14.1519 -8.94957
211 1 -0.000409713 3.1444 12.5796 -8.94947
212 1 1.571 4.71638 14.1527 -8.94967
213 1 3.14345 3.14359 12.5801 -8.94922
214 1 4.71314 4.71337 14.1558 -8.94472
215 1 6.28787 3.14122 12.581 -8.95147
216 1 7.86064 4.71344 14.1545 -8.9494
217 1 9.43443 3.1417 12.5807 -8.95046
218 1 11.0073 4.71374 14.1544 -8.94793
219 1 12.5797 3.14226 12.5798 -8.95233
220 1 14.1545 4.71244 14.1545 -8.95069
221 1 15.7251 3.14353 12.5796 -8.94952
222 1 17.2981 4.71582 14.1525 -8.94987
223 1 18.8694 3.1444 12.5794 -8.94951
224 1 20.4416 4.71681 14.152 -8.94991
225 1 22.0131 6.28923 12.5797 -8.95021
226 1 1.57172 7.86213 14.1523 -8.94989
227 1 3.14065 6.28769 12.5814 -8.9508
228 1 4.71466 7.86195 14.1535 -8.95185
229 1 6.27686 6.27739 12.5909 -8.93071
230 1 7.85423 7.85402 14.1633 -8.95022
231 1 9.43304 6.28003 12.5844 -8.95247
232 1 11.0075 7.85616 14.161 -8.94992
233 1 12.5847 6.27848 12.5852 -8.95589
234 1 14.1661 7.8484 14.1664 -8.92831
235 1 15.7277 6.28661 12.5806 -8.95005
236 1 17.3017 7.85953 14.1544 -8.95024
237 1 18.87 6.28909 12.5793 -8.95019
238 1 20.4426 7.86165 14.1524 -8.95023
239 1 7.99173e-05 9.43454 12.5797 -8.95006
240 1 3.14314 9.43518 12.58 -8.94995
241 1 6.28529 9.43666 12.58 -8.95488
242 1 9.4135 9.4054 12.591 -8.9348
243 1 12.6253 9.39568 12.6199 -8.89271
244 1 15.7371 9.43075 12.5852 -8.95644
245 1 18.8722 9.43409 12.58 -8.9522
246 1 -0.000183725 1.28569e-15 15.7244 -8.9496
247 1 1.57202 1.57217 17.297 -8.94923
248 1 3.14427 1.43117e-15 15.7248 -8.94955
249 1 4.71693 1.57206 17.2972 -8.94964
250 1 6.28942 1.18839e-15 15.7248 -8.94957
251 1 7.86199 1.57204 17.2972 -8.9495
252 1 9.43455 1.61467e-15 15.7249 -8.94956
253 1 11.007 1.57202 17.2972 -8.94953
254 1 12.5796 1.64702e-15 15.7248 -8.94953
255 1 14.152 1.57201 17.2971 -8.94949
256 1 15.7246 1.41711e-15 15.7246 -8.95003
257 1 17.2971 1.57197 17.2971 -8.94955
258 1 18.8692 -2.14543e-16 15.7244 -8.94964
259 1 20.4415 1.57223 17.2968 -8.94956
260 1 22.0136 3.14447 15.7246 -8.94958
261 1 1.5721 4.71702 17.2971 -8.94983
262 1 3.14356 3.14373 15.7255 -8.94828
263 1 4.71606 4.71616 17.2983 -8.94926
264 1 6.28898 3.14351 15.7255 -8.94967
265 1 7.86167 4.71624 17.298 -8.94915
266 1 9.43442 3.14351 15.7254 -8.94938
267 1 11.0069 4.71611 17.2979 -8.94936
268 1 12.5797 3.14343 15.7253 -8.94911
269 1 14.1524 4.71597 17.298 -8.94961
270 1 15.7253 3.14313 15.7253 -8.94965
271 1 17.2981 4.7158 17.298 -8.94809
272 1 18.8695 3.14428 15.7246 -8.9497
273 1 20.4419 4.71685 17.2971 -8.94952
274 1 0.000105033 6.28943 15.7247 -8.94984
275 1 1.57222 7.86205 17.2971 -8.94943
276 1 3.14373 6.28934 15.7253 -8.9504
277 1 4.71674 7.86228 17.2974 -8.94961
278 1 6.28642 6.28668 15.7291 -8.94919
279 1 7.86142 7.8616 17.2992 -8.95252
280 1 9.43378 6.28704 15.7275 -8.94768
281 1 11.0066 7.8609 17.2995 -8.95038
282 1 12.5805 6.28674 15.7278 -8.94867
283 1 14.1536 7.86028 17.3007 -8.95183
284 1 15.7288 6.28506 15.7289 -8.94405
285 1 17.2982 7.86127 17.2981 -8.94919
286 1 18.8708 6.28857 15.7253 -8.94952
287 1 20.442 7.86187 17.2971 -8.94947
288 1 22.0141 9.43442 15.7248 -8.94955
289 1 3.14404 9.43455 15.7251 -8.949
290 1 6.2889 9.43515 15.7252 -8.94875
291 1 9.4344 9.43389 15.7268 -8.95212
292 1 12.5826 9.43259 15.7334 -8.95903
293 1 15.7285 9.43296 15.7286 -8.94766
294 1 18.8709 9.43411 15.7254 -8.94926
295 1 22.0138 7.53717e-16 18.8692 -8.94934
296 1 1.57225 1.57225 20.4415 -8.94942
297 1 3.14466 1.58183e-15 18.8693 -8.94963
298 1 4.71713 1.57226 20.4415 -8.94959
299 1 6.28958 8.5323e-16 18.8693 -8.94955
300 1 7.86203 1.57222 20.4415 -8.94957
301 1 9.4345 6.44305e-16 18.8693 -8.94957
302 1 11.007 1.5722 20.4415 -8.94958
303 1 12.5794 1.69181e-15 18.8693 -8.94956
304 1 14.1519 1.57222 20.4415 -8.94955
305 1 15.7243 1.77253e-15 18.8692 -8.94957
306 1 17.2968 1.57222 20.4415 -8.94965
307 1 18.8692 1.00279e-15 18.8692 -8.94948
308 1 20.4416 1.57229 20.4415 -8.94934
309 1 1.50918e-05 3.14468 18.8692 -8.9496
310 1 1.57233 4.7172 20.4415 -8.94971
311 1 3.14441 3.14443 18.8695 -8.94944
312 1 4.71683 4.71689 20.4415 -8.94999
313 1 6.28946 3.14443 18.8695 -8.94951
314 1 7.86185 4.71676 20.4415 -8.94951
315 1 9.43445 3.14434 18.8695 -8.94954
316 1 11.0069 4.71666 20.4415 -8.94955
317 1 12.5795 3.14433 18.8694 -8.94949
318 1 14.152 4.71668 20.4415 -8.94958
319 1 15.7245 3.14433 18.8694 -8.94965
320 1 17.2972 4.71663 20.4415 -8.94957
321 1 18.8695 3.14439 18.8694 -8.94917
322 1 20.4417 4.71708 20.4415 -8.94957
323 1 22.014 6.28958 18.8692 -8.94954
324 1 1.5723 7.86206 20.4415 -8.94956
325 1 3.14459 6.28967 18.8693 -8.94971
326 1 4.71695 7.86215 20.4415 -8.94952
327 1 6.28912 6.28926 18.8701 -8.95063
328 1 7.86181 7.86201 20.4415 -8.95046
329 1 9.43418 6.28894 18.87 -8.94958
330 1 11.0067 7.86166 20.4415 -8.95017
331 1 12.5794 6.28887 18.8701 -8.94961
332 1 14.1522 7.86157 20.4415 -8.95077
333 1 15.7252 6.28867 18.8703 -8.95008
334 1 17.2974 7.86174 20.4415 -8.94945
335 1 18.8697 6.2893 18.8695 -8.94951
336 1 20.4418 7.86199 20.4415 -8.94956
337 1 7.83905e-05 9.43448 18.8693 -8.94957
45 1 6.28927 9.43464 22.0135 -8.94935
5 1 6.28958 5.06866e-16 22.0137 -8.94955
9 1 12.5794 1.13767e-15 22.0137 -8.94956
43 1 7.83905e-05 9.43448 22.0137 -8.94957
15 1 1.50918e-05 3.14468 22.0137 -8.9496
17 1 3.14441 3.14443 22.0135 -8.94944
19 1 6.28946 3.14443 22.0135 -8.94951
25 1 15.7245 3.14433 22.0135 -8.94965
41 1 18.8697 6.2893 22.0135 -8.94951
31 1 3.14459 6.28967 22.0136 -8.94971
13 1 18.8692 6.28537e-16 22.0137 -8.94948
23 1 12.5795 3.14433 22.0135 -8.94949
39 1 15.7252 6.28867 22.0127 -8.95008
182 1 20.4415 1.57221 11.007 -8.94958
193 1 11.0177 7.85583 11.0289 -8.96638
344 1 1.5722 11.007 1.57194 -8.94957
345 1 4.71663 11.007 1.57161 -8.94964
346 1 7.8617 11.007 1.57191 -8.94836
347 1 11.0069 11.007 1.57077 -8.94769
348 1 14.1541 11.007 1.56816 -8.94988
349 1 17.2983 11.007 1.57088 -8.94936
350 1 20.442 11.007 1.57189 -8.94952
688 3 10.2929 11.007 9.43453 2.19031
352 1 1.57222 14.1518 1.572 -8.94943
353 1 3.14451 12.5794 -0.000305859 -8.94956
354 1 4.71674 14.1516 1.57166 -8.94961
687 2 11.6706 11.007 9.43453 0.189643
356 1 7.86142 14.1523 1.56989 -8.95252
511 1 18.8694 18.8696 9.43453 -8.94959
358 1 11.0066 14.153 1.56953 -8.95038
510 1 15.725 18.8702 9.43453 -8.9491
360 1 14.1536 14.1536 1.56833 -8.95183
509 1 12.5795 18.8711 9.43453 -8.95112
362 1 17.2982 14.1526 1.57091 -8.94919
363 1 18.8697 12.5795 -0.000433222 -8.9495
364 1 20.442 14.152 1.57192 -8.94947
508 1 9.43424 18.8703 9.43453 -8.94617
366 1 1.5721 17.2969 1.57195 -8.94983
507 1 6.28726 18.8729 9.43453 -8.94948
368 1 4.71606 17.2977 1.57073 -8.94926
369 1 6.28912 15.7246 -0.00100711 -8.95063
370 1 7.86167 17.2977 1.57106 -8.94915
371 1 9.43418 15.725 -0.000959555 -8.94958
372 1 11.0069 17.2978 1.57111 -8.94936
506 1 3.14337 18.8704 9.43453 -8.94947
374 1 14.1524 17.2979 1.57109 -8.94961
526 1 1.57088 17.2976 11.0073 -8.94929
376 1 17.2981 17.2981 1.57108 -8.94809
505 1 22.0135 18.8695 9.43453 -8.94953
378 1 20.4419 17.2971 1.57201 -8.94952
504 1 18.8698 15.7251 9.43453 -8.94924
380 1 1.57202 20.4417 1.57202 -8.94923
503 1 15.7254 15.726 9.43453 -8.94611
382 1 4.71693 20.4418 1.5719 -8.94964
502 1 12.5774 15.7315 9.43453 -8.96005
384 1 7.86199 20.4419 1.57189 -8.9495
385 1 9.43445 18.8696 -0.00040627 -8.94954
386 1 11.007 20.4419 1.57189 -8.94953
525 1 20.4417 14.1521 11.0069 -8.94987
388 1 14.152 20.4419 1.57198 -8.94949
501 1 9.42912 15.7211 9.43453 -8.99919
390 1 17.2971 20.4419 1.57198 -8.94955
391 1 18.8695 18.8695 -0.000296568 -8.94917
392 1 20.4415 20.4417 1.57224 -8.94956
393 1 1.57179 11.007 4.71644 -8.94958
394 1 4.71541 11.007 4.71547 -8.94662
395 1 7.86297 11.007 4.71837 -8.94494
396 1 11.0119 11.007 4.71599 -9.01413
397 1 14.1634 11.007 4.70501 -8.94389
398 1 17.3017 11.007 4.71438 -8.94857
399 1 20.4428 11.007 4.71653 -8.94991
400 1 22.0141 12.5795 3.14427 -8.94955
401 1 1.57172 14.1518 4.71671 -8.94989
402 1 3.14404 12.5794 3.14395 -8.949
403 1 4.71466 14.152 4.71558 -8.95185
404 1 6.2889 12.5788 3.14384 -8.94875
405 1 7.85423 14.1599 4.70579 -8.95022
406 1 9.4344 12.58 3.14223 -8.95212
407 1 11.0075 14.1577 4.7081 -8.94992
408 1 12.5826 12.5813 3.13567 -8.95903
409 1 14.1661 14.1655 4.70268 -8.92831
410 1 15.7285 12.5809 3.14043 -8.94766
411 1 17.3017 14.1544 4.71466 -8.95024
412 1 18.8709 12.5798 3.14364 -8.94926
413 1 20.4426 14.1522 4.7167 -8.95023
414 1 0.000105033 15.7245 3.1444 -8.94984
415 1 1.571 17.2975 4.71634 -8.94967
416 1 3.14373 15.7246 3.14379 -8.9504
417 1 4.71314 17.3005 4.71328 -8.94472
418 1 6.28642 15.7272 3.14 -8.94919
419 1 7.86064 17.3005 4.71453 -8.9494
420 1 9.43378 15.7269 3.14152 -8.94768
421 1 11.0073 17.3002 4.71469 -8.94793
422 1 12.5805 15.7272 3.14123 -8.94867
423 1 14.1545 17.3015 4.71451 -8.95069
424 1 15.7288 15.7288 3.1402 -8.94405
425 1 17.2981 17.2981 4.7166 -8.94987
426 1 18.8708 15.7253 3.14377 -8.94952
427 1 20.4416 17.2971 4.71703 -8.94991
428 1 22.0136 18.8694 3.14447 -8.94958
429 1 1.57191 20.4418 4.71693 -8.94952
430 1 3.14356 18.8702 3.14357 -8.94828
431 1 4.71633 20.4425 4.71633 -8.94998
432 1 6.28898 18.8704 3.14356 -8.94967
433 1 7.86186 20.4426 4.7164 -8.94965
434 1 9.43442 18.8704 3.14365 -8.94938
435 1 11.0072 20.4425 4.71645 -8.94963
436 1 12.5797 18.8705 3.14379 -8.94911
437 1 14.1523 20.4425 4.71681 -8.95061
438 1 15.7253 18.8708 3.14372 -8.94965
439 1 17.2971 20.4419 4.71708 -8.94964
440 1 18.8695 18.8696 3.14451 -8.9497
441 1 20.4415 20.4417 4.71716 -8.94957
442 1 1.5719 11.007 7.8618 -8.94782
443 1 4.71885 11.007 7.86247 -8.93937
444 1 7.88368 11.007 7.87099 -8.96885
445 1 11.0744 11.007 7.58266 -8.3148
446 1 14.1686 11.007 7.84564 -9.01639
447 1 17.3008 11.007 7.86223 -8.9537
448 1 20.4424 11.007 7.86223 -8.94991
449 1 7.99173e-05 12.5794 6.28935 -8.95006
450 1 1.57002 14.1522 7.86183 -8.95172
451 1 3.14314 12.5787 6.28907 -8.94995
452 1 4.70695 14.1556 7.85974 -8.95789
453 1 6.28529 12.5772 6.28905 -8.95488
454 1 7.8217 14.1885 7.83086 -8.85865
455 1 9.4135 12.6085 6.27809 -8.9348
456 1 11.0177 14.1581 7.84021 -8.96638
457 1 12.6253 12.6182 6.24912 -8.89271
458 1 14.1582 14.1563 7.86018 -8.97779
459 1 15.7371 12.5832 6.28387 -8.95644
460 1 17.2984 14.1523 7.86307 -8.95135
461 1 18.8722 12.5798 6.28909 -8.9522
462 1 20.4417 14.1521 7.86218 -8.94987
463 1 22.0131 15.7247 6.28935 -8.95021
464 1 1.57088 17.2976 7.86175 -8.94929
465 1 3.14065 15.7262 6.28771 -8.9508
466 1 4.71345 17.3003 7.86076 -8.94764
467 1 6.27686 15.7365 6.27812 -8.93071
468 1 7.85879 17.3049 7.86086 -8.95924
469 1 9.43304 15.7339 6.28466 -8.95247
470 1 11.0054 17.2994 7.86151 -8.94944
471 1 12.5847 15.7354 6.28385 -8.95589
472 1 14.1531 17.2994 7.86201 -8.94831
473 1 15.7277 15.7273 6.28845 -8.95005
474 1 17.2976 17.2976 7.86219 -8.94917
475 1 18.87 15.7248 6.28972 -8.95019
476 1 20.4415 17.2972 7.86202 -8.94953
477 1 -0.000409713 18.8695 6.28948 -8.94947
478 1 1.57185 20.4418 7.86198 -8.94953
479 1 3.14345 18.8703 6.28895 -8.94922
480 1 4.71614 20.4426 7.86172 -8.94938
481 1 6.28787 18.8727 6.28808 -8.95147
482 1 7.86181 20.4432 7.86196 -8.95138
483 1 9.43443 18.8722 6.2884 -8.95046
484 1 11.0069 20.4424 7.86203 -8.9494
485 1 12.5797 18.8716 6.2893 -8.95233
486 1 14.1523 20.4423 7.86204 -8.94969
487 1 15.7251 18.8704 6.28948 -8.94952
488 1 17.2971 20.4418 7.86207 -8.94946
489 1 18.8694 18.8695 6.28964 -8.94951
490 1 20.4415 20.4417 7.86206 -8.94958
491 1 22.0134 12.5793 9.43453 -8.94935
492 1 3.14212 12.579 9.43453 -8.95128
493 1 6.28063 12.5864 9.43453 -8.97376
494 1 9.35073 12.794 9.43453 -8.19068
495 1 12.5909 12.6157 9.43453 -9.12637
496 1 15.7195 12.5767 9.43453 -8.98681
497 1 18.8696 12.5798 9.43453 -8.9463
498 1 -0.000953251 15.7249 9.43453 -8.94994
499 1 3.14042 15.7265 9.43453 -8.94906
500 1 6.27882 15.7344 9.43453 -8.94146
517 1 17.3008 11.007 11.0068 -8.9537
518 1 20.4424 11.007 11.0068 -8.94991
524 1 17.2984 14.1523 11.006 -8.95135
523 1 14.1582 14.1563 11.0089 -8.97779
527 1 4.71345 17.3003 11.0083 -8.94764
534 1 4.71614 20.4426 11.0073 -8.94938
538 1 17.2971 20.4418 11.007 -8.94946
365 1 22.014 15.7243 -0.000180413 -8.94954
373 1 12.5794 15.725 -0.0010331 -8.94961
512 1 1.5719 11.007 11.0073 -8.94782
513 1 4.71885 11.007 11.0066 -8.93937
514 1 7.88368 11.007 10.9981 -8.96885
515 1 11.0744 11.007 11.2864 -8.3148
516 1 14.1686 11.007 11.0234 -9.01639
686 1 20.4416 20.4416 20.4415 -8.94934
685 1 18.8695 18.8695 18.8694 -8.94917
519 1 1.57002 14.1522 11.0072 -8.95172
520 1 4.70695 14.1556 11.0093 -8.95789
521 1 7.8217 14.1885 11.0382 -8.85865
684 1 17.2968 20.4417 20.4415 -8.94965
683 1 15.7245 18.8696 18.8694 -8.94965
682 1 14.1519 20.4417 20.4415 -8.94955
681 1 12.5795 18.8696 18.8694 -8.94949
680 1 11.007 20.4417 20.4415 -8.94958
389 1 15.7245 18.8696 22.0135 -8.94965
528 1 7.85879 17.3049 11.0082 -8.95924
529 1 11.0054 17.2994 11.0076 -8.94944
530 1 14.1531 17.2994 11.0071 -8.94831
531 1 17.2976 17.2976 11.0069 -8.94917
532 1 20.4415 17.2972 11.007 -8.94953
533 1 1.57185 20.4418 11.0071 -8.94953
383 1 6.28946 18.8695 22.0135 -8.94951
535 1 7.86181 20.4432 11.0071 -8.95138
536 1 11.0069 20.4424 11.007 -8.9494
537 1 14.1523 20.4423 11.007 -8.94969
381 1 3.14441 18.8695 22.0135 -8.94944
679 1 9.43445 18.8696 18.8695 -8.94954
540 1 1.57179 11.007 14.1526 -8.94958
541 1 4.71541 11.007 14.1536 -8.94662
542 1 7.86297 11.007 14.1507 -8.94494
543 1 11.0119 11.007 14.1531 -9.01413
544 1 14.1634 11.007 14.164 -8.94389
545 1 17.3017 11.007 14.1547 -8.94857
546 1 20.4428 11.007 14.1525 -8.94991
547 1 7.99173e-05 12.5794 12.5797 -8.95006
548 1 1.57172 14.1518 14.1523 -8.94989
549 1 3.14314 12.5787 12.58 -8.94995
550 1 4.71466 14.152 14.1535 -8.95185
551 1 6.28529 12.5772 12.58 -8.95488
552 1 7.85423 14.1599 14.1633 -8.95022
553 1 9.4135 12.6085 12.591 -8.9348
554 1 11.0075 14.1577 14.161 -8.94992
555 1 12.6253 12.6182 12.6199 -8.89271
556 1 14.1661 14.1655 14.1664 -8.92831
557 1 15.7371 12.5832 12.5852 -8.95644
558 1 17.3017 14.1544 14.1544 -8.95024
559 1 18.8722 12.5798 12.58 -8.9522
560 1 20.4426 14.1522 14.1524 -8.95023
561 1 22.0131 15.7247 12.5797 -8.95021
562 1 1.571 17.2975 14.1527 -8.94967
563 1 3.14065 15.7262 12.5814 -8.9508
564 1 4.71314 17.3005 14.1558 -8.94472
565 1 6.27686 15.7365 12.5909 -8.93071
566 1 7.86064 17.3005 14.1545 -8.9494
567 1 9.43304 15.7339 12.5844 -8.95247
568 1 11.0073 17.3002 14.1544 -8.94793
569 1 12.5847 15.7354 12.5852 -8.95589
570 1 14.1545 17.3015 14.1545 -8.95069
571 1 15.7277 15.7273 12.5806 -8.95005
572 1 17.2981 17.2981 14.1525 -8.94987
573 1 18.87 15.7248 12.5793 -8.95019
574 1 20.4416 17.2971 14.152 -8.94991
575 1 -0.000409713 18.8695 12.5796 -8.94947
576 1 1.57191 20.4418 14.1521 -8.94952
577 1 3.14345 18.8703 12.5801 -8.94922
578 1 4.71633 20.4425 14.1527 -8.94998
579 1 6.28787 18.8727 12.581 -8.95147
580 1 7.86186 20.4426 14.1527 -8.94965
581 1 9.43443 18.8722 12.5807 -8.95046
582 1 11.0072 20.4425 14.1526 -8.94963
583 1 12.5797 18.8716 12.5798 -8.95233
584 1 14.1523 20.4425 14.1522 -8.95061
585 1 15.7251 18.8704 12.5796 -8.94952
586 1 17.2971 20.4419 14.152 -8.94964
587 1 18.8694 18.8695 12.5794 -8.94951
588 1 20.4415 20.4417 14.1519 -8.94957
589 1 1.5722 11.007 17.2971 -8.94957
590 1 4.71663 11.007 17.2975 -8.94964
591 1 7.8617 11.007 17.2971 -8.94836
592 1 11.0069 11.007 17.2983 -8.94769
593 1 14.1541 11.007 17.3009 -8.94988
594 1 17.2983 11.007 17.2982 -8.94936
595 1 20.442 11.007 17.2972 -8.94952
596 1 22.0141 12.5795 15.7248 -8.94955
597 1 1.57222 14.1518 17.2971 -8.94943
598 1 3.14404 12.5794 15.7251 -8.949
599 1 4.71674 14.1516 17.2974 -8.94961
600 1 6.2889 12.5788 15.7252 -8.94875
601 1 7.86142 14.1523 17.2992 -8.95252
602 1 9.4344 12.58 15.7268 -8.95212
603 1 11.0066 14.153 17.2995 -8.95038
604 1 12.5826 12.5813 15.7334 -8.95903
605 1 14.1536 14.1536 17.3007 -8.95183
606 1 15.7285 12.5809 15.7286 -8.94766
607 1 17.2982 14.1526 17.2981 -8.94919
608 1 18.8709 12.5798 15.7254 -8.94926
609 1 20.442 14.152 17.2971 -8.94947
610 1 0.000105033 15.7245 15.7247 -8.94984
611 1 1.5721 17.2969 17.2971 -8.94983
612 1 3.14373 15.7246 15.7253 -8.9504
613 1 4.71606 17.2977 17.2983 -8.94926
614 1 6.28642 15.7272 15.7291 -8.94919
615 1 7.86167 17.2977 17.298 -8.94915
616 1 9.43378 15.7269 15.7275 -8.94768
617 1 11.0069 17.2978 17.2979 -8.94936
618 1 12.5805 15.7272 15.7278 -8.94867
619 1 14.1524 17.2979 17.298 -8.94961
620 1 15.7288 15.7288 15.7289 -8.94405
621 1 17.2981 17.2981 17.298 -8.94809
622 1 18.8708 15.7253 15.7253 -8.94952
623 1 20.4419 17.2971 17.2971 -8.94952
624 1 22.0136 18.8694 15.7246 -8.94958
625 1 1.57202 20.4417 17.297 -8.94923
626 1 3.14356 18.8702 15.7255 -8.94828
627 1 4.71693 20.4418 17.2972 -8.94964
628 1 6.28898 18.8704 15.7255 -8.94967
629 1 7.86199 20.4419 17.2972 -8.9495
630 1 9.43442 18.8704 15.7254 -8.94938
631 1 11.007 20.4419 17.2972 -8.94953
632 1 12.5797 18.8705 15.7253 -8.94911
633 1 14.152 20.4419 17.2971 -8.94949
634 1 15.7253 18.8708 15.7253 -8.94965
635 1 17.2971 20.4419 17.2971 -8.94955
636 1 18.8695 18.8696 15.7246 -8.9497
637 1 20.4415 20.4417 17.2968 -8.94956
638 1 1.57229 11.007 20.4415 -8.9496
639 1 4.71688 11.007 20.4415 -8.94966
640 1 7.86171 11.007 20.4415 -8.94924
641 1 11.0066 11.007 20.4415 -8.94881
642 1 14.1525 11.007 20.4415 -8.9504
643 1 17.2974 11.007 20.4415 -8.9495
644 1 20.4418 11.007 20.4415 -8.94957
645 1 7.83905e-05 12.5794 18.8693 -8.94957
646 1 1.5723 14.1518 20.4415 -8.94956
647 1 3.14451 12.5794 18.8694 -8.94956
648 1 4.71695 14.1517 20.4415 -8.94952
649 1 6.28927 12.5793 18.8695 -8.94935
650 1 7.86181 14.1519 20.4415 -8.95046
651 1 9.43427 12.5793 18.8698 -8.9496
652 1 11.0067 14.1522 20.4415 -8.95017
653 1 12.5795 12.5796 18.8709 -8.95152
654 1 14.1522 14.1523 20.4415 -8.95077
655 1 15.7253 12.5798 18.8704 -8.94948
656 1 17.2974 14.1522 20.4415 -8.94945
657 1 18.8697 12.5795 18.8695 -8.9495
658 1 20.4418 14.1519 20.4415 -8.94956
659 1 22.014 15.7243 18.8692 -8.94954
660 1 1.57233 17.2967 20.4415 -8.94971
661 1 3.14459 15.7242 18.8693 -8.94971
662 1 4.71683 17.297 20.4415 -8.94999
663 1 6.28912 15.7246 18.8701 -8.95063
664 1 7.86185 17.2971 20.4415 -8.94951
665 1 9.43418 15.725 18.87 -8.94958
666 1 11.0069 17.2972 20.4415 -8.94955
667 1 12.5794 15.725 18.8701 -8.94961
668 1 14.152 17.2972 20.4415 -8.94958
669 1 15.7252 15.7252 18.8703 -8.95008
670 1 17.2972 17.2973 20.4415 -8.94957
671 1 18.8697 15.7246 18.8695 -8.94951
672 1 20.4417 17.2968 20.4415 -8.94957
673 1 1.50918e-05 18.8692 18.8692 -8.9496
674 1 1.57225 20.4416 20.4415 -8.94942
675 1 3.14441 18.8695 18.8695 -8.94944
676 1 4.71713 20.4416 20.4415 -8.94959
677 1 6.28946 18.8695 18.8695 -8.94951
678 1 7.86203 20.4417 20.4415 -8.94957
351 1 7.83905e-05 12.5794 22.0137 -8.94957
355 1 6.28927 12.5793 22.0135 -8.94935
357 1 9.43427 12.5793 22.0132 -8.9496
359 1 12.5795 12.5796 22.0121 -8.95152
361 1 15.7253 12.5798 22.0126 -8.94948
379 1 1.50918e-05 18.8692 22.0137 -8.9496
367 1 3.14459 15.7242 22.0136 -8.94971
377 1 18.8697 15.7246 22.0135 -8.94951
375 1 15.7252 15.7252 22.0127 -8.95008
539 1 20.4415 20.4417 11.007 -8.94958
387 1 12.5795 18.8696 22.0135 -8.94949
522 1 11.0177 14.1581 11.0289 -8.96638
