ITEM: TIMESTEP
40
ITEM: NUMBER OF ATOMS
688
ITEM: BOX BOUNDS pp pp pp
0.0000000000000000e+00 2.2013900999999997e+01
0.0000000000000000e+00 2.2013900999999997e+01
0.0000000000000000e+00 2.2013900999999997e+01
ITEM: ATOMS id type x y z c_pot
1 1 22.0139 6.6057e-17 -1.71057e-11 -8.94963
2 1 1.57242 1.57242 1.57242 -8.94963
175 1 18.869 9.43453 9.43453 -8.94942
4 1 4.71726 1.57242 1.57242 -8.94963
174 1 15.7236 9.43506 9.43453 -8.99796
6 1 7.86211 1.57242 1.57242 -8.94963
7 1 9.43453 -5.0262e-16 5.51971e-10 -8.94963
8 1 11.007 1.57242 1.57242 -8.94963
173 1 12.5935 9.41021 9.43453 -9.19823
10 1 14.1518 1.57242 1.57242 -8.94963
172 1 9.38193 9.33044 9.43453 -8.04097
12 1 17.2966 1.57242 1.57242 -8.94963
196 1 20.4415 7.86211 11.007 -8.94963
14 1 20.4415 1.57242 1.57242 -8.94963
171 1 6.2878 9.43431 9.43453 -8.9607
16 1 1.57242 4.71726 1.57242 -8.94963
170 1 3.1448 9.43453 9.43453 -8.95011
18 1 4.71726 4.71726 1.57242 -8.94963
169 1 22.0139 9.43453 9.43453 -8.94964
20 1 7.86211 4.71726 1.57242 -8.94963
21 1 9.43453 3.14484 -3.42892e-09 -8.94963
22 1 11.007 4.71726 1.57242 -8.94963
195 1 17.2966 7.86213 11.0069 -8.94985
24 1 14.1518 4.71726 1.57242 -8.94964
168 1 18.8691 6.28968 9.43453 -8.94961
26 1 17.2966 4.71726 1.57242 -8.94963
27 1 18.8691 3.14484 5.66759e-11 -8.94963
28 1 20.4415 4.71726 1.57242 -8.94963
167 1 15.7242 6.28976 9.43453 -8.95029
30 1 1.57242 7.86211 1.57242 -8.94963
166 1 12.5793 6.28879 9.43453 -8.95668
32 1 4.71726 7.86211 1.57242 -8.94963
33 1 6.28969 6.28969 -9.9561e-08 -8.94963
34 1 7.86211 7.86211 1.57242 -8.94963
35 1 9.43453 6.28969 1.24351e-07 -8.94963
36 1 11.0069 7.86211 1.57242 -8.94965
165 1 9.43446 6.28629 9.43453 -8.96873
38 1 14.1518 7.8621 1.57242 -8.94962
194 1 14.1518 7.86246 11.0073 -8.98879
40 1 17.2966 7.86211 1.57242 -8.94964
164 1 6.28972 6.28972 9.43453 -8.95156
42 1 20.4415 7.86211 1.57242 -8.94963
163 1 3.14484 6.28969 9.43453 -8.94962
44 1 3.14484 9.43453 6.85896e-09 -8.94963
162 1 2.2345e-08 6.28969 9.43453 -8.94963
161 1 18.8691 3.14484 9.43453 -8.94963
160 1 15.7242 3.14485 9.43453 -8.94962
159 1 12.5794 3.14482 9.43453 -8.94991
49 1 18.8691 9.43453 -1.22176e-09 -8.94963
50 1 2.41315e-10 1.59791e-16 3.14484 -8.94963
51 1 1.57242 1.57242 4.71726 -8.94963
52 1 3.14484 2.08301e-16 3.14484 -8.94963
53 1 4.71726 1.57242 4.71726 -8.94963
54 1 6.28969 -1.10996e-16 3.14484 -8.94963
55 1 7.86211 1.57242 4.71726 -8.94963
56 1 9.43453 -8.82432e-17 3.14484 -8.94963
57 1 11.007 1.57242 4.71726 -8.94963
58 1 12.5794 4.322e-16 3.14484 -8.94963
59 1 14.1518 1.57242 4.71726 -8.94963
60 1 15.7242 4.23865e-16 3.14484 -8.94963
61 1 17.2966 1.57242 4.71726 -8.94963
62 1 18.8691 -2.1433e-16 3.14484 -8.94963
63 1 20.4415 1.57242 4.71726 -8.94963
64 1 22.0139 3.14484 3.14484 -8.94963
65 1 1.57242 4.71726 4.71726 -8.94963
66 1 3.14484 3.14484 3.14484 -8.94963
67 1 4.71726 4.71726 4.71726 -8.94958
68 1 6.28969 3.14484 3.14484 -8.94964
69 1 7.86211 4.71727 4.71727 -8.94974
70 1 9.43453 3.14484 3.14484 -8.94963
71 1 11.0069 4.71727 4.71726 -8.94966
72 1 12.5794 3.14484 3.14484 -8.94963
73 1 14.1518 4.71726 4.71726 -8.94964
74 1 15.7242 3.14484 3.14484 -8.94963
75 1 17.2966 4.71726 4.71726 -8.94964
76 1 18.8691 3.14484 3.14484 -8.94963
77 1 20.4415 4.71726 4.71726 -8.94963
78 1 1.342e-08 6.28969 3.14484 -8.94963
79 1 1.57242 7.86211 4.71726 -8.94963
80 1 3.14484 6.28969 3.14484 -8.94964
81 1 4.71727 7.86211 4.71727 -8.94969
82 1 6.28968 6.28968 3.14484 -8.94964
83 1 7.86208 7.86209 4.71717 -8.9501
84 1 9.43453 6.28969 3.14484 -8.94965
85 1 11.0069 7.86216 4.71729 -8.95154
86 1 12.5794 6.28969 3.14485 -8.94973
87 1 14.1519 7.862 4.71716 -8.94829
88 1 15.7242 6.28968 3.14484 -8.94959
89 1 17.2966 7.8621 4.71726 -8.94959
90 1 18.8691 6.28969 3.14484 -8.94963
91 1 20.4415 7.86211 4.71726 -8.94963
92 1 22.0139 9.43453 3.14484 -8.94963
93 1 3.14484 9.43453 3.14484 -8.94964
94 1 6.28968 9.43453 3.14484 -8.94968
95 1 9.43447 9.43447 3.14478 -8.94904
96 1 12.5794 9.43446 3.14471 -8.94971
97 1 15.7242 9.43453 3.14484 -8.94975
98 1 18.8691 9.43453 3.14484 -8.94964
99 1 22.0139 1.16762e-16 6.28969 -8.94963
100 1 1.57242 1.57242 7.86211 -8.94963
101 1 3.14484 2.66508e-16 6.28969 -8.94963
102 1 4.71726 1.57242 7.86211 -8.94963
103 1 6.28969 -2.68109e-17 6.28969 -8.94963
104 1 7.86211 1.57242 7.86211 -8.94965
105 1 9.43453 -7.64785e-17 6.28969 -8.94963
106 1 11.007 1.57242 7.86211 -8.94964
107 1 12.5794 3.69169e-16 6.28969 -8.94963
108 1 14.1518 1.57242 7.86211 -8.94963
109 1 15.7242 5.38424e-16 6.28969 -8.94963
110 1 17.2966 1.57242 7.86211 -8.94963
111 1 18.8691 3.8277e-16 6.28969 -8.94963
112 1 20.4415 1.57242 7.86211 -8.94963
113 1 1.08872e-08 3.14484 6.28969 -8.94963
114 1 1.57242 4.71726 7.86211 -8.94963
115 1 3.14484 3.14484 6.28969 -8.94964
116 1 4.71727 4.71727 7.86211 -8.94974
117 1 6.28968 3.14484 6.28968 -8.94962
118 1 7.86205 4.71714 7.86205 -8.94986
119 1 9.43453 3.14484 6.28969 -8.94964
120 1 11.007 4.71719 7.86204 -8.94904
121 1 12.5794 3.14484 6.28969 -8.94964
122 1 14.1518 4.71727 7.8621 -8.94941
123 1 15.7242 3.14484 6.28969 -8.94963
124 1 17.2966 4.71726 7.86211 -8.94965
125 1 18.8691 3.14484 6.28969 -8.94963
126 1 20.4415 4.71726 7.86211 -8.94963
127 1 22.0139 6.28969 6.28969 -8.94963
128 1 1.57242 7.86211 7.86211 -8.94965
129 1 3.14484 6.28968 6.28968 -8.94964
130 1 4.71716 7.86208 7.86208 -8.95016
131 1 6.28958 6.28958 6.28957 -8.94817
132 1 7.85893 7.85908 7.85894 -8.91213
133 1 9.43455 6.28971 6.28974 -8.95115
134 1 11.0077 7.86156 7.861 -8.99453
135 1 12.5794 6.2896 6.28967 -8.95044
136 1 14.1518 7.86246 7.8618 -8.98879
137 1 15.7242 6.28969 6.28969 -8.94975
138 1 17.2966 7.86213 7.86213 -8.94985
139 1 18.8691 6.28969 6.28969 -8.94964
140 1 20.4415 7.86211 7.86211 -8.94963
141 1 6.42701e-08 9.43453 6.28969 -8.94963
142 1 3.14484 9.43453 6.28968 -8.94964
143 1 6.28961 9.43448 6.28963 -8.94944
144 1 9.43357 9.43316 6.28947 -8.97824
145 1 12.5827 9.43149 6.28691 -8.96807
146 1 15.7244 9.43441 6.28956 -8.94943
147 1 18.8691 9.43453 6.28968 -8.94966
148 1 -9.6439e-11 1.93165e-18 9.43453 -8.94963
149 1 3.14484 -3.89238e-17 9.43453 -8.94963
150 1 6.28969 3.22048e-17 9.43453 -8.94963
151 1 9.43453 2.22019e-16 9.43453 -8.94968
152 1 12.5794 3.02585e-16 9.43453 -8.94964
153 1 15.7242 2.75697e-16 9.43453 -8.94963
154 1 18.8691 2.60202e-16 9.43453 -8.94963
155 1 22.0139 3.14484 9.43453 -8.94963
156 1 3.14484 3.14484 9.43453 -8.94963
157 1 6.28969 3.14484 9.43453 -8.94963
158 1 9.43453 3.14475 9.43453 -8.95053
183 1 1.57242 4.71726 11.007 -8.94963
177 1 4.71726 1.57242 11.007 -8.94963
181 1 17.2966 1.57242 11.007 -8.94963
184 1 4.71727 4.71727 11.0069 -8.94974
3 1 3.14484 2.72386e-16 1.82384e-10 -8.94963
11 1 15.7242 3.03644e-16 4.99098e-10 -8.94963
29 1 22.0139 6.28969 2.33789e-10 -8.94963
37 1 12.5794 6.28969 2.19453e-07 -8.94963
176 1 1.57242 1.57242 11.007 -8.94963
48 1 15.7242 9.43453 22.0139 -8.94963
178 1 7.86211 1.57242 11.007 -8.94965
179 1 11.007 1.57242 11.007 -8.94964
180 1 14.1518 1.57242 11.007 -8.94963
47 1 12.5794 9.43453 22.0139 -8.94965
343 1 18.8691 9.43453 18.8691 -8.94963
342 1 15.7242 9.43453 18.8691 -8.94963
46 1 9.43453 9.43453 22.0139 -8.94963
185 1 7.86205 4.71714 11.007 -8.94986
186 1 11.007 4.71719 11.007 -8.94904
187 1 14.1518 4.71727 11.007 -8.94941
188 1 17.2966 4.71726 11.0069 -8.94965
189 1 20.4415 4.71726 11.007 -8.94963
190 1 1.57242 7.86211 11.007 -8.94965
191 1 4.71716 7.86208 11.007 -8.95016
192 1 7.85893 7.85908 11.0101 -8.91213
341 1 12.5794 9.43453 18.8691 -8.94965
340 1 9.43453 9.43453 18.8691 -8.94963
339 1 6.28969 9.43453 18.8691 -8.94964
338 1 3.14484 9.43453 18.8691 -8.94963
197 1 22.0139 1.90635e-16 12.5794 -8.94963
198 1 1.57242 1.57242 14.1518 -8.94963
199 1 3.14484 2.59633e-16 12.5794 -8.94963
200 1 4.71726 1.57242 14.1518 -8.94963
201 1 6.28969 -1.52824e-17 12.5794 -8.94963
202 1 7.86211 1.57242 14.1518 -8.94963
203 1 9.43453 -3.01816e-17 12.5794 -8.94963
204 1 11.007 1.57242 14.1518 -8.94963
205 1 12.5794 3.55454e-16 12.5794 -8.94963
206 1 14.1518 1.57242 14.1518 -8.94963
207 1 15.7242 5.34353e-16 12.5794 -8.94963
208 1 17.2966 1.57242 14.1518 -8.94963
209 1 18.8691 4.4901e-16 12.5794 -8.94963
210 1 20.4415 1.57242 14.1518 -8.94963
211 1 1.08872e-08 3.14484 12.5794 -8.94963
212 1 1.57242 4.71726 14.1518 -8.94963
213 1 3.14484 3.14484 12.5794 -8.94964
214 1 4.71726 4.71726 14.1518 -8.94958
215 1 6.28968 3.14484 12.5794 -8.94962
216 1 7.86211 4.71727 14.1518 -8.94974
217 1 9.43453 3.14484 12.5794 -8.94964
218 1 11.0069 4.71727 14.1518 -8.94966
219 1 12.5794 3.14484 12.5794 -8.94964
220 1 14.1518 4.71726 14.1518 -8.94964
221 1 15.7242 3.14484 12.5794 -8.94963
222 1 17.2966 4.71726 14.1518 -8.94964
223 1 18.8691 3.14484 12.5794 -8.94963
224 1 20.4415 4.71726 14.1518 -8.94963
225 1 22.0139 6.28969 12.5794 -8.94963
226 1 1.57242 7.86211 14.1518 -8.94963
227 1 3.14484 6.28968 12.5794 -8.94964
228 1 4.71727 7.86211 14.1518 -8.94969
229 1 6.28958 6.28958 12.5795 -8.94817
230 1 7.86208 7.86209 14.1519 -8.9501
231 1 9.43455 6.28971 12.5793 -8.95115
232 1 11.0069 7.86216 14.1518 -8.95154
233 1 12.5794 6.2896 12.5794 -8.95044
234 1 14.1519 7.862 14.1519 -8.94829
235 1 15.7242 6.28969 12.5794 -8.94975
236 1 17.2966 7.8621 14.1518 -8.94959
237 1 18.8691 6.28969 12.5794 -8.94964
238 1 20.4415 7.86211 14.1518 -8.94963
239 1 6.42701e-08 9.43453 12.5794 -8.94963
240 1 3.14484 9.43453 12.5794 -8.94964
241 1 6.28961 9.43448 12.5794 -8.94944
242 1 9.43357 9.43316 12.5796 -8.97824
243 1 12.5827 9.43149 12.5821 -8.96807
244 1 15.7244 9.43441 12.5795 -8.94943
245 1 18.8691 9.43453 12.5794 -8.94966
246 1 2.41315e-10 2.17102e-16 15.7242 -8.94963
247 1 1.57242 1.57242 17.2966 -8.94963
248 1 3.14484 2.7916e-16 15.7242 -8.94963
249 1 4.71726 1.57242 17.2966 -8.94963
250 1 6.28969 -9.97092e-17 15.7242 -8.94963
251 1 7.86211 1.57242 17.2966 -8.94963
252 1 9.43453 -8.00533e-17 15.7242 -8.94963
253 1 11.007 1.57242 17.2966 -8.94963
254 1 12.5794 4.55475e-16 15.7242 -8.94963
255 1 14.1518 1.57242 17.2966 -8.94963
256 1 15.7242 4.46836e-16 15.7242 -8.94963
257 1 17.2966 1.57242 17.2966 -8.94963
258 1 18.8691 -2.31342e-16 15.7242 -8.94963
259 1 20.4415 1.57242 17.2966 -8.94963
260 1 22.0139 3.14484 15.7242 -8.94963
261 1 1.57242 4.71726 17.2966 -8.94963
262 1 3.14484 3.14484 15.7242 -8.94963
263 1 4.71726 4.71726 17.2966 -8.94963
264 1 6.28969 3.14484 15.7242 -8.94964
265 1 7.86211 4.71726 17.2966 -8.94963
266 1 9.43453 3.14484 15.7242 -8.94963
267 1 11.007 4.71726 17.2966 -8.94963
268 1 12.5794 3.14484 15.7242 -8.94963
269 1 14.1518 4.71726 17.2966 -8.94964
270 1 15.7242 3.14484 15.7242 -8.94963
271 1 17.2966 4.71726 17.2966 -8.94963
272 1 18.8691 3.14484 15.7242 -8.94963
273 1 20.4415 4.71726 17.2966 -8.94963
274 1 1.342e-08 6.28969 15.7242 -8.94963
275 1 1.57242 7.86211 17.2966 -8.94963
276 1 3.14484 6.28969 15.7242 -8.94964
277 1 4.71726 7.86211 17.2966 -8.94963
278 1 6.28968 6.28968 15.7242 -8.94964
279 1 7.86211 7.86211 17.2966 -8.94963
280 1 9.43453 6.28969 15.7242 -8.94965
281 1 11.0069 7.86211 17.2966 -8.94965
282 1 12.5794 6.28969 15.7242 -8.94973
283 1 14.1518 7.8621 17.2966 -8.94962
284 1 15.7242 6.28968 15.7242 -8.94959
285 1 17.2966 7.86211 17.2966 -8.94964
286 1 18.8691 6.28969 15.7242 -8.94963
287 1 20.4415 7.86211 17.2966 -8.94963
288 1 22.0139 9.43453 15.7242 -8.94963
289 1 3.14484 9.43453 15.7242 -8.94964
290 1 6.28968 9.43453 15.7242 -8.94968
291 1 9.43447 9.43447 15.7243 -8.94904
292 1 12.5794 9.43446 15.7243 -8.94971
293 1 15.7242 9.43453 15.7242 -8.94975
294 1 18.8691 9.43453 15.7242 -8.94964
295 1 22.0139 1.07968e-16 18.8691 -8.94963
296 1 1.57242 1.57242 20.4415 -8.94963
297 1 3.14484 3.16208e-16 18.8691 -8.94963
298 1 4.71726 1.57242 20.4415 -8.94963
299 1 6.28969 -1.58479e-16 18.8691 -8.94963
300 1 7.86211 1.57242 20.4415 -8.94963
301 1 9.43453 -4.97375e-16 18.8691 -8.94963
302 1 11.007 1.57242 20.4415 -8.94963
303 1 12.5794 7.19393e-16 18.8691 -8.94963
304 1 14.1518 1.57242 20.4415 -8.94963
305 1 15.7242 3.08303e-16 18.8691 -8.94963
306 1 17.2966 1.57242 20.4415 -8.94963
307 1 18.8691 2.07497e-16 18.8691 -8.94963
308 1 20.4415 1.57242 20.4415 -8.94963
309 1 1.83497e-10 3.14484 18.8691 -8.94963
310 1 1.57242 4.71726 20.4415 -8.94963
311 1 3.14484 3.14484 18.8691 -8.94963
312 1 4.71726 4.71726 20.4415 -8.94963
313 1 6.28969 3.14484 18.8691 -8.94963
314 1 7.86211 4.71726 20.4415 -8.94963
315 1 9.43453 3.14484 18.8691 -8.94963
316 1 11.007 4.71726 20.4415 -8.94963
317 1 12.5794 3.14484 18.8691 -8.94963
318 1 14.1518 4.71726 20.4415 -8.94963
319 1 15.7242 3.14484 18.8691 -8.94963
320 1 17.2966 4.71726 20.4415 -8.94963
321 1 18.8691 3.14484 18.8691 -8.94963
322 1 20.4415 4.71726 20.4415 -8.94963
323 1 22.0139 6.28969 18.8691 -8.94963
324 1 1.57242 7.86211 20.4415 -8.94963
325 1 3.14484 6.28969 18.8691 -8.94963
326 1 4.71726 7.86211 20.4415 -8.94963
327 1 6.28969 6.28969 18.8691 -8.94963
328 1 7.86211 7.86211 20.4415 -8.94963
329 1 9.43453 6.28969 18.8691 -8.94963
330 1 11.007 7.86211 20.4415 -8.94963
331 1 12.5794 6.28969 18.8691 -8.94963
332 1 14.1518 7.86211 20.4415 -8.94963
333 1 15.7242 6.28969 18.8691 -8.94963
334 1 17.2966 7.86211 20.4415 -8.94963
335 1 18.8691 6.28969 18.8691 -8.94963
336 1 20.4415 7.86211 20.4415 -8.94963
337 1 3.17488e-11 9.43453 18.8691 -8.94963
45 1 6.28969 9.43453 22.0139 -8.94964
5 1 6.28969 -1.46134e-16 22.0139 -8.94963
9 1 12.5794 7.21811e-16 22.0139 -8.94963
43 1 3.17487e-11 9.43453 22.0139 -8.94963
15 1 1.83497e-10 3.14484 22.0139 -8.94963
17 1 3.14484 3.14484 22.0139 -8.94963
19 1 6.28969 3.14484 22.0139 -8.94963
25 1 15.7242 3.14484 22.0139 -8.94963
41 1 18.8691 6.28969 22.0139 -8.94963
31 1 3.14484 6.28969 22.0139 -8.94963
13 1 18.8691 2.19982e-16 22.0139 -8.94963
23 1 12.5794 3.14484 22.0139 -8.94963
39 1 15.7242 6.28969 22.0139 -8.94963
182 1 20.4415 1.57242 11.007 -8.94963
193 1 11.0077 7.86156 11.0081 -8.99453
344 1 1.57242 11.007 1.57242 -8.94963
345 1 4.71726 11.007 1.57242 -8.94963
346 1 7.86211 11.007 1.57242 -8.94966
347 1 11.0069 11.007 1.57232 -8.95062
348 1 14.1518 11.007 1.57242 -8.94966
349 1 17.2966 11.007 1.57242 -8.94963
350 1 20.4415 11.007 1.57242 -8.94963
688 3 10.2251 11.007 9.43453 3.40462
352 1 1.57242 14.1518 1.57242 -8.94963
353 1 3.14484 12.5794 6.85896e-09 -8.94963
354 1 4.71726 14.1518 1.57242 -8.94963
687 2 11.7894 11.007 9.43453 0.722484
356 1 7.86211 14.1518 1.57242 -8.94963
511 1 18.8691 18.8691 9.43453 -8.94963
358 1 11.0069 14.1518 1.57242 -8.94965
510 1 15.7242 18.8691 9.43453 -8.94962
360 1 14.1518 14.1518 1.57242 -8.94962
509 1 12.5794 18.8691 9.43453 -8.94991
362 1 17.2966 14.1518 1.57242 -8.94964
363 1 18.8691 12.5794 -1.22176e-09 -8.94963
364 1 20.4415 14.1518 1.57242 -8.94963
508 1 9.43453 18.8691 9.43453 -8.95053
366 1 1.57242 17.2966 1.57242 -8.94963
507 1 6.28969 18.8691 9.43453 -8.94963
368 1 4.71726 17.2966 1.57242 -8.94963
369 1 6.28969 15.7242 -9.9561e-08 -8.94963
370 1 7.86211 17.2966 1.57242 -8.94963
371 1 9.43453 15.7242 1.24351e-07 -8.94963
372 1 11.007 17.2966 1.57242 -8.94963
506 1 3.14484 18.8691 9.43453 -8.94963
374 1 14.1518 17.2966 1.57242 -8.94964
526 1 1.57242 17.2966 11.007 -8.94963
376 1 17.2966 17.2966 1.57242 -8.94963
505 1 22.0139 18.8691 9.43453 -8.94963
378 1 20.4415 17.2966 1.57242 -8.94963
504 1 18.8691 15.7242 9.43453 -8.94961
380 1 1.57242 20.4415 1.57242 -8.94963
503 1 15.7242 15.7241 9.43453 -8.95029
382 1 4.71726 20.4415 1.57242 -8.94963
502 1 12.5793 15.7251 9.43453 -8.95668
384 1 7.86211 20.4415 1.57242 -8.94963
385 1 9.43453 18.8691 -3.42892e-09 -8.94963
386 1 11.007 20.4415 1.57242 -8.94963
525 1 20.4415 14.1518 11.007 -8.94963
388 1 14.1518 20.4415 1.57242 -8.94963
501 1 9.43446 15.7276 9.43453 -8.96873
390 1 17.2966 20.4415 1.57242 -8.94963
391 1 18.8691 18.8691 5.66754e-11 -8.94963
392 1 20.4415 20.4415 1.57242 -8.94963
393 1 1.57242 11.007 4.71726 -8.94963
394 1 4.71727 11.007 4.71727 -8.94966
395 1 7.86218 11.007 4.71727 -8.95163
396 1 11.007 11.007 4.71352 -8.97099
397 1 14.1518 11.007 4.7172 -8.95224
398 1 17.2966 11.007 4.71727 -8.94967
399 1 20.4415 11.007 4.71726 -8.94963
400 1 22.0139 12.5794 3.14484 -8.94963
401 1 1.57242 14.1518 4.71726 -8.94963
402 1 3.14484 12.5794 3.14484 -8.94964
403 1 4.71727 14.1518 4.71727 -8.94969
404 1 6.28968 12.5794 3.14484 -8.94968
405 1 7.86208 14.1518 4.71717 -8.9501
406 1 9.43447 12.5794 3.14478 -8.94904
407 1 11.0069 14.1517 4.71729 -8.95154
408 1 12.5794 12.5794 3.14471 -8.94971
409 1 14.1519 14.1519 4.71716 -8.94829
410 1 15.7242 12.5794 3.14484 -8.94975
411 1 17.2966 14.1518 4.71726 -8.94959
412 1 18.8691 12.5794 3.14484 -8.94964
413 1 20.4415 14.1518 4.71726 -8.94963
414 1 1.342e-08 15.7242 3.14484 -8.94963
415 1 1.57242 17.2966 4.71726 -8.94963
416 1 3.14484 15.7242 3.14484 -8.94964
417 1 4.71726 17.2966 4.71726 -8.94958
418 1 6.28968 15.7242 3.14484 -8.94964
419 1 7.86211 17.2966 4.71727 -8.94974
420 1 9.43453 15.7242 3.14484 -8.94965
421 1 11.0069 17.2966 4.71726 -8.94966
422 1 12.5794 15.7242 3.14485 -8.94973
423 1 14.1518 17.2966 4.71726 -8.94964
424 1 15.7242 15.7242 3.14484 -8.94959
425 1 17.2966 17.2966 4.71726 -8.94964
426 1 18.8691 15.7242 3.14484 -8.94963
427 1 20.4415 17.2966 4.71726 -8.94963
428 1 22.0139 18.8691 3.14484 -8.94963
429 1 1.57242 20.4415 4.71726 -8.94963
430 1 3.14484 18.8691 3.14484 -8.94963
431 1 4.71726 20.4415 4.71726 -8.94963
432 1 6.28969 18.8691 3.14484 -8.94964
433 1 7.86211 20.4415 4.71726 -8.94963
434 1 9.43453 18.8691 3.14484 -8.94963
435 1 11.007 20.4415 4.71726 -8.94963
436 1 12.5794 18.8691 3.14484 -8.94963
437 1 14.1518 20.4415 4.71726 -8.94963
438 1 15.7242 18.8691 3.14484 -8.94963
439 1 17.2966 20.4415 4.71726 -8.94963
440 1 18.8691 18.8691 3.14484 -8.94963
441 1 20.4415 20.4415 4.71726 -8.94963
442 1 1.57242 11.007 7.86211 -8.94965
443 1 4.71714 11.007 7.86206 -8.94973
444 1 7.85972 11.007 7.85993 -8.96075
445 1 11.0453 11.007 7.74136 -8.27182
446 1 14.1567 11.007 7.85963 -8.99703
447 1 17.2968 11.007 7.86211 -8.951
448 1 20.4415 11.007 7.86211 -8.94968
449 1 6.42701e-08 12.5794 6.28969 -8.94963
450 1 1.57242 14.1518 7.86211 -8.94965
451 1 3.14484 12.5794 6.28968 -8.94964
452 1 4.71716 14.1518 7.86208 -8.95016
453 1 6.28961 12.5794 6.28963 -8.94944
454 1 7.85893 14.1548 7.85894 -8.91213
455 1 9.43357 12.5807 6.28947 -8.97824
456 1 11.0077 14.1523 7.861 -8.99453
457 1 12.5827 12.5824 6.28691 -8.96807
458 1 14.1518 14.1514 7.8618 -8.98879
459 1 15.7244 12.5795 6.28956 -8.94943
460 1 17.2966 14.1518 7.86213 -8.94985
461 1 18.8691 12.5794 6.28968 -8.94966
462 1 20.4415 14.1518 7.86211 -8.94963
463 1 22.0139 15.7242 6.28969 -8.94963
464 1 1.57242 17.2966 7.86211 -8.94963
465 1 3.14484 15.7242 6.28968 -8.94964
466 1 4.71727 17.2966 7.86211 -8.94974
467 1 6.28958 15.7243 6.28957 -8.94817
468 1 7.86205 17.2968 7.86205 -8.94986
469 1 9.43455 15.7242 6.28974 -8.95115
470 1 11.007 17.2967 7.86204 -8.94904
471 1 12.5794 15.7243 6.28967 -8.95044
472 1 14.1518 17.2966 7.8621 -8.94941
473 1 15.7242 15.7242 6.28969 -8.94975
474 1 17.2966 17.2966 7.86211 -8.94965
475 1 18.8691 15.7242 6.28969 -8.94964
476 1 20.4415 17.2966 7.86211 -8.94963
477 1 1.08872e-08 18.8691 6.28969 -8.94963
478 1 1.57242 20.4415 7.86211 -8.94963
479 1 3.14484 18.8691 6.28969 -8.94964
480 1 4.71726 20.4415 7.86211 -8.94963
481 1 6.28968 18.8691 6.28968 -8.94962
482 1 7.86211 20.4415 7.86211 -8.94965
483 1 9.43453 18.8691 6.28969 -8.94964
484 1 11.007 20.4415 7.86211 -8.94964
485 1 12.5794 18.8691 6.28969 -8.94964
486 1 14.1518 20.4415 7.86211 -8.94963
487 1 15.7242 18.8691 6.28969 -8.94963
488 1 17.2966 20.4415 7.86211 -8.94963
489 1 18.8691 18.8691 6.28969 -8.94963
490 1 20.4415 20.4415 7.86211 -8.94963
491 1 22.0139 12.5794 9.43453 -8.94964
492 1 3.1448 12.5794 9.43453 -8.95011
493 1 6.2878 12.5796 9.43453 -8.9607
494 1 9.38193 12.6835 9.43453 -8.04097
495 1 12.5935 12.6037 9.43453 -9.19823
496 1 15.7236 12.5788 9.43453 -8.99796
497 1 18.869 12.5794 9.43453 -8.94942
498 1 2.2345e-08 15.7242 9.43453 -8.94963
499 1 3.14484 15.7242 9.43453 -8.94962
500 1 6.28972 15.7242 9.43453 -8.95156
517 1 17.2968 11.007 11.0069 -8.951
518 1 20.4415 11.007 11.0069 -8.94968
524 1 17.2966 14.1518 11.0069 -8.94985
523 1 14.1518 14.1514 11.0073 -8.98879
527 1 4.71727 17.2966 11.0069 -8.94974
534 1 4.71726 20.4415 11.007 -8.94963
538 1 17.2966 20.4415 11.007 -8.94963
365 1 22.0139 15.7242 2.33789e-10 -8.94963
373 1 12.5794 15.7242 2.19453e-07 -8.94963
512 1 1.57242 11.007 11.007 -8.94965
513 1 4.71714 11.007 11.007 -8.94973
514 1 7.85972 11.007 11.0091 -8.96075
515 1 11.0453 11.007 11.1277 -8.27182
516 1 14.1567 11.007 11.0094 -8.99703
686 1 20.4415 20.4415 20.4415 -8.94963
685 1 18.8691 18.8691 18.8691 -8.94963
519 1 1.57242 14.1518 11.007 -8.94965
520 1 4.71716 14.1518 11.007 -8.95016
521 1 7.85893 14.1548 11.0101 -8.91213
684 1 17.2966 20.4415 20.4415 -8.94963
683 1 15.7242 18.8691 18.8691 -8.94963
682 1 14.1518 20.4415 20.4415 -8.94963
681 1 12.5794 18.8691 18.8691 -8.94963
680 1 11.007 20.4415 20.4415 -8.94963
389 1 15.7242 18.8691 22.0139 -8.94963
528 1 7.86205 17.2968 11.007 -8.94986
529 1 11.007 17.2967 11.007 -8.94904
530 1 14.1518 17.2966 11.007 -8.94941
531 1 17.2966 17.2966 11.0069 -8.94965
532 1 20.4415 17.2966 11.007 -8.94963
533 1 1.57242 20.4415 11.007 -8.94963
383 1 6.28969 18.8691 22.0139 -8.94963
535 1 7.86211 20.4415 11.007 -8.94965
536 1 11.007 20.4415 11.007 -8.94964
537 1 14.1518 20.4415 11.007 -8.94963
381 1 3.14484 18.8691 22.0139 -8.94963
679 1 9.43453 18.8691 18.8691 -8.94963
540 1 1.57242 11.007 14.1518 -8.94963
541 1 4.71727 11.007 14.1518 -8.94966
542 1 7.86218 11.007 14.1518 -8.95163
543 1 11.007 11.007 14.1555 -8.97099
544 1 14.1518 11.007 14.1519 -8.95224
545 1 17.2966 11.007 14.1518 -8.94967
546 1 20.4415 11.007 14.1518 -8.94963
547 1 6.42701e-08 12.5794 12.5794 -8.94963
548 1 1.57242 14.1518 14.1518 -8.94963
549 1 3.14484 12.5794 12.5794 -8.94964
550 1 4.71727 14.1518 14.1518 -8.94969
551 1 6.28961 12.5794 12.5794 -8.94944
552 1 7.86208 14.1518 14.1519 -8.9501
553 1 9.43357 12.5807 12.5796 -8.97824
554 1 11.0069 14.1517 14.1518 -8.95154
555 1 12.5827 12.5824 12.5821 -8.96807
556 1 14.1519 14.1519 14.1519 -8.94829
557 1 15.7244 12.5795 12.5795 -8.94943
558 1 17.2966 14.1518 14.1518 -8.94959
559 1 18.8691 12.5794 12.5794 -8.94966
560 1 20.4415 14.1518 14.1518 -8.94963
561 1 22.0139 15.7242 12.5794 -8.94963
562 1 1.57242 17.2966 14.1518 -8.94963
563 1 3.14484 15.7242 12.5794 -8.94964
564 1 4.71726 17.2966 14.1518 -8.94958
565 1 6.28958 15.7243 12.5795 -8.94817
566 1 7.86211 17.2966 14.1518 -8.94974
567 1 9.43455 15.7242 12.5793 -8.95115
568 1 11.0069 17.2966 14.1518 -8.94966
569 1 12.5794 15.7243 12.5794 -8.95044
570 1 14.1518 17.2966 14.1518 -8.94964
571 1 15.7242 15.7242 12.5794 -8.94975
572 1 17.2966 17.2966 14.1518 -8.94964
573 1 18.8691 15.7242 12.5794 -8.94964
574 1 20.4415 17.2966 14.1518 -8.94963
575 1 1.08872e-08 18.8691 12.5794 -8.94963
576 1 1.57242 20.4415 14.1518 -8.94963
577 1 3.14484 18.8691 12.5794 -8.94964
578 1 4.71726 20.4415 14.1518 -8.94963
579 1 6.28968 18.8691 12.5794 -8.94962
580 1 7.86211 20.4415 14.1518 -8.94963
581 1 9.43453 18.8691 12.5794 -8.94964
582 1 11.007 20.4415 14.1518 -8.94963
583 1 12.5794 18.8691 12.5794 -8.94964
584 1 14.1518 20.4415 14.1518 -8.94963
585 1 15.7242 18.8691 12.5794 -8.94963
586 1 17.2966 20.4415 14.1518 -8.94963
587 1 18.8691 18.8691 12.5794 -8.94963
588 1 20.4415 20.4415 14.1518 -8.94963
589 1 1.57242 11.007 17.2966 -8.94963
590 1 4.71726 11.007 17.2966 -8.94963
591 1 7.86211 11.007 17.2966 -8.94966
592 1 11.0069 11.007 17.2967 -8.95062
593 1 14.1518 11.007 17.2966 -8.94966
594 1 17.2966 11.007 17.2966 -8.94963
595 1 20.4415 11.007 17.2966 -8.94963
596 1 22.0139 12.5794 15.7242 -8.94963
597 1 1.57242 14.1518 17.2966 -8.94963
598 1 3.14484 12.5794 15.7242 -8.94964
599 1 4.71726 14.1518 17.2966 -8.94963
600 1 6.28968 12.5794 15.7242 -8.94968
601 1 7.86211 14.1518 17.2966 -8.94963
602 1 9.43447 12.5794 15.7243 -8.94904
603 1 11.0069 14.1518 17.2966 -8.94965
604 1 12.5794 12.5794 15.7243 -8.94971
605 1 14.1518 14.1518 17.2966 -8.94962
606 1 15.7242 12.5794 15.7242 -8.94975
607 1 17.2966 14.1518 17.2966 -8.94964
608 1 18.8691 12.5794 15.7242 -8.94964
609 1 20.4415 14.1518 17.2966 -8.94963
610 1 1.342e-08 15.7242 15.7242 -8.94963
611 1 1.57242 17.2966 17.2966 -8.94963
612 1 3.14484 15.7242 15.7242 -8.94964
613 1 4.71726 17.2966 17.2966 -8.94963
614 1 6.28968 15.7242 15.7242 -8.94964
615 1 7.86211 17.2966 17.2966 -8.94963
616 1 9.43453 15.7242 15.7242 -8.94965
617 1 11.007 17.2966 17.2966 -8.94963
618 1 12.5794 15.7242 15.7242 -8.94973
619 1 14.1518 17.2966 17.2966 -8.94964
620 1 15.7242 15.7242 15.7242 -8.94959
621 1 17.2966 17.2966 17.2966 -8.94963
622 1 18.8691 15.7242 15.7242 -8.94963
623 1 20.4415 17.2966 17.2966 -8.94963
624 1 22.0139 18.8691 15.7242 -8.94963
625 1 1.57242 20.4415 17.2966 -8.94963
626 1 3.14484 18.8691 15.7242 -8.94963
627 1 4.71726 20.4415 17.2966 -8.94963
628 1 6.28969 18.8691 15.7242 -8.94964
629 1 7.86211 20.4415 17.2966 -8.94963
630 1 9.43453 18.8691 15.7242 -8.94963
631 1 11.007 20.4415 17.2966 -8.94963
632 1 12.5794 18.8691 15.7242 -8.94963
633 1 14.1518 20.4415 17.2966 -8.94963
634 1 15.7242 18.8691 15.7242 -8.94963
635 1 17.2966 20.4415 17.2966 -8.94963
636 1 18.8691 18.8691 15.7242 -8.94963
637 1 20.4415 20.4415 17.2966 -8.94963
638 1 1.57242 11.007 20.4415 -8.94963
639 1 4.71726 11.007 20.4415 -8.94963
640 1 7.86211 11.007 20.4415 -8.94963
641 1 11.007 11.007 20.4415 -8.94969
642 1 14.1518 11.007 20.4415 -8.94963
643 1 17.2966 11.007 20.4415 -8.94963
644 1 20.4415 11.007 20.4415 -8.94963
645 1 3.17487e-11 12.5794 18.8691 -8.94963
646 1 1.57242 14.1518 20.4415 -8.94963
647 1 3.14484 12.5794 18.8691 -8.94963
648 1 4.71726 14.1518 20.4415 -8.94963
649 1 6.28969 12.5794 18.8691 -8.94964
650 1 7.86211 14.1518 20.4415 -8.94963
651 1 9.43453 12.5794 18.8691 -8.94963
652 1 11.007 14.1518 20.4415 -8.94963
653 1 12.5794 12.5794 18.8691 -8.94965
654 1 14.1518 14.1518 20.4415 -8.94963
655 1 15.7242 12.5794 18.8691 -8.94963
656 1 17.2966 14.1518 20.4415 -8.94963
657 1 18.8691 12.5794 18.8691 -8.94963
658 1 20.4415 14.1518 20.4415 -8.94963
659 1 22.0139 15.7242 18.8691 -8.94963
660 1 1.57242 17.2966 20.4415 -8.94963
661 1 3.14484 15.7242 18.8691 -8.94963
662 1 4.71726 17.2966 20.4415 -8.94963
663 1 6.28969 15.7242 18.8691 -8.94963
664 1 7.86211 17.2966 20.4415 -8.94963
665 1 9.43453 15.7242 18.8691 -8.94963
666 1 11.007 17.2966 20.4415 -8.94963
667 1 12.5794 15.7242 18.8691 -8.94963
668 1 14.1518 17.2966 20.4415 -8.94963
669 1 15.7242 15.7242 18.8691 -8.94963
670 1 17.2966 17.2966 20.4415 -8.94963
671 1 18.8691 15.7242 18.8691 -8.94963
672 1 20.4415 17.2966 20.4415 -8.94963
673 1 1.83496e-10 18.8691 18.8691 -8.94963
674 1 1.57242 20.4415 20.4415 -8.94963
675 1 3.14484 18.8691 18.8691 -8.94963
676 1 4.71726 20.4415 20.4415 -8.94963
677 1 6.28969 18.8691 18.8691 -8.94963
678 1 7.86211 20.4415 20.4415 -8.94963
351 1 3.17487e-11 12.5794 22.0139 -8.94963
355 1 6.28969 12.5794 22.0139 -8.94964
357 1 9.43453 12.5794 22.0139 -8.94963
359 1 12.5794 12.5794 22.0139 -8.94965
361 1 15.7242 12.5794 22.0139 -8.94963
379 1 1.83496e-10 18.8691 22.0139 -8.94963
367 1 3.14484 15.7242 22.0139 -8.94963
377 1 18.8691 15.7242 22.0139 -8.94963
375 1 15.7242 15.7242 22.0139 -8.94963
539 1 20.4415 20.4415 11.007 -8.94963
387 1 12.5794 18.8691 22.0139 -8.94963
522 1 11.0077 14.1523 11.0081 -8.99453
