ITEM: TIMESTEP
70
ITEM: NUMBER OF ATOMS
688
ITEM: BOX BOUNDS pp pp pp
0.0000000000000000e+00 2.2013900999999997e+01
0.0000000000000000e+00 2.2013900999999997e+01
0.0000000000000000e+00 2.2013900999999997e+01
ITEM: ATOMS id type x y z c_pot
1 1 22.0138 2.99016e-16 -0.000109924 -8.94935
2 1 1.57204 1.57218 1.57204 -8.94923
175 1 18.8696 9.43412 9.43453 -8.94632
4 1 4.71695 1.57208 1.57193 -8.94964
174 1 15.7196 9.43713 9.43453 -8.98691
6 1 7.86199 1.57206 1.57191 -8.9495
7 1 9.43451 7.21936e-16 -0.000220872 -8.94958
8 1 11.007 1.57203 1.57191 -8.94953
173 1 12.5909 9.39804 9.43453 -9.12653
10 1 14.152 1.57203 1.57199 -8.94949
172 1 9.35046 9.21943 9.43453 -8.19044
12 1 17.297 1.57198 1.572 -8.94955
196 1 20.4417 7.86177 11.0069 -8.94988
14 1 20.4415 1.57224 1.57225 -8.94957
171 1 6.2806 9.42751 9.43453 -8.97378
16 1 1.57212 4.71704 1.57197 -8.94983
170 1 3.14212 9.43491 9.43453 -8.95129
18 1 4.71609 4.71619 1.57077 -8.94926
169 1 22.0134 9.43455 9.43453 -8.94936
20 1 7.86169 4.71627 1.5711 -8.94916
21 1 9.43445 3.14436 -0.000392051 -8.94954
22 1 11.0069 4.71614 1.57115 -8.94936
195 1 17.2984 7.86162 11.006 -8.95135
24 1 14.1523 4.71601 1.57113 -8.94961
168 1 18.8698 6.28879 9.43453 -8.94924
26 1 17.298 4.71584 1.57112 -8.9481
27 1 18.8695 3.14441 -0.000284556 -8.94918
28 1 20.4419 4.71687 1.57202 -8.94953
167 1 15.7255 6.28795 9.43453 -8.94612
30 1 1.57222 7.86206 1.57202 -8.94943
166 1 12.5774 6.28234 9.43453 -8.9601
32 1 4.71675 7.86229 1.57168 -8.94961
33 1 6.28914 6.28927 -0.000987401 -8.95062
34 1 7.86144 7.86162 1.56992 -8.95252
35 1 9.43419 6.28896 -0.000941441 -8.94958
36 1 11.0066 7.86093 1.56956 -8.95037
165 1 9.42913 6.29282 9.43453 -8.99928
38 1 14.1536 7.86032 1.56839 -8.95182
194 1 14.1582 7.8576 11.0089 -8.97782
40 1 17.2981 7.8613 1.57095 -8.9492
164 1 6.27889 6.2796 9.43453 -8.94147
42 1 20.442 7.86188 1.57194 -8.94947
163 1 3.14048 6.2874 9.43453 -8.94906
44 1 3.14452 9.43452 -0.000297537 -8.94957
162 1 -0.000928963 6.28907 9.43453 -8.94993
161 1 18.8694 3.14434 9.43453 -8.9496
160 1 15.725 3.14371 9.43453 -8.94911
159 1 12.5795 3.14276 9.43453 -8.95113
49 1 18.8697 9.4344 -0.000416442 -8.94951
50 1 -0.000172112 -5.1285e-17 3.14469 -8.9496
51 1 1.57193 1.5721 4.71695 -8.94953
52 1 3.14429 4.17727e-16 3.14429 -8.94955
53 1 4.71636 1.57139 4.71636 -8.94998
54 1 6.28944 4.44024e-16 3.14426 -8.94957
55 1 7.86188 1.57137 4.71642 -8.94964
56 1 9.43455 2.18957e-16 3.14422 -8.94956
57 1 11.0072 1.57143 4.71647 -8.94962
58 1 12.5796 5.66673e-16 3.1443 -8.94953
59 1 14.1523 1.57144 4.71682 -8.9506
60 1 15.7246 1.44129e-15 3.14446 -8.95003
61 1 17.297 1.57202 4.71709 -8.94964
62 1 18.8692 -3.89004e-16 3.14471 -8.94964
63 1 20.4415 1.57225 4.71717 -8.94958
64 1 22.0136 3.14448 3.14449 -8.94958
65 1 1.57104 4.71641 4.71637 -8.94967
66 1 3.1436 3.14375 3.14361 -8.94829
67 1 4.71319 4.71341 4.71332 -8.94471
68 1 6.28901 3.14354 3.1436 -8.94967
69 1 7.86069 4.7135 4.71457 -8.9494
70 1 9.43443 3.14354 3.14368 -8.94938
71 1 11.0073 4.71379 4.71473 -8.94793
72 1 12.5797 3.14347 3.14382 -8.94911
73 1 14.1545 4.7125 4.71456 -8.95068
74 1 15.7253 3.14317 3.14375 -8.94965
75 1 17.298 4.71585 4.71662 -8.94986
76 1 18.8695 3.1443 3.14452 -8.9497
77 1 20.4416 4.71683 4.71704 -8.9499
78 1 0.000102226 6.28944 3.14442 -8.94983
79 1 1.57174 7.86213 4.71673 -8.94988
80 1 3.14376 6.28936 3.14383 -8.9504
81 1 4.7147 7.86197 4.7156 -8.95184
82 1 6.28647 6.28673 3.14006 -8.94921
83 1 7.85429 7.85411 4.70585 -8.95028
84 1 9.43379 6.28709 3.14157 -8.94769
85 1 11.0075 7.85624 4.70818 -8.94995
86 1 12.5804 6.2868 3.1413 -8.94868
87 1 14.166 7.84847 4.70278 -8.92835
88 1 15.7288 6.28512 3.14026 -8.94407
89 1 17.3016 7.85957 4.7147 -8.95024
90 1 18.8707 6.2886 3.1438 -8.94952
91 1 20.4426 7.86167 4.71672 -8.95023
92 1 22.0141 9.43442 3.14429 -8.94955
93 1 3.14405 9.43455 3.14397 -8.949
94 1 6.28892 9.43516 3.14385 -8.94876
95 1 9.4344 9.43392 3.14226 -8.95211
96 1 12.5826 9.43262 3.13575 -8.95902
97 1 15.7284 9.43299 3.14051 -8.94767
98 1 18.8708 9.43413 3.14368 -8.94927
99 1 22.0137 1.03687e-15 6.28959 -8.94958
100 1 1.57188 1.57207 7.86199 -8.94953
101 1 3.14419 1.60948e-15 6.28936 -8.94942
102 1 4.71618 1.5713 7.86174 -8.94938
103 1 6.2892 8.4815e-16 6.28919 -8.9506
104 1 7.86183 1.57074 7.86196 -8.95138
105 1 9.43462 4.50648e-16 6.28915 -8.95022
106 1 11.0069 1.57149 7.86203 -8.94941
107 1 12.5796 5.54816e-16 6.28951 -8.9503
108 1 14.1523 1.57161 7.86204 -8.94969
109 1 15.7247 7.16227e-17 6.28955 -8.94964
110 1 17.2971 1.57207 7.86207 -8.94947
111 1 18.8693 1.10267e-16 6.28963 -8.94954
112 1 20.4415 1.57222 7.86207 -8.94958
113 1 -0.000391641 3.14442 6.28949 -8.94948
114 1 1.57092 4.71629 7.86176 -8.94929
115 1 3.1435 3.14363 6.28898 -8.94923
116 1 4.71352 4.71366 7.86078 -8.94764
117 1 6.28791 3.14127 6.2881 -8.95147
118 1 7.85884 4.70902 7.86087 -8.95924
119 1 9.43445 3.14173 6.28841 -8.95044
120 1 11.0055 4.71447 7.86152 -8.94944
121 1 12.5797 3.14228 6.28931 -8.95232
122 1 14.1531 4.71447 7.86201 -8.94832
123 1 15.7251 3.14356 6.28949 -8.94952
124 1 17.2975 4.71636 7.86219 -8.94918
125 1 18.8694 3.14442 6.28964 -8.94951
126 1 20.4415 4.71673 7.86203 -8.94953
127 1 22.0132 6.28924 6.28935 -8.95021
128 1 1.57005 7.86176 7.86183 -8.95172
129 1 3.14071 6.28773 6.28773 -8.9508
130 1 4.70699 7.85832 7.85975 -8.9579
131 1 6.27692 6.27744 6.27814 -8.93068
132 1 7.82169 7.82546 7.83082 -8.85836
133 1 9.43307 6.28009 6.28471 -8.95245
134 1 11.0177 7.8558 7.84027 -8.96627
135 1 12.5847 6.27854 6.28391 -8.95588
136 1 14.1582 7.8576 7.8602 -8.97782
137 1 15.7276 6.28664 6.28847 -8.95003
138 1 17.2984 7.86162 7.86307 -8.95135
139 1 18.87 6.2891 6.28973 -8.95018
140 1 20.4417 7.86177 7.86218 -8.94988
141 1 7.39232e-05 9.43454 6.28936 -8.95006
142 1 3.14315 9.43519 6.28908 -8.94994
143 1 6.28531 9.43669 6.28905 -8.95485
144 1 9.41357 9.40551 6.27822 -8.9349
145 1 12.6253 9.39573 6.24928 -8.89287
146 1 15.7371 9.43077 6.28393 -8.95643
147 1 18.8722 9.43409 6.28911 -8.95218
148 1 -0.000205284 1.49395e-15 9.43453 -8.94959
149 1 3.14414 1.58038e-15 9.43453 -8.94949
150 1 6.28893 1.59981e-15 9.43453 -8.9503
151 1 9.43466 1.71264e-15 9.43453 -8.94853
152 1 12.5797 1.35446e-15 9.43453 -8.95002
153 1 15.7247 6.36566e-16 9.43453 -8.94956
154 1 18.8693 1.30493e-16 9.43453 -8.94959
155 1 22.0135 3.14438 9.43453 -8.94954
156 1 3.14342 3.14358 9.43453 -8.94948
157 1 6.28731 3.14101 9.43453 -8.94947
158 1 9.43426 3.14357 9.43453 -8.94618
183 1 1.57092 4.71629 11.0073 -8.94929
177 1 4.71618 1.5713 11.0073 -8.94938
181 1 17.2971 1.57207 11.007 -8.94947
184 1 4.71352 4.71366 11.0083 -8.94764
3 1 3.14468 -2.37868e-16 -0.000183605 -8.94963
11 1 15.7243 1.81218e-15 -0.000167206 -8.94958
29 1 22.014 6.28959 -0.000170341 -8.94954
37 1 12.5794 6.2889 -0.00100912 -8.9496
176 1 1.57188 1.57207 11.0071 -8.94953
48 1 15.7253 9.43415 22.0126 -8.94948
178 1 7.86183 1.57074 11.0071 -8.95138
179 1 11.0069 1.57149 11.007 -8.94941
180 1 14.1523 1.57161 11.007 -8.94969
47 1 12.5795 9.43435 22.0121 -8.9515
343 1 18.8697 9.4344 18.8695 -8.94951
342 1 15.7253 9.43415 18.8703 -8.94948
46 1 9.43427 9.43457 22.0132 -8.9496
185 1 7.85884 4.70902 11.0082 -8.95924
186 1 11.0055 4.71447 11.0075 -8.94944
187 1 14.1531 4.71447 11.007 -8.94832
188 1 17.2975 4.71636 11.0069 -8.94918
189 1 20.4415 4.71673 11.007 -8.94953
190 1 1.57005 7.86176 11.0072 -8.95172
191 1 4.70699 7.85832 11.0093 -8.9579
192 1 7.82169 7.82546 11.0382 -8.85836
341 1 12.5795 9.43435 18.8709 -8.9515
340 1 9.43427 9.43457 18.8698 -8.9496
339 1 6.28928 9.43464 18.8695 -8.94936
338 1 3.14452 9.43452 18.8694 -8.94957
197 1 22.0137 1.42951e-15 12.5795 -8.94958
198 1 1.57193 1.5721 14.1521 -8.94953
199 1 3.14419 1.5833e-15 12.5797 -8.94942
200 1 4.71636 1.57139 14.1527 -8.94998
201 1 6.2892 1.66665e-15 12.5799 -8.9506
202 1 7.86188 1.57137 14.1526 -8.94964
203 1 9.43462 1.41387e-15 12.5799 -8.95022
204 1 11.0072 1.57143 14.1526 -8.94962
205 1 12.5796 1.48208e-15 12.5795 -8.9503
206 1 14.1523 1.57144 14.1522 -8.9506
207 1 15.7247 2.19353e-17 12.5795 -8.94964
208 1 17.297 1.57202 14.152 -8.94964
209 1 18.8693 2.66736e-17 12.5794 -8.94954
210 1 20.4415 1.57225 14.1519 -8.94958
211 1 -0.000391641 3.14442 12.5796 -8.94948
212 1 1.57104 4.71641 14.1527 -8.94967
213 1 3.1435 3.14363 12.5801 -8.94923
214 1 4.71319 4.71341 14.1557 -8.94471
215 1 6.28791 3.14127 12.581 -8.95147
216 1 7.86069 4.7135 14.1545 -8.9494
217 1 9.43445 3.14173 12.5806 -8.95044
218 1 11.0073 4.71379 14.1543 -8.94793
219 1 12.5797 3.14228 12.5798 -8.95232
220 1 14.1545 4.7125 14.1545 -8.95068
221 1 15.7251 3.14356 12.5796 -8.94952
222 1 17.298 4.71585 14.1524 -8.94986
223 1 18.8694 3.14442 12.5794 -8.94951
224 1 20.4416 4.71683 14.152 -8.9499
225 1 22.0132 6.28924 12.5797 -8.95021
226 1 1.57174 7.86213 14.1523 -8.94988
227 1 3.14071 6.28773 12.5813 -8.9508
228 1 4.7147 7.86197 14.1535 -8.95184
229 1 6.27692 6.27744 12.5909 -8.93068
230 1 7.85429 7.85411 14.1632 -8.95028
231 1 9.43307 6.28009 12.5844 -8.95245
232 1 11.0075 7.85624 14.1609 -8.94995
233 1 12.5847 6.27854 12.5851 -8.95588
234 1 14.166 7.84847 14.1663 -8.92835
235 1 15.7276 6.28664 12.5806 -8.95003
236 1 17.3016 7.85957 14.1544 -8.95024
237 1 18.87 6.2891 12.5793 -8.95018
238 1 20.4426 7.86167 14.1523 -8.95023
239 1 7.39232e-05 9.43454 12.5797 -8.95006
240 1 3.14315 9.43519 12.58 -8.94994
241 1 6.28531 9.43669 12.58 -8.95485
242 1 9.41357 9.40551 12.5908 -8.9349
243 1 12.6253 9.39573 12.6198 -8.89287
244 1 15.7371 9.43077 12.5851 -8.95643
245 1 18.8722 9.43409 12.58 -8.95218
246 1 -0.000172112 1.23349e-15 15.7244 -8.9496
247 1 1.57204 1.57218 17.297 -8.94923
248 1 3.14429 1.46165e-15 15.7248 -8.94955
249 1 4.71695 1.57208 17.2971 -8.94964
250 1 6.28944 1.16049e-15 15.7248 -8.94957
251 1 7.86199 1.57206 17.2971 -8.9495
252 1 9.43455 1.7189e-15 15.7248 -8.94956
253 1 11.007 1.57203 17.2972 -8.94953
254 1 12.5796 1.71502e-15 15.7248 -8.94953
255 1 14.152 1.57203 17.2971 -8.94949
256 1 15.7246 1.38051e-15 15.7246 -8.95003
257 1 17.297 1.57198 17.2971 -8.94955
258 1 18.8692 -2.45861e-16 15.7244 -8.94964
259 1 20.4415 1.57224 17.2968 -8.94957
260 1 22.0136 3.14448 15.7246 -8.94958
261 1 1.57212 4.71704 17.2971 -8.94983
262 1 3.1436 3.14375 15.7255 -8.94829
263 1 4.71609 4.71619 17.2983 -8.94926
264 1 6.28901 3.14354 15.7255 -8.94967
265 1 7.86169 4.71627 17.298 -8.94916
266 1 9.43443 3.14354 15.7254 -8.94938
267 1 11.0069 4.71614 17.2979 -8.94936
268 1 12.5797 3.14347 15.7252 -8.94911
269 1 14.1523 4.71601 17.2979 -8.94961
270 1 15.7253 3.14317 15.7253 -8.94965
271 1 17.298 4.71584 17.2979 -8.9481
272 1 18.8695 3.1443 15.7245 -8.9497
273 1 20.4419 4.71687 17.297 -8.94953
274 1 0.000102226 6.28944 15.7246 -8.94983
275 1 1.57222 7.86206 17.297 -8.94943
276 1 3.14376 6.28936 15.7252 -8.9504
277 1 4.71675 7.86229 17.2974 -8.94961
278 1 6.28647 6.28673 15.729 -8.94921
279 1 7.86144 7.86162 17.2991 -8.95252
280 1 9.43379 6.28709 15.7275 -8.94769
281 1 11.0066 7.86093 17.2995 -8.95037
282 1 12.5804 6.2868 15.7278 -8.94868
283 1 14.1536 7.86032 17.3007 -8.95182
284 1 15.7288 6.28512 15.7288 -8.94407
285 1 17.2981 7.8613 17.2981 -8.9492
286 1 18.8707 6.2886 15.7253 -8.94952
287 1 20.442 7.86188 17.2971 -8.94947
288 1 22.0141 9.43442 15.7248 -8.94955
289 1 3.14405 9.43455 15.7251 -8.949
290 1 6.28892 9.43516 15.7252 -8.94876
291 1 9.4344 9.43392 15.7268 -8.95211
292 1 12.5826 9.43262 15.7333 -8.95902
293 1 15.7284 9.43299 15.7286 -8.94767
294 1 18.8708 9.43413 15.7254 -8.94927
295 1 22.0138 6.59117e-16 18.8692 -8.94935
296 1 1.57226 1.57226 20.4415 -8.94943
297 1 3.14468 1.37566e-15 18.8692 -8.94963
298 1 4.71714 1.57227 20.4415 -8.94959
299 1 6.28959 7.11174e-16 18.8693 -8.94956
300 1 7.86204 1.57223 20.4415 -8.94957
301 1 9.43451 7.07681e-16 18.8693 -8.94958
302 1 11.007 1.57221 20.4415 -8.94958
303 1 12.5794 1.772e-15 18.8693 -8.94957
304 1 14.1519 1.57223 20.4415 -8.94956
305 1 15.7243 1.91722e-15 18.8692 -8.94958
306 1 17.2968 1.57224 20.4415 -8.94965
307 1 18.8692 8.6349e-16 18.8692 -8.94949
308 1 20.4416 1.5723 20.4415 -8.94935
309 1 1.48999e-05 3.14469 18.8692 -8.9496
310 1 1.57233 4.71721 20.4415 -8.94971
311 1 3.14443 3.14445 18.8695 -8.94944
312 1 4.71685 4.71691 20.4415 -8.94998
313 1 6.28948 3.14444 18.8694 -8.94952
314 1 7.86186 4.71678 20.4415 -8.94952
315 1 9.43445 3.14436 18.8695 -8.94954
316 1 11.0069 4.71669 20.4415 -8.94955
317 1 12.5794 3.14435 18.8694 -8.9495
318 1 14.152 4.71671 20.4415 -8.94958
319 1 15.7245 3.14435 18.8694 -8.94966
320 1 17.2972 4.71666 20.4415 -8.94957
321 1 18.8695 3.14441 18.8693 -8.94918
322 1 20.4417 4.7171 20.4415 -8.94958
323 1 22.014 6.28959 18.8692 -8.94954
324 1 1.57231 7.86207 20.4415 -8.94956
325 1 3.1446 6.28968 18.8693 -8.94971
326 1 4.71697 7.86215 20.4415 -8.94952
327 1 6.28914 6.28927 18.87 -8.95062
328 1 7.86182 7.86201 20.4415 -8.95045
329 1 9.43419 6.28896 18.87 -8.94958
330 1 11.0067 7.86167 20.4415 -8.95017
331 1 12.5794 6.2889 18.8701 -8.9496
332 1 14.1522 7.86159 20.4415 -8.95076
333 1 15.7251 6.2887 18.8702 -8.95007
334 1 17.2973 7.86176 20.4415 -8.94945
335 1 18.8696 6.28933 18.8694 -8.94951
336 1 20.4417 7.862 20.4415 -8.94957
337 1 7.01551e-05 9.43449 18.8693 -8.94958
45 1 6.28928 9.43464 22.0135 -8.94936
5 1 6.28959 4.74202e-16 22.0137 -8.94956
9 1 12.5794 1.30444e-15 22.0137 -8.94957
43 1 7.01551e-05 9.43449 22.0137 -8.94958
15 1 1.48999e-05 3.14469 22.0137 -8.9496
17 1 3.14443 3.14445 22.0135 -8.94944
19 1 6.28948 3.14444 22.0135 -8.94952
25 1 15.7245 3.14435 22.0135 -8.94966
41 1 18.8696 6.28933 22.0135 -8.94951
31 1 3.1446 6.28968 22.0136 -8.94971
13 1 18.8692 5.10856e-16 22.0137 -8.94949
23 1 12.5794 3.14435 22.0135 -8.9495
39 1 15.7251 6.2887 22.0127 -8.95007
182 1 20.4415 1.57222 11.007 -8.94958
193 1 11.0177 7.8558 11.0288 -8.96627
344 1 1.5722 11.007 1.57196 -8.94957
345 1 4.71664 11.007 1.57161 -8.94964
346 1 7.8617 11.007 1.57192 -8.94837
347 1 11.0069 11.007 1.57079 -8.94768
348 1 14.1541 11.007 1.56823 -8.94987
349 1 17.2982 11.007 1.57092 -8.94937
350 1 20.442 11.007 1.57191 -8.94952
688 3 10.2924 11.007 9.43453 2.18977
352 1 1.57222 14.1518 1.57202 -8.94943
353 1 3.14452 12.5794 -0.000297537 -8.94957
354 1 4.71675 14.1516 1.57168 -8.94961
687 2 11.6719 11.007 9.43453 0.190691
356 1 7.86144 14.1523 1.56992 -8.95252
511 1 18.8694 18.8696 9.43453 -8.9496
358 1 11.0066 14.153 1.56956 -8.95037
510 1 15.725 18.8702 9.43453 -8.94911
360 1 14.1536 14.1536 1.56839 -8.95182
509 1 12.5795 18.8711 9.43453 -8.95113
362 1 17.2981 14.1526 1.57095 -8.9492
363 1 18.8697 12.5795 -0.000416442 -8.94951
364 1 20.442 14.152 1.57194 -8.94947
508 1 9.43426 18.8703 9.43453 -8.94618
366 1 1.57212 17.2969 1.57197 -8.94983
507 1 6.28731 18.8729 9.43453 -8.94947
368 1 4.71609 17.2977 1.57077 -8.94926
369 1 6.28914 15.7246 -0.000987401 -8.95062
370 1 7.86169 17.2976 1.5711 -8.94916
371 1 9.43419 15.7249 -0.000941441 -8.94958
372 1 11.0069 17.2978 1.57115 -8.94936
506 1 3.14342 18.8703 9.43453 -8.94948
374 1 14.1523 17.2979 1.57113 -8.94961
526 1 1.57092 17.2976 11.0073 -8.94929
376 1 17.298 17.2981 1.57112 -8.9481
505 1 22.0135 18.8695 9.43453 -8.94954
378 1 20.4419 17.297 1.57202 -8.94953
504 1 18.8698 15.7251 9.43453 -8.94924
380 1 1.57204 20.4417 1.57204 -8.94923
503 1 15.7255 15.726 9.43453 -8.94612
382 1 4.71695 20.4418 1.57193 -8.94964
502 1 12.5774 15.7316 9.43453 -8.9601
384 1 7.86199 20.4418 1.57191 -8.9495
385 1 9.43445 18.8695 -0.000392051 -8.94954
386 1 11.007 20.4419 1.57191 -8.94953
525 1 20.4417 14.1521 11.0069 -8.94988
388 1 14.152 20.4419 1.57199 -8.94949
501 1 9.42913 15.7211 9.43453 -8.99928
390 1 17.297 20.4419 1.572 -8.94955
391 1 18.8695 18.8695 -0.000284556 -8.94918
392 1 20.4415 20.4417 1.57225 -8.94957
393 1 1.57179 11.007 4.71645 -8.94958
394 1 4.71543 11.007 4.71548 -8.94662
395 1 7.86298 11.007 4.71839 -8.94498
396 1 11.0118 11.007 4.71609 -9.01408
397 1 14.1633 11.007 4.70513 -8.9439
398 1 17.3017 11.007 4.71444 -8.94857
399 1 20.4427 11.007 4.71655 -8.9499
400 1 22.0141 12.5795 3.14429 -8.94955
401 1 1.57174 14.1518 4.71673 -8.94988
402 1 3.14405 12.5794 3.14397 -8.949
403 1 4.7147 14.1519 4.7156 -8.95184
404 1 6.28892 12.5787 3.14385 -8.94876
405 1 7.85429 14.1598 4.70585 -8.95028
406 1 9.4344 12.58 3.14226 -8.95211
407 1 11.0075 14.1577 4.70818 -8.94995
408 1 12.5826 12.5813 3.13575 -8.95902
409 1 14.166 14.1654 4.70278 -8.92835
410 1 15.7284 12.5809 3.14051 -8.94767
411 1 17.3016 14.1543 4.7147 -8.95024
412 1 18.8708 12.5798 3.14368 -8.94927
413 1 20.4426 14.1522 4.71672 -8.95023
414 1 0.000102226 15.7245 3.14442 -8.94983
415 1 1.57104 17.2975 4.71637 -8.94967
416 1 3.14376 15.7245 3.14383 -8.9504
417 1 4.71319 17.3005 4.71332 -8.94471
418 1 6.28647 15.7272 3.14006 -8.94921
419 1 7.86069 17.3004 4.71457 -8.9494
420 1 9.43379 15.7268 3.14157 -8.94769
421 1 11.0073 17.3001 4.71473 -8.94793
422 1 12.5804 15.7271 3.1413 -8.94868
423 1 14.1545 17.3014 4.71456 -8.95068
424 1 15.7288 15.7288 3.14026 -8.94407
425 1 17.298 17.298 4.71662 -8.94986
426 1 18.8707 15.7253 3.1438 -8.94952
427 1 20.4416 17.2971 4.71704 -8.9499
428 1 22.0136 18.8694 3.14449 -8.94958
429 1 1.57193 20.4418 4.71695 -8.94953
430 1 3.1436 18.8701 3.14361 -8.94829
431 1 4.71636 20.4425 4.71636 -8.94998
432 1 6.28901 18.8704 3.1436 -8.94967
433 1 7.86188 20.4425 4.71642 -8.94964
434 1 9.43443 18.8704 3.14368 -8.94938
435 1 11.0072 20.4425 4.71647 -8.94962
436 1 12.5797 18.8704 3.14382 -8.94911
437 1 14.1523 20.4425 4.71682 -8.9506
438 1 15.7253 18.8707 3.14375 -8.94965
439 1 17.297 20.4419 4.71709 -8.94964
440 1 18.8695 18.8696 3.14452 -8.9497
441 1 20.4415 20.4416 4.71717 -8.94958
442 1 1.5719 11.007 7.8618 -8.94784
443 1 4.71881 11.007 7.86246 -8.93939
444 1 7.8836 11.007 7.87102 -8.96875
445 1 11.0744 11.007 7.58308 -8.3147
446 1 14.1686 11.007 7.84576 -9.01633
447 1 17.3008 11.007 7.86225 -8.9537
448 1 20.4424 11.007 7.86223 -8.94991
449 1 7.39232e-05 12.5794 6.28936 -8.95006
450 1 1.57005 14.1521 7.86183 -8.95172
451 1 3.14315 12.5787 6.28908 -8.94994
452 1 4.70699 14.1556 7.85975 -8.9579
453 1 6.28531 12.5772 6.28905 -8.95485
454 1 7.82169 14.1884 7.83082 -8.85836
455 1 9.41357 12.6084 6.27822 -8.9349
456 1 11.0177 14.1581 7.84027 -8.96627
457 1 12.6253 12.6182 6.24928 -8.89287
458 1 14.1582 14.1563 7.8602 -8.97782
459 1 15.7371 12.5831 6.28393 -8.95643
460 1 17.2984 14.1523 7.86307 -8.95135
461 1 18.8722 12.5798 6.28911 -8.95218
462 1 20.4417 14.1521 7.86218 -8.94988
463 1 22.0132 15.7247 6.28935 -8.95021
464 1 1.57092 17.2976 7.86176 -8.94929
465 1 3.14071 15.7262 6.28773 -8.9508
466 1 4.71352 17.3002 7.86078 -8.94764
467 1 6.27692 15.7365 6.27814 -8.93068
468 1 7.85884 17.3049 7.86087 -8.95924
469 1 9.43307 15.7338 6.28471 -8.95245
470 1 11.0055 17.2994 7.86152 -8.94944
471 1 12.5847 15.7354 6.28391 -8.95588
472 1 14.1531 17.2994 7.86201 -8.94832
473 1 15.7276 15.7273 6.28847 -8.95003
474 1 17.2975 17.2975 7.86219 -8.94918
475 1 18.87 15.7248 6.28973 -8.95018
476 1 20.4415 17.2972 7.86203 -8.94953
477 1 -0.000391641 18.8695 6.28949 -8.94948
478 1 1.57188 20.4418 7.86199 -8.94953
479 1 3.1435 18.8703 6.28898 -8.94923
480 1 4.71618 20.4426 7.86174 -8.94938
481 1 6.28791 18.8726 6.2881 -8.95147
482 1 7.86183 20.4432 7.86196 -8.95138
483 1 9.43445 18.8722 6.28841 -8.95044
484 1 11.0069 20.4424 7.86203 -8.94941
485 1 12.5797 18.8716 6.28931 -8.95232
486 1 14.1523 20.4423 7.86204 -8.94969
487 1 15.7251 18.8703 6.28949 -8.94952
488 1 17.2971 20.4418 7.86207 -8.94947
489 1 18.8694 18.8695 6.28964 -8.94951
490 1 20.4415 20.4417 7.86207 -8.94958
491 1 22.0134 12.5793 9.43453 -8.94936
492 1 3.14212 12.579 9.43453 -8.95129
493 1 6.2806 12.5864 9.43453 -8.97378
494 1 9.35046 12.7945 9.43453 -8.19044
495 1 12.5909 12.6159 9.43453 -9.12653
496 1 15.7196 12.5768 9.43453 -8.98691
497 1 18.8696 12.5798 9.43453 -8.94632
498 1 -0.000928963 15.7248 9.43453 -8.94993
499 1 3.14048 15.7265 9.43453 -8.94906
500 1 6.27889 15.7343 9.43453 -8.94147
517 1 17.3008 11.007 11.0068 -8.9537
518 1 20.4424 11.007 11.0068 -8.94991
524 1 17.2984 14.1523 11.006 -8.95135
523 1 14.1582 14.1563 11.0089 -8.97782
527 1 4.71352 17.3002 11.0083 -8.94764
534 1 4.71618 20.4426 11.0073 -8.94938
538 1 17.2971 20.4418 11.007 -8.94947
365 1 22.014 15.7243 -0.000170341 -8.94954
373 1 12.5794 15.725 -0.00100912 -8.9496
512 1 1.5719 11.007 11.0073 -8.94784
513 1 4.71881 11.007 11.0066 -8.93939
514 1 7.8836 11.007 10.998 -8.96875
515 1 11.0744 11.007 11.286 -8.3147
516 1 14.1686 11.007 11.0233 -9.01633
686 1 20.4416 20.4416 20.4415 -8.94935
685 1 18.8695 18.8695 18.8693 -8.94918
519 1 1.57005 14.1521 11.0072 -8.95172
520 1 4.70699 14.1556 11.0093 -8.9579
521 1 7.82169 14.1884 11.0382 -8.85836
684 1 17.2968 20.4417 20.4415 -8.94965
683 1 15.7245 18.8695 18.8694 -8.94966
682 1 14.1519 20.4417 20.4415 -8.94956
681 1 12.5794 18.8696 18.8694 -8.9495
680 1 11.007 20.4417 20.4415 -8.94958
389 1 15.7245 18.8695 22.0135 -8.94966
528 1 7.85884 17.3049 11.0082 -8.95924
529 1 11.0055 17.2994 11.0075 -8.94944
530 1 14.1531 17.2994 11.007 -8.94832
531 1 17.2975 17.2975 11.0069 -8.94918
532 1 20.4415 17.2972 11.007 -8.94953
533 1 1.57188 20.4418 11.0071 -8.94953
383 1 6.28948 18.8695 22.0135 -8.94952
535 1 7.86183 20.4432 11.0071 -8.95138
536 1 11.0069 20.4424 11.007 -8.94941
537 1 14.1523 20.4423 11.007 -8.94969
381 1 3.14443 18.8695 22.0135 -8.94944
679 1 9.43445 18.8695 18.8695 -8.94954
540 1 1.57179 11.007 14.1526 -8.94958
541 1 4.71543 11.007 14.1536 -8.94662
542 1 7.86298 11.007 14.1507 -8.94498
543 1 11.0118 11.007 14.153 -9.01408
544 1 14.1633 11.007 14.1639 -8.9439
545 1 17.3017 11.007 14.1546 -8.94857
546 1 20.4427 11.007 14.1525 -8.9499
547 1 7.39232e-05 12.5794 12.5797 -8.95006
548 1 1.57174 14.1518 14.1523 -8.94988
549 1 3.14315 12.5787 12.58 -8.94994
550 1 4.7147 14.1519 14.1535 -8.95184
551 1 6.28531 12.5772 12.58 -8.95485
552 1 7.85429 14.1598 14.1632 -8.95028
553 1 9.41357 12.6084 12.5908 -8.9349
554 1 11.0075 14.1577 14.1609 -8.94995
555 1 12.6253 12.6182 12.6198 -8.89287
556 1 14.166 14.1654 14.1663 -8.92835
557 1 15.7371 12.5831 12.5851 -8.95643
558 1 17.3016 14.1543 14.1544 -8.95024
559 1 18.8722 12.5798 12.58 -8.95218
560 1 20.4426 14.1522 14.1523 -8.95023
561 1 22.0132 15.7247 12.5797 -8.95021
562 1 1.57104 17.2975 14.1527 -8.94967
563 1 3.14071 15.7262 12.5813 -8.9508
564 1 4.71319 17.3005 14.1557 -8.94471
565 1 6.27692 15.7365 12.5909 -8.93068
566 1 7.86069 17.3004 14.1545 -8.9494
567 1 9.43307 15.7338 12.5844 -8.95245
568 1 11.0073 17.3001 14.1543 -8.94793
569 1 12.5847 15.7354 12.5851 -8.95588
570 1 14.1545 17.3014 14.1545 -8.95068
571 1 15.7276 15.7273 12.5806 -8.95003
572 1 17.298 17.298 14.1524 -8.94986
573 1 18.87 15.7248 12.5793 -8.95018
574 1 20.4416 17.2971 14.152 -8.9499
575 1 -0.000391641 18.8695 12.5796 -8.94948
576 1 1.57193 20.4418 14.1521 -8.94953
577 1 3.1435 18.8703 12.5801 -8.94923
578 1 4.71636 20.4425 14.1527 -8.94998
579 1 6.28791 18.8726 12.581 -8.95147
580 1 7.86188 20.4425 14.1526 -8.94964
581 1 9.43445 18.8722 12.5806 -8.95044
582 1 11.0072 20.4425 14.1526 -8.94962
583 1 12.5797 18.8716 12.5798 -8.95232
584 1 14.1523 20.4425 14.1522 -8.9506
585 1 15.7251 18.8703 12.5796 -8.94952
586 1 17.297 20.4419 14.152 -8.94964
587 1 18.8694 18.8695 12.5794 -8.94951
588 1 20.4415 20.4416 14.1519 -8.94958
589 1 1.5722 11.007 17.2971 -8.94957
590 1 4.71664 11.007 17.2974 -8.94964
591 1 7.8617 11.007 17.2971 -8.94837
592 1 11.0069 11.007 17.2983 -8.94768
593 1 14.1541 11.007 17.3008 -8.94987
594 1 17.2982 11.007 17.2981 -8.94937
595 1 20.442 11.007 17.2972 -8.94952
596 1 22.0141 12.5795 15.7248 -8.94955
597 1 1.57222 14.1518 17.297 -8.94943
598 1 3.14405 12.5794 15.7251 -8.949
599 1 4.71675 14.1516 17.2974 -8.94961
600 1 6.28892 12.5787 15.7252 -8.94876
601 1 7.86144 14.1523 17.2991 -8.95252
602 1 9.4344 12.58 15.7268 -8.95211
603 1 11.0066 14.153 17.2995 -8.95037
604 1 12.5826 12.5813 15.7333 -8.95902
605 1 14.1536 14.1536 17.3007 -8.95182
606 1 15.7284 12.5809 15.7286 -8.94767
607 1 17.2981 14.1526 17.2981 -8.9492
608 1 18.8708 12.5798 15.7254 -8.94927
609 1 20.442 14.152 17.2971 -8.94947
610 1 0.000102226 15.7245 15.7246 -8.94983
611 1 1.57212 17.2969 17.2971 -8.94983
612 1 3.14376 15.7245 15.7252 -8.9504
613 1 4.71609 17.2977 17.2983 -8.94926
614 1 6.28647 15.7272 15.729 -8.94921
615 1 7.86169 17.2976 17.298 -8.94916
616 1 9.43379 15.7268 15.7275 -8.94769
617 1 11.0069 17.2978 17.2979 -8.94936
618 1 12.5804 15.7271 15.7278 -8.94868
619 1 14.1523 17.2979 17.2979 -8.94961
620 1 15.7288 15.7288 15.7288 -8.94407
621 1 17.298 17.2981 17.2979 -8.9481
622 1 18.8707 15.7253 15.7253 -8.94952
623 1 20.4419 17.297 17.297 -8.94953
624 1 22.0136 18.8694 15.7246 -8.94958
625 1 1.57204 20.4417 17.297 -8.94923
626 1 3.1436 18.8701 15.7255 -8.94829
627 1 4.71695 20.4418 17.2971 -8.94964
628 1 6.28901 18.8704 15.7255 -8.94967
629 1 7.86199 20.4418 17.2971 -8.9495
630 1 9.43443 18.8704 15.7254 -8.94938
631 1 11.007 20.4419 17.2972 -8.94953
632 1 12.5797 18.8704 15.7252 -8.94911
633 1 14.152 20.4419 17.2971 -8.94949
634 1 15.7253 18.8707 15.7253 -8.94965
635 1 17.297 20.4419 17.2971 -8.94955
636 1 18.8695 18.8696 15.7245 -8.9497
637 1 20.4415 20.4417 17.2968 -8.94957
638 1 1.57229 11.007 20.4415 -8.9496
639 1 4.71689 11.007 20.4415 -8.94966
640 1 7.86171 11.007 20.4415 -8.94925
641 1 11.0066 11.007 20.4415 -8.94881
642 1 14.1525 11.007 20.4415 -8.95039
643 1 17.2974 11.007 20.4415 -8.94951
644 1 20.4418 11.007 20.4415 -8.94958
645 1 7.01551e-05 12.5794 18.8693 -8.94958
646 1 1.57231 14.1518 20.4415 -8.94956
647 1 3.14452 12.5794 18.8694 -8.94957
648 1 4.71697 14.1518 20.4415 -8.94952
649 1 6.28928 12.5793 18.8695 -8.94936
650 1 7.86182 14.1519 20.4415 -8.95045
651 1 9.43427 12.5793 18.8698 -8.9496
652 1 11.0067 14.1522 20.4415 -8.95017
653 1 12.5795 12.5796 18.8709 -8.9515
654 1 14.1522 14.1523 20.4415 -8.95076
655 1 15.7253 12.5798 18.8703 -8.94948
656 1 17.2973 14.1521 20.4415 -8.94945
657 1 18.8697 12.5795 18.8695 -8.94951
658 1 20.4417 14.1519 20.4415 -8.94957
659 1 22.014 15.7243 18.8692 -8.94954
660 1 1.57233 17.2967 20.4415 -8.94971
661 1 3.1446 15.7242 18.8693 -8.94971
662 1 4.71685 17.297 20.4415 -8.94998
663 1 6.28914 15.7246 18.87 -8.95062
664 1 7.86186 17.2971 20.4415 -8.94952
665 1 9.43419 15.7249 18.87 -8.94958
666 1 11.0069 17.2972 20.4415 -8.94955
667 1 12.5794 15.725 18.8701 -8.9496
668 1 14.152 17.2972 20.4415 -8.94958
669 1 15.7251 15.7252 18.8702 -8.95007
670 1 17.2972 17.2972 20.4415 -8.94957
671 1 18.8696 15.7246 18.8694 -8.94951
672 1 20.4417 17.2968 20.4415 -8.94958
673 1 1.48999e-05 18.8692 18.8692 -8.9496
674 1 1.57226 20.4416 20.4415 -8.94943
675 1 3.14443 18.8695 18.8695 -8.94944
676 1 4.71714 20.4416 20.4415 -8.94959
677 1 6.28948 18.8695 18.8694 -8.94952
678 1 7.86204 20.4417 20.4415 -8.94957
351 1 7.01551e-05 12.5794 22.0137 -8.94958
355 1 6.28928 12.5793 22.0135 -8.94936
357 1 9.43427 12.5793 22.0132 -8.9496
359 1 12.5795 12.5796 22.0121 -8.9515
361 1 15.7253 12.5798 22.0126 -8.94948
379 1 1.48999e-05 18.8692 22.0137 -8.9496
367 1 3.1446 15.7242 22.0136 -8.94971
377 1 18.8696 15.7246 22.0135 -8.94951
375 1 15.7251 15.7252 22.0127 -8.95007
539 1 20.4415 20.4417 11.007 -8.94958
387 1 12.5794 18.8696 22.0135 -8.9495
522 1 11.0177 14.1581 11.0288 -8.96627
