ITEM: TIMESTEP
97
ITEM: NUMBER OF ATOMS
688
ITEM: BOX BOUNDS pp pp pp
0.0000000000000000e+00 2.2013900999999997e+01
0.0000000000000000e+00 2.2013900999999997e+01
0.0000000000000000e+00 2.2013900999999997e+01
ITEM: ATOMS id type x y z c_pot
1 1 22.0137 1.54568e-16 -0.000219007 -8.94922
2 1 1.5718 1.57205 1.57179 -8.94917
175 1 18.8693 9.43415 9.43453 -8.94605
4 1 4.71666 1.57189 1.5716 -8.94961
174 1 15.7186 9.43765 9.43453 -8.98571
6 1 7.86185 1.57188 1.57162 -8.94945
7 1 9.43447 1.03093e-15 -0.000369468 -8.94953
8 1 11.007 1.57185 1.57165 -8.94949
173 1 12.5907 9.40019 9.43453 -9.12238
10 1 14.1522 1.57181 1.57175 -8.94947
172 1 9.35228 9.2245 9.43453 -8.19469
12 1 17.2973 1.57176 1.57178 -8.94954
196 1 20.4416 7.86171 11.0069 -8.94984
14 1 20.4416 1.5721 1.57208 -8.94952
171 1 6.28096 9.42732 9.43453 -8.97365
16 1 1.57195 4.71684 1.57169 -8.94984
170 1 3.14221 9.43473 9.43453 -8.95121
18 1 4.71568 4.71584 1.57034 -8.94921
169 1 22.0134 9.43451 9.43453 -8.94921
20 1 7.86142 4.71587 1.5707 -8.94912
21 1 9.43437 3.1441 -0.000565951 -8.94949
22 1 11.007 4.71571 1.57075 -8.94933
195 1 17.2983 7.86168 11.006 -8.95139
24 1 14.1527 4.71546 1.57066 -8.94958
168 1 18.8697 6.28868 9.43453 -8.94925
26 1 17.2986 4.71531 1.57072 -8.94801
27 1 18.8698 3.14411 -0.000436801 -8.94909
28 1 20.4422 4.71659 1.57179 -8.9495
167 1 15.7253 6.28808 9.43453 -8.94614
30 1 1.5722 7.86199 1.57181 -8.94941
166 1 12.5772 6.28296 9.43453 -8.9597
32 1 4.71653 7.86218 1.57145 -8.9496
33 1 6.28889 6.28909 -0.00121187 -8.9507
34 1 7.86123 7.86134 1.5696 -8.95256
35 1 9.43407 6.28869 -0.00115507 -8.9496
36 1 11.0068 7.86056 1.56909 -8.95043
165 1 9.42908 6.29298 9.43453 -8.99822
38 1 14.1542 7.85981 1.56769 -8.95183
194 1 14.1578 7.85804 11.0091 -8.97732
40 1 17.2988 7.86088 1.57044 -8.94913
164 1 6.27823 6.27903 9.43453 -8.94144
42 1 20.4423 7.86169 1.57168 -8.94943
163 1 3.13981 6.28689 9.43453 -8.94905
44 1 3.14445 9.43452 -0.000388908 -8.94954
162 1 -0.00123888 6.28885 9.43453 -8.94996
161 1 18.8694 3.14417 9.43453 -8.94956
160 1 15.7251 3.14364 9.43453 -8.94904
159 1 12.5794 3.14292 9.43453 -8.951
49 1 18.8702 9.43427 -0.0006268 -8.94944
50 1 -0.00034015 -2.33425e-18 3.1445 -8.94954
51 1 1.57158 1.57194 4.71667 -8.94946
52 1 3.14395 5.18418e-15 3.14395 -8.94952
53 1 4.71596 1.57114 4.716 -8.94998
54 1 6.28919 4.84145e-15 3.14391 -8.94958
55 1 7.86167 1.57111 4.71613 -8.94973
56 1 9.43451 2.33668e-15 3.14393 -8.94956
57 1 11.0072 1.57122 4.71625 -8.94969
58 1 12.5797 5.30642e-15 3.14408 -8.94955
59 1 14.1524 1.57121 4.71668 -8.95071
60 1 15.7248 1.78355e-15 3.14427 -8.95011
61 1 17.2972 1.57184 4.71698 -8.94967
62 1 18.8694 1.49081e-18 3.14457 -8.94964
63 1 20.4414 1.57213 4.71704 -8.94954
64 1 22.0134 3.14427 3.14425 -8.94957
65 1 1.57065 4.71612 4.71606 -8.94968
66 1 3.14317 3.14343 3.14319 -8.94829
67 1 4.71257 4.7129 4.71287 -8.94482
68 1 6.28859 3.1431 3.14314 -8.94968
69 1 7.86016 4.71279 4.7141 -8.94949
70 1 9.4343 3.14313 3.14331 -8.94937
71 1 11.0074 4.71319 4.71421 -8.94794
72 1 12.5799 3.14302 3.14346 -8.94911
73 1 14.155 4.71184 4.71405 -8.95074
74 1 15.7257 3.14267 3.14341 -8.94968
75 1 17.2984 4.71543 4.71638 -8.94997
76 1 18.8697 3.14399 3.14432 -8.94973
77 1 20.4416 4.71659 4.71688 -8.94995
78 1 0.000145274 6.28926 3.14417 -8.94989
79 1 1.57159 7.86202 4.71656 -8.94998
80 1 3.14338 6.2891 3.14346 -8.95046
81 1 4.7142 7.86158 4.71532 -8.95194
82 1 6.28586 6.28611 3.13949 -8.949
83 1 7.85357 7.8531 4.70523 -8.9495
84 1 9.4336 6.28643 3.141 -8.94758
85 1 11.0078 7.85538 4.70714 -8.94954
86 1 12.5809 6.28608 3.14053 -8.94857
87 1 14.1671 7.84765 4.70163 -8.92784
88 1 15.7296 6.28436 3.13953 -8.94386
89 1 17.3024 7.85912 4.71416 -8.95025
90 1 18.8713 6.2882 3.14344 -8.94952
91 1 20.4429 7.86151 4.71652 -8.95031
92 1 22.0143 9.43437 3.14405 -8.94956
93 1 3.14393 9.4345 3.14379 -8.949
94 1 6.2887 9.43496 3.1437 -8.94864
95 1 9.43438 9.43351 3.14175 -8.95227
96 1 12.5834 9.43221 3.1347 -8.95907
97 1 15.7294 9.43261 3.13959 -8.94756
98 1 18.8715 9.43395 3.14325 -8.94926
99 1 22.0135 3.46281e-16 6.28945 -8.94952
100 1 1.57148 1.57188 7.86187 -8.94948
101 1 3.14376 8.45773e-15 6.2891 -8.94937
102 1 4.71568 1.57102 7.86158 -8.94938
103 1 6.28891 9.70955e-14 6.28899 -8.95064
104 1 7.86156 1.57062 7.86189 -8.95139
105 1 9.43453 7.83162e-14 6.28903 -8.95028
106 1 11.0068 1.57151 7.86203 -8.94934
107 1 12.5796 2.68303e-14 6.28949 -8.95036
108 1 14.1524 1.57156 7.86206 -8.94966
109 1 15.7248 -8.6701e-16 6.28953 -8.94965
110 1 17.2972 1.57197 7.86206 -8.94943
111 1 18.8693 -6.01724e-17 6.28957 -8.9495
112 1 20.4414 1.5721 7.86202 -8.94954
113 1 -0.000648258 3.14418 6.28933 -8.94943
114 1 1.5704 4.71592 7.86163 -8.94927
115 1 3.14292 3.14322 6.28866 -8.94918
116 1 4.71272 4.71303 7.86056 -8.94763
117 1 6.28739 3.14081 6.28781 -8.95146
118 1 7.85828 4.70872 7.86077 -8.95919
119 1 9.43423 3.14144 6.28821 -8.95057
120 1 11.0053 4.7146 7.86134 -8.94928
121 1 12.5797 3.14203 6.28915 -8.95244
122 1 14.1531 4.71446 7.86194 -8.94822
123 1 15.7252 3.14332 6.28941 -8.94953
124 1 17.2976 4.7162 7.86218 -8.94916
125 1 18.8694 3.14422 6.28958 -8.94949
126 1 20.4414 4.71651 7.86199 -8.94953
127 1 22.013 6.28906 6.28924 -8.95024
128 1 1.5698 7.86158 7.8618 -8.95171
129 1 3.14014 6.28732 6.28748 -8.95077
130 1 4.70667 7.8578 7.8597 -8.95775
131 1 6.2764 6.27693 6.278 -8.93116
132 1 7.82216 7.82553 7.83146 -8.86116
133 1 9.43276 6.27948 6.28424 -8.95277
134 1 11.0177 7.85636 7.83975 -8.96785
135 1 12.585 6.27804 6.28322 -8.95609
136 1 14.1578 7.85804 7.85999 -8.97732
137 1 15.728 6.28637 6.28824 -8.95025
138 1 17.2983 7.86168 7.86307 -8.95139
139 1 18.8702 6.28893 6.28967 -8.95027
140 1 20.4416 7.86171 7.86218 -8.94984
141 1 0.000160552 9.43451 6.28931 -8.95009
142 1 3.14308 9.43509 6.28906 -8.95004
143 1 6.28507 9.43622 6.28894 -8.95518
144 1 9.4128 9.40434 6.27651 -8.93366
145 1 12.6261 9.39505 6.24734 -8.89106
146 1 15.7377 9.43053 6.28309 -8.9565
147 1 18.8725 9.43401 6.28891 -8.95232
148 1 -0.000434349 7.12279e-16 9.43453 -8.94953
149 1 3.14368 3.88114e-15 9.43453 -8.94946
150 1 6.28857 1.62795e-13 9.43453 -8.95036
151 1 9.43452 -1.27772e-13 9.43453 -8.9484
152 1 12.5797 2.30532e-14 9.43453 -8.94991
153 1 15.7248 -2.84804e-15 9.43453 -8.94953
154 1 18.8693 2.13915e-16 9.43453 -8.94955
155 1 22.0132 3.14414 9.43453 -8.9495
156 1 3.14279 3.14315 9.43453 -8.94945
157 1 6.28668 3.14056 9.43453 -8.9495
158 1 9.43397 3.14366 9.43453 -8.94613
183 1 1.5704 4.71592 11.0074 -8.94927
177 1 4.71568 1.57102 11.0075 -8.94938
181 1 17.2972 1.57197 11.007 -8.94943
184 1 4.71272 4.71303 11.0085 -8.94763
3 1 3.14446 -4.42049e-16 -0.000350069 -8.94957
11 1 15.7245 1.20239e-15 -0.000301335 -8.94954
29 1 22.0141 6.28946 -0.000305418 -8.9495
37 1 12.5796 6.28854 -0.00129847 -8.94964
176 1 1.57148 1.57188 11.0072 -8.94948
48 1 15.7259 9.43395 22.0123 -8.9495
178 1 7.86156 1.57062 11.0072 -8.95139
179 1 11.0068 1.57151 11.007 -8.94934
180 1 14.1524 1.57156 11.007 -8.94966
47 1 12.5797 9.43421 22.0118 -8.95164
343 1 18.8702 9.43427 18.8697 -8.94944
342 1 15.7259 9.43395 18.8707 -8.9495
46 1 9.43425 9.4345 22.0131 -8.94964
185 1 7.85828 4.70872 11.0083 -8.95919
186 1 11.0053 4.7146 11.0077 -8.94928
187 1 14.1531 4.71446 11.0071 -8.94822
188 1 17.2976 4.7162 11.0069 -8.94916
189 1 20.4414 4.71651 11.0071 -8.94953
190 1 1.5698 7.86158 11.0073 -8.95171
191 1 4.70667 7.8578 11.0094 -8.95775
192 1 7.82216 7.82553 11.0376 -8.86116
341 1 12.5797 9.43421 18.8711 -8.95164
340 1 9.43425 9.4345 18.8699 -8.94964
339 1 6.28917 9.43463 18.8695 -8.94933
338 1 3.14445 9.43452 18.8694 -8.94954
197 1 22.0135 6.97935e-16 12.5796 -8.94952
198 1 1.57158 1.57194 14.1524 -8.94946
199 1 3.14376 8.80769e-15 12.58 -8.94937
200 1 4.71596 1.57114 14.1531 -8.94998
201 1 6.28891 9.82934e-14 12.5801 -8.95064
202 1 7.86167 1.57111 14.1529 -8.94973
203 1 9.43453 7.96888e-14 12.58 -8.95028
204 1 11.0072 1.57122 14.1528 -8.94969
205 1 12.5796 2.69088e-14 12.5796 -8.95036
206 1 14.1524 1.57121 14.1524 -8.95071
207 1 15.7248 -7.25783e-16 12.5795 -8.94965
208 1 17.2972 1.57184 14.1521 -8.94967
209 1 18.8693 1.10849e-16 12.5795 -8.9495
210 1 20.4414 1.57213 14.152 -8.94954
211 1 -0.000648258 3.14418 12.5797 -8.94943
212 1 1.57065 4.71612 14.153 -8.94968
213 1 3.14292 3.14322 12.5804 -8.94918
214 1 4.71257 4.7129 14.1562 -8.94482
215 1 6.28739 3.14081 12.5812 -8.95146
216 1 7.86016 4.71279 14.155 -8.94949
217 1 9.43423 3.14144 12.5808 -8.95057
218 1 11.0074 4.71319 14.1549 -8.94794
219 1 12.5797 3.14203 12.5799 -8.95244
220 1 14.155 4.71184 14.155 -8.95074
221 1 15.7252 3.14332 12.5796 -8.94953
222 1 17.2984 4.71543 14.1527 -8.94997
223 1 18.8694 3.14422 12.5795 -8.94949
224 1 20.4416 4.71659 14.1522 -8.94995
225 1 22.013 6.28906 12.5798 -8.95024
226 1 1.57159 7.86202 14.1525 -8.94998
227 1 3.14014 6.28732 12.5816 -8.95077
228 1 4.7142 7.86158 14.1537 -8.95194
229 1 6.2764 6.27693 12.5911 -8.93116
230 1 7.85357 7.8531 14.1638 -8.9495
231 1 9.43276 6.27948 12.5848 -8.95277
232 1 11.0078 7.85538 14.1619 -8.94954
233 1 12.585 6.27804 12.5858 -8.95609
234 1 14.1671 7.84765 14.1674 -8.92784
235 1 15.728 6.28637 12.5808 -8.95025
236 1 17.3024 7.85912 14.1549 -8.95025
237 1 18.8702 6.28893 12.5794 -8.95027
238 1 20.4429 7.86151 14.1525 -8.95031
239 1 0.000160552 9.43451 12.5798 -8.95009
240 1 3.14308 9.43509 12.58 -8.95004
241 1 6.28507 9.43622 12.5801 -8.95518
242 1 9.4128 9.40434 12.5925 -8.93366
243 1 12.6261 9.39505 12.6217 -8.89106
244 1 15.7377 9.43053 12.586 -8.9565
245 1 18.8725 9.43401 12.5802 -8.95232
246 1 -0.00034015 1.08918e-15 15.7246 -8.94954
247 1 1.5718 1.57205 17.2973 -8.94917
248 1 3.14395 6.25423e-15 15.7251 -8.94952
249 1 4.71666 1.57189 17.2975 -8.94961
250 1 6.28919 5.86263e-15 15.7252 -8.94958
251 1 7.86185 1.57188 17.2974 -8.94945
252 1 9.43451 2.59516e-15 15.7251 -8.94956
253 1 11.007 1.57185 17.2974 -8.94949
254 1 12.5797 5.6793e-15 15.725 -8.94955
255 1 14.1522 1.57181 17.2973 -8.94947
256 1 15.7248 1.8209e-15 15.7248 -8.95011
257 1 17.2973 1.57176 17.2973 -8.94954
258 1 18.8694 -6.46755e-16 15.7245 -8.94964
259 1 20.4416 1.5721 17.297 -8.94952
260 1 22.0134 3.14427 15.7248 -8.94957
261 1 1.57195 4.71684 17.2974 -8.94984
262 1 3.14317 3.14343 15.7259 -8.94829
263 1 4.71568 4.71584 17.2987 -8.94921
264 1 6.28859 3.1431 15.7259 -8.94968
265 1 7.86142 4.71587 17.2984 -8.94912
266 1 9.4343 3.14313 15.7258 -8.94937
267 1 11.007 4.71571 17.2983 -8.94933
268 1 12.5799 3.14302 15.7256 -8.94911
269 1 14.1527 4.71546 17.2984 -8.94958
270 1 15.7257 3.14267 15.7257 -8.94968
271 1 17.2986 4.71531 17.2983 -8.94801
272 1 18.8697 3.14399 15.7247 -8.94973
273 1 20.4422 4.71659 17.2973 -8.9495
274 1 0.000145274 6.28926 15.7249 -8.94989
275 1 1.5722 7.86199 17.2972 -8.94941
276 1 3.14338 6.2891 15.7256 -8.95046
277 1 4.71653 7.86218 17.2976 -8.9496
278 1 6.28586 6.28611 15.7296 -8.949
279 1 7.86123 7.86134 17.2995 -8.95256
280 1 9.4336 6.28643 15.7281 -8.94758
281 1 11.0068 7.86056 17.3 -8.95043
282 1 12.5809 6.28608 15.7285 -8.94857
283 1 14.1542 7.85981 17.3014 -8.95183
284 1 15.7296 6.28436 15.7295 -8.94386
285 1 17.2988 7.86088 17.2986 -8.94913
286 1 18.8713 6.2882 15.7256 -8.94952
287 1 20.4423 7.86169 17.2974 -8.94943
288 1 22.0143 9.43437 15.725 -8.94956
289 1 3.14393 9.4345 15.7253 -8.949
290 1 6.2887 9.43496 15.7254 -8.94864
291 1 9.43438 9.43351 15.7273 -8.95227
292 1 12.5834 9.43221 15.7344 -8.95907
293 1 15.7294 9.43261 15.7295 -8.94756
294 1 18.8715 9.43395 15.7258 -8.94926
295 1 22.0137 5.19389e-16 18.8693 -8.94922
296 1 1.57211 1.57215 20.4415 -8.94933
297 1 3.14446 9.63827e-16 18.8694 -8.94957
298 1 4.71695 1.57214 20.4415 -8.94955
299 1 6.28944 1.40907e-15 18.8694 -8.9495
300 1 7.86193 1.5721 20.4415 -8.94952
301 1 9.43447 1.21844e-15 18.8694 -8.94953
302 1 11.007 1.57206 20.4415 -8.94953
303 1 12.5795 1.07755e-15 18.8694 -8.94952
304 1 14.152 1.57206 20.4415 -8.9495
305 1 15.7245 1.53602e-15 18.8694 -8.94954
306 1 17.297 1.57205 20.4415 -8.9496
307 1 18.8694 2.43712e-16 18.8694 -8.9494
308 1 20.4417 1.57217 20.4415 -8.94921
309 1 2.22819e-05 3.14452 18.8694 -8.94954
310 1 1.57227 4.71709 20.4415 -8.9497
311 1 3.14418 3.14424 18.8697 -8.9494
312 1 4.71661 4.71672 20.4415 -8.95002
313 1 6.28925 3.14421 18.8697 -8.94949
314 1 7.86168 4.71654 20.4415 -8.94951
315 1 9.43437 3.1441 18.8696 -8.94949
316 1 11.0069 4.71638 20.4415 -8.94953
317 1 12.5795 3.14405 18.8696 -8.94945
318 1 14.1522 4.71632 20.4415 -8.94957
319 1 15.7248 3.14399 18.8696 -8.94961
320 1 17.2976 4.71626 20.4415 -8.94953
321 1 18.8698 3.14411 18.8695 -8.94909
322 1 20.4419 4.71688 20.4415 -8.94951
323 1 22.0141 6.28946 18.8694 -8.9495
324 1 1.57231 7.86203 20.4415 -8.94953
325 1 3.14445 6.28959 18.8695 -8.94973
326 1 4.71683 7.86214 20.4415 -8.94952
327 1 6.28889 6.28909 18.8703 -8.9507
328 1 7.86169 7.86194 20.4415 -8.95051
329 1 9.43407 6.28869 18.8702 -8.9496
330 1 11.0067 7.8615 20.4415 -8.95024
331 1 12.5796 6.28854 18.8704 -8.94964
332 1 14.1525 7.86131 20.4415 -8.95084
333 1 15.7256 6.28824 18.8706 -8.95008
334 1 17.2978 7.86146 20.4415 -8.94941
335 1 18.8701 6.289 18.8696 -8.94943
336 1 20.442 7.86185 20.4415 -8.94951
337 1 0.000229883 9.43444 18.8694 -8.94953
45 1 6.28917 9.43463 22.0134 -8.94933
5 1 6.28944 6.20208e-16 22.0135 -8.9495
9 1 12.5795 7.93545e-16 22.0136 -8.94952
43 1 0.000229883 9.43444 22.0136 -8.94953
15 1 2.22819e-05 3.14452 22.0136 -8.94954
17 1 3.14418 3.14424 22.0133 -8.9494
19 1 6.28925 3.14421 22.0133 -8.94949
25 1 15.7248 3.14399 22.0134 -8.94961
41 1 18.8701 6.289 22.0133 -8.94943
31 1 3.14445 6.28959 22.0135 -8.94973
13 1 18.8694 -7.93463e-17 22.0136 -8.9494
23 1 12.5795 3.14405 22.0134 -8.94945
39 1 15.7256 6.28824 22.0124 -8.95008
182 1 20.4414 1.5721 11.007 -8.94954
193 1 11.0177 7.85636 11.0293 -8.96785
344 1 1.57223 11.007 1.57177 -8.94954
345 1 4.71655 11.007 1.57153 -8.94961
346 1 7.86165 11.007 1.57185 -8.94838
347 1 11.0071 11.007 1.57043 -8.94792
348 1 14.1548 11.007 1.56748 -8.94993
349 1 17.2989 11.007 1.57039 -8.94932
350 1 20.4424 11.007 1.57163 -8.94948
688 3 10.3025 11.007 9.43453 2.19205
352 1 1.5722 14.1519 1.57181 -8.94941
353 1 3.14445 12.5794 -0.000388908 -8.94954
354 1 4.71653 14.1517 1.57145 -8.9496
687 2 11.656 11.007 9.43453 0.176806
356 1 7.86123 14.1526 1.5696 -8.95256
511 1 18.8694 18.8697 9.43453 -8.94956
358 1 11.0068 14.1533 1.56909 -8.95043
510 1 15.7251 18.8703 9.43453 -8.94904
360 1 14.1542 14.1541 1.56769 -8.95183
509 1 12.5794 18.871 9.43453 -8.951
362 1 17.2988 14.153 1.57044 -8.94913
363 1 18.8702 12.5796 -0.0006268 -8.94944
364 1 20.4423 14.1522 1.57168 -8.94943
508 1 9.43397 18.8702 9.43453 -8.94613
366 1 1.57195 17.2971 1.57169 -8.94984
507 1 6.28668 18.8733 9.43453 -8.9495
368 1 4.71568 17.2981 1.57034 -8.94921
369 1 6.28889 15.7248 -0.00121187 -8.9507
370 1 7.86142 17.298 1.5707 -8.94912
371 1 9.43407 15.7252 -0.00115507 -8.9496
372 1 11.007 17.2982 1.57075 -8.94933
506 1 3.14279 18.8708 9.43453 -8.94945
374 1 14.1527 17.2984 1.57066 -8.94958
526 1 1.5704 17.298 11.0074 -8.94927
376 1 17.2986 17.2986 1.57072 -8.94801
505 1 22.0132 18.8698 9.43453 -8.9495
378 1 20.4422 17.2973 1.57179 -8.9495
504 1 18.8697 15.7252 9.43453 -8.94925
380 1 1.5718 20.4419 1.57179 -8.94917
503 1 15.7253 15.7258 9.43453 -8.94614
382 1 4.71666 20.442 1.5716 -8.94961
502 1 12.5772 15.7309 9.43453 -8.9597
384 1 7.86185 20.442 1.57162 -8.94945
385 1 9.43437 18.8698 -0.000565951 -8.94949
386 1 11.007 20.442 1.57165 -8.94949
525 1 20.4416 14.1522 11.0069 -8.94984
388 1 14.1522 20.4421 1.57175 -8.94947
501 1 9.42908 15.7209 9.43453 -8.99822
390 1 17.2973 20.4421 1.57178 -8.94954
391 1 18.8698 18.8698 -0.000436801 -8.94909
392 1 20.4416 20.4418 1.57208 -8.94952
393 1 1.57183 11.007 4.71632 -8.94961
394 1 4.71532 11.007 4.71542 -8.94667
395 1 7.86273 11.007 4.71793 -8.9447
396 1 11.0122 11.007 4.71458 -9.01457
397 1 14.1644 11.007 4.70367 -8.94378
398 1 17.3025 11.007 4.71378 -8.94856
399 1 20.4431 11.007 4.71632 -8.94996
400 1 22.0143 12.5795 3.14405 -8.94956
401 1 1.57159 14.1519 4.71656 -8.94998
402 1 3.14393 12.5794 3.14379 -8.949
403 1 4.7142 14.1523 4.71532 -8.95194
404 1 6.2887 12.5789 3.1437 -8.94864
405 1 7.85357 14.1608 4.70523 -8.9495
406 1 9.43438 12.5804 3.14175 -8.95227
407 1 11.0078 14.1585 4.70714 -8.94954
408 1 12.5834 12.5817 3.1347 -8.95907
409 1 14.1671 14.1663 4.70163 -8.92784
410 1 15.7294 12.5813 3.13959 -8.94756
411 1 17.3024 14.1548 4.71416 -8.95025
412 1 18.8715 12.58 3.14325 -8.94926
413 1 20.4429 14.1524 4.71652 -8.95031
414 1 0.000145274 15.7246 3.14417 -8.94989
415 1 1.57065 17.2978 4.71606 -8.94968
416 1 3.14338 15.7248 3.14346 -8.95046
417 1 4.71257 17.301 4.71287 -8.94482
418 1 6.28586 15.7278 3.13949 -8.949
419 1 7.86016 17.3011 4.7141 -8.94949
420 1 9.4336 15.7275 3.141 -8.94758
421 1 11.0074 17.3007 4.71421 -8.94794
422 1 12.5809 15.7278 3.14053 -8.94857
423 1 14.155 17.3021 4.71405 -8.95074
424 1 15.7296 15.7295 3.13953 -8.94386
425 1 17.2984 17.2985 4.71638 -8.94997
426 1 18.8713 15.7257 3.14344 -8.94952
427 1 20.4416 17.2973 4.71688 -8.94995
428 1 22.0134 18.8696 3.14425 -8.94957
429 1 1.57158 20.442 4.71667 -8.94946
430 1 3.14317 18.8705 3.14319 -8.94829
431 1 4.71596 20.4428 4.716 -8.94998
432 1 6.28859 18.8708 3.14314 -8.94968
433 1 7.86167 20.4428 4.71613 -8.94973
434 1 9.4343 18.8708 3.14331 -8.94937
435 1 11.0072 20.4427 4.71625 -8.94969
436 1 12.5799 18.8709 3.14346 -8.94911
437 1 14.1524 20.4427 4.71668 -8.95071
438 1 15.7257 18.8712 3.14341 -8.94968
439 1 17.2972 20.4421 4.71698 -8.94967
440 1 18.8697 18.8699 3.14432 -8.94973
441 1 20.4414 20.4418 4.71704 -8.94954
442 1 1.572 11.007 7.86184 -8.94776
443 1 4.71909 11.007 7.86251 -8.93937
444 1 7.88385 11.007 7.87025 -8.97087
445 1 11.0739 11.007 7.57813 -8.31278
446 1 14.1683 11.007 7.84428 -9.0171
447 1 17.3007 11.007 7.86203 -8.95373
448 1 20.4424 11.007 7.86222 -8.94984
449 1 0.000160552 12.5794 6.28931 -8.95009
450 1 1.5698 14.1523 7.8618 -8.95171
451 1 3.14308 12.5788 6.28906 -8.95004
452 1 4.70667 14.1561 7.8597 -8.95775
453 1 6.28507 12.5777 6.28894 -8.95518
454 1 7.82216 14.1884 7.83146 -8.86116
455 1 9.4128 12.6096 6.27651 -8.93366
456 1 11.0177 14.1575 7.83975 -8.96785
457 1 12.6261 12.6188 6.24734 -8.89106
458 1 14.1578 14.1559 7.85999 -8.97732
459 1 15.7377 12.5834 6.28309 -8.9565
460 1 17.2983 14.1522 7.86307 -8.95139
461 1 18.8725 12.5799 6.28891 -8.95232
462 1 20.4416 14.1522 7.86218 -8.94984
463 1 22.013 15.7248 6.28924 -8.95024
464 1 1.5704 17.298 7.86163 -8.94927
465 1 3.14014 15.7266 6.28748 -8.95077
466 1 4.71272 17.3009 7.86056 -8.94763
467 1 6.2764 15.737 6.278 -8.93116
468 1 7.85828 17.3052 7.86077 -8.95919
469 1 9.43276 15.7344 6.28424 -8.95277
470 1 11.0053 17.2993 7.86134 -8.94928
471 1 12.585 15.7359 6.28322 -8.95609
472 1 14.1531 17.2994 7.86194 -8.94822
473 1 15.728 15.7275 6.28824 -8.95025
474 1 17.2976 17.2977 7.86218 -8.94916
475 1 18.8702 15.725 6.28967 -8.95027
476 1 20.4414 17.2974 7.86199 -8.94953
477 1 -0.000648258 18.8697 6.28933 -8.94943
478 1 1.57148 20.442 7.86187 -8.94948
479 1 3.14292 18.8707 6.28866 -8.94918
480 1 4.71568 20.4429 7.86158 -8.94938
481 1 6.28739 18.8731 6.28781 -8.95146
482 1 7.86156 20.4433 7.86189 -8.95139
483 1 9.43423 18.8725 6.28821 -8.95057
484 1 11.0068 20.4424 7.86203 -8.94934
485 1 12.5797 18.8719 6.28915 -8.95244
486 1 14.1524 20.4423 7.86206 -8.94966
487 1 15.7252 18.8706 6.28941 -8.94953
488 1 17.2972 20.4419 7.86206 -8.94943
489 1 18.8694 18.8697 6.28958 -8.94949
490 1 20.4414 20.4418 7.86202 -8.94954
491 1 22.0134 12.5794 9.43453 -8.94921
492 1 3.14221 12.5792 9.43453 -8.95121
493 1 6.28096 12.5866 9.43453 -8.97365
494 1 9.35228 12.7894 9.43453 -8.19469
495 1 12.5907 12.6137 9.43453 -9.12238
496 1 15.7186 12.5762 9.43453 -8.98571
497 1 18.8693 12.5798 9.43453 -8.94605
498 1 -0.00123888 15.7251 9.43453 -8.94996
499 1 3.13981 15.727 9.43453 -8.94905
500 1 6.27823 15.7349 9.43453 -8.94144
517 1 17.3007 11.007 11.007 -8.95373
518 1 20.4424 11.007 11.0068 -8.94984
524 1 17.2983 14.1522 11.006 -8.95139
523 1 14.1578 14.1559 11.0091 -8.97732
527 1 4.71272 17.3009 11.0085 -8.94763
534 1 4.71568 20.4429 11.0075 -8.94938
538 1 17.2972 20.4419 11.007 -8.94943
365 1 22.0141 15.7244 -0.000305418 -8.9495
373 1 12.5796 15.7254 -0.00129847 -8.94964
512 1 1.572 11.007 11.0072 -8.94776
513 1 4.71909 11.007 11.0066 -8.93937
514 1 7.88385 11.007 10.9988 -8.97087
515 1 11.0739 11.007 11.2909 -8.31278
516 1 14.1683 11.007 11.0248 -9.0171
686 1 20.4417 20.4417 20.4415 -8.94921
685 1 18.8698 18.8698 18.8695 -8.94909
519 1 1.5698 14.1523 11.0073 -8.95171
520 1 4.70667 14.1561 11.0094 -8.95775
521 1 7.82216 14.1884 11.0376 -8.86116
684 1 17.297 20.4418 20.4415 -8.9496
683 1 15.7248 18.8699 18.8696 -8.94961
682 1 14.152 20.4418 20.4415 -8.9495
681 1 12.5795 18.8699 18.8696 -8.94945
680 1 11.007 20.4418 20.4415 -8.94953
389 1 15.7248 18.8699 22.0134 -8.94961
528 1 7.85828 17.3052 11.0083 -8.95919
529 1 11.0053 17.2993 11.0077 -8.94928
530 1 14.1531 17.2994 11.0071 -8.94822
531 1 17.2976 17.2977 11.0069 -8.94916
532 1 20.4414 17.2974 11.0071 -8.94953
533 1 1.57148 20.442 11.0072 -8.94948
383 1 6.28925 18.8697 22.0133 -8.94949
535 1 7.86156 20.4433 11.0072 -8.95139
536 1 11.0068 20.4424 11.007 -8.94934
537 1 14.1524 20.4423 11.007 -8.94966
381 1 3.14418 18.8697 22.0133 -8.9494
679 1 9.43437 18.8698 18.8696 -8.94949
540 1 1.57183 11.007 14.1527 -8.94961
541 1 4.71532 11.007 14.1536 -8.94667
542 1 7.86273 11.007 14.1511 -8.9447
543 1 11.0122 11.007 14.1545 -9.01457
544 1 14.1644 11.007 14.1654 -8.94378
545 1 17.3025 11.007 14.1553 -8.94856
546 1 20.4431 11.007 14.1527 -8.94996
547 1 0.000160552 12.5794 12.5798 -8.95009
548 1 1.57159 14.1519 14.1525 -8.94998
549 1 3.14308 12.5788 12.58 -8.95004
550 1 4.7142 14.1523 14.1537 -8.95194
551 1 6.28507 12.5777 12.5801 -8.95518
552 1 7.85357 14.1608 14.1638 -8.9495
553 1 9.4128 12.6096 12.5925 -8.93366
554 1 11.0078 14.1585 14.1619 -8.94954
555 1 12.6261 12.6188 12.6217 -8.89106
556 1 14.1671 14.1663 14.1674 -8.92784
557 1 15.7377 12.5834 12.586 -8.9565
558 1 17.3024 14.1548 14.1549 -8.95025
559 1 18.8725 12.5799 12.5802 -8.95232
560 1 20.4429 14.1524 14.1525 -8.95031
561 1 22.013 15.7248 12.5798 -8.95024
562 1 1.57065 17.2978 14.153 -8.94968
563 1 3.14014 15.7266 12.5816 -8.95077
564 1 4.71257 17.301 14.1562 -8.94482
565 1 6.2764 15.737 12.5911 -8.93116
566 1 7.86016 17.3011 14.155 -8.94949
567 1 9.43276 15.7344 12.5848 -8.95277
568 1 11.0074 17.3007 14.1549 -8.94794
569 1 12.585 15.7359 12.5858 -8.95609
570 1 14.155 17.3021 14.155 -8.95074
571 1 15.728 15.7275 12.5808 -8.95025
572 1 17.2984 17.2985 14.1527 -8.94997
573 1 18.8702 15.725 12.5794 -8.95027
574 1 20.4416 17.2973 14.1522 -8.94995
575 1 -0.000648258 18.8697 12.5797 -8.94943
576 1 1.57158 20.442 14.1524 -8.94946
577 1 3.14292 18.8707 12.5804 -8.94918
578 1 4.71596 20.4428 14.1531 -8.94998
579 1 6.28739 18.8731 12.5812 -8.95146
580 1 7.86167 20.4428 14.1529 -8.94973
581 1 9.43423 18.8725 12.5808 -8.95057
582 1 11.0072 20.4427 14.1528 -8.94969
583 1 12.5797 18.8719 12.5799 -8.95244
584 1 14.1524 20.4427 14.1524 -8.95071
585 1 15.7252 18.8706 12.5796 -8.94953
586 1 17.2972 20.4421 14.1521 -8.94967
587 1 18.8694 18.8697 12.5795 -8.94949
588 1 20.4414 20.4418 14.152 -8.94954
589 1 1.57223 11.007 17.2973 -8.94954
590 1 4.71655 11.007 17.2975 -8.94961
591 1 7.86165 11.007 17.2972 -8.94838
592 1 11.0071 11.007 17.2986 -8.94792
593 1 14.1548 11.007 17.3016 -8.94993
594 1 17.2989 11.007 17.2987 -8.94932
595 1 20.4424 11.007 17.2974 -8.94948
596 1 22.0143 12.5795 15.725 -8.94956
597 1 1.5722 14.1519 17.2972 -8.94941
598 1 3.14393 12.5794 15.7253 -8.949
599 1 4.71653 14.1517 17.2976 -8.9496
600 1 6.2887 12.5789 15.7254 -8.94864
601 1 7.86123 14.1526 17.2995 -8.95256
602 1 9.43438 12.5804 15.7273 -8.95227
603 1 11.0068 14.1533 17.3 -8.95043
604 1 12.5834 12.5817 15.7344 -8.95907
605 1 14.1542 14.1541 17.3014 -8.95183
606 1 15.7294 12.5813 15.7295 -8.94756
607 1 17.2988 14.153 17.2986 -8.94913
608 1 18.8715 12.58 15.7258 -8.94926
609 1 20.4423 14.1522 17.2974 -8.94943
610 1 0.000145274 15.7246 15.7249 -8.94989
611 1 1.57195 17.2971 17.2974 -8.94984
612 1 3.14338 15.7248 15.7256 -8.95046
613 1 4.71568 17.2981 17.2987 -8.94921
614 1 6.28586 15.7278 15.7296 -8.949
615 1 7.86142 17.298 17.2984 -8.94912
616 1 9.4336 15.7275 15.7281 -8.94758
617 1 11.007 17.2982 17.2983 -8.94933
618 1 12.5809 15.7278 15.7285 -8.94857
619 1 14.1527 17.2984 17.2984 -8.94958
620 1 15.7296 15.7295 15.7295 -8.94386
621 1 17.2986 17.2986 17.2983 -8.94801
622 1 18.8713 15.7257 15.7256 -8.94952
623 1 20.4422 17.2973 17.2973 -8.9495
624 1 22.0134 18.8696 15.7248 -8.94957
625 1 1.5718 20.4419 17.2973 -8.94917
626 1 3.14317 18.8705 15.7259 -8.94829
627 1 4.71666 20.442 17.2975 -8.94961
628 1 6.28859 18.8708 15.7259 -8.94968
629 1 7.86185 20.442 17.2974 -8.94945
630 1 9.4343 18.8708 15.7258 -8.94937
631 1 11.007 20.442 17.2974 -8.94949
632 1 12.5799 18.8709 15.7256 -8.94911
633 1 14.1522 20.4421 17.2973 -8.94947
634 1 15.7257 18.8712 15.7257 -8.94968
635 1 17.2973 20.4421 17.2973 -8.94954
636 1 18.8697 18.8699 15.7247 -8.94973
637 1 20.4416 20.4418 17.297 -8.94952
638 1 1.57231 11.007 20.4415 -8.94956
639 1 4.71678 11.007 20.4415 -8.94963
640 1 7.86163 11.007 20.4415 -8.94921
641 1 11.0067 11.007 20.4415 -8.94884
642 1 14.1528 11.007 20.4415 -8.9505
643 1 17.2979 11.007 20.4415 -8.94946
644 1 20.4421 11.007 20.4415 -8.94952
645 1 0.000229883 12.5795 18.8694 -8.94953
646 1 1.57231 14.1519 20.4415 -8.94953
647 1 3.14445 12.5794 18.8694 -8.94954
648 1 4.71683 14.1518 20.4415 -8.94952
649 1 6.28917 12.5793 18.8695 -8.94933
650 1 7.86169 14.152 20.4415 -8.95051
651 1 9.43425 12.5794 18.8699 -8.94964
652 1 11.0067 14.1524 20.4415 -8.95024
653 1 12.5797 12.5797 18.8711 -8.95164
654 1 14.1525 14.1526 20.4415 -8.95084
655 1 15.7259 12.58 18.8707 -8.9495
656 1 17.2978 14.1524 20.4415 -8.94941
657 1 18.8702 12.5796 18.8697 -8.94944
658 1 20.442 14.152 20.4415 -8.94951
659 1 22.0141 15.7244 18.8694 -8.9495
660 1 1.57227 17.2968 20.4415 -8.9497
661 1 3.14445 15.7243 18.8695 -8.94973
662 1 4.71661 17.2972 20.4415 -8.95002
663 1 6.28889 15.7248 18.8703 -8.9507
664 1 7.86168 17.2974 20.4415 -8.94951
665 1 9.43407 15.7252 18.8702 -8.9496
666 1 11.0069 17.2975 20.4415 -8.94953
667 1 12.5796 15.7254 18.8704 -8.94964
668 1 14.1522 17.2976 20.4415 -8.94957
669 1 15.7256 15.7257 18.8706 -8.95008
670 1 17.2976 17.2976 20.4415 -8.94953
671 1 18.8701 15.7249 18.8696 -8.94943
672 1 20.4419 17.297 20.4415 -8.94951
673 1 2.22819e-05 18.8694 18.8694 -8.94954
674 1 1.57211 20.4418 20.4415 -8.94933
675 1 3.14418 18.8697 18.8697 -8.9494
676 1 4.71695 20.4418 20.4415 -8.94955
677 1 6.28925 18.8697 18.8697 -8.94949
678 1 7.86193 20.4418 20.4415 -8.94952
351 1 0.000229883 12.5795 22.0136 -8.94953
355 1 6.28917 12.5793 22.0134 -8.94933
357 1 9.43425 12.5794 22.0131 -8.94964
359 1 12.5797 12.5797 22.0118 -8.95164
361 1 15.7259 12.58 22.0123 -8.9495
379 1 2.22819e-05 18.8694 22.0136 -8.94954
367 1 3.14445 15.7243 22.0135 -8.94973
377 1 18.8701 15.7249 22.0133 -8.94943
375 1 15.7256 15.7257 22.0124 -8.95008
539 1 20.4414 20.4418 11.007 -8.94954
387 1 12.5795 18.8699 22.0134 -8.94945
522 1 11.0177 14.1575 11.0293 -8.96785
