ITEM: TIMESTEP
68
ITEM: NUMBER OF ATOMS
688
ITEM: BOX BOUNDS pp pp pp
0.0000000000000000e+00 2.2013900999999997e+01
0.0000000000000000e+00 2.2013900999999997e+01
0.0000000000000000e+00 2.2013900999999997e+01
ITEM: ATOMS id type x y z c_pot
1 1 22.0138 -1.34433e-16 -9.60535e-05 -8.94937
2 1 1.57207 1.5722 1.57207 -8.94924
175 1 18.8696 9.43412 9.43453 -8.94637
4 1 4.71699 1.5721 1.57198 -8.94965
174 1 15.7197 9.43704 9.43453 -8.9871
6 1 7.86201 1.57209 1.57195 -8.94951
7 1 9.43451 9.01435e-16 -0.000198627 -8.94959
8 1 11.007 1.57206 1.57195 -8.94954
173 1 12.591 9.3977 9.43453 -9.12714
10 1 14.152 1.57206 1.57203 -8.94949
172 1 9.35031 9.21917 9.43453 -8.1898
12 1 17.297 1.57202 1.57203 -8.94955
196 1 20.4417 7.86178 11.0069 -8.94988
14 1 20.4415 1.57226 1.57227 -8.94957
171 1 6.28053 9.42757 9.43453 -8.97377
16 1 1.57214 4.71706 1.57202 -8.94983
170 1 3.14211 9.43493 9.43453 -8.9513
18 1 4.71616 4.71624 1.57085 -8.94927
169 1 22.0134 9.43456 9.43453 -8.94939
20 1 7.86173 4.71633 1.57116 -8.94916
21 1 9.43446 3.14439 -0.00036458 -8.94955
22 1 11.0069 4.7162 1.57121 -8.94937
195 1 17.2984 7.86162 11.006 -8.95133
24 1 14.1523 4.7161 1.57121 -8.94962
168 1 18.8698 6.28882 9.43453 -8.94924
26 1 17.298 4.71592 1.57118 -8.94812
27 1 18.8695 3.14445 -0.000261655 -8.9492
28 1 20.4419 4.71691 1.57206 -8.94953
167 1 15.7255 6.28795 9.43453 -8.94613
30 1 1.57223 7.86206 1.57205 -8.94943
166 1 12.5775 6.28227 9.43453 -8.96017
32 1 4.71679 7.8623 1.57172 -8.94961
33 1 6.28917 6.28929 -0.000948526 -8.9506
34 1 7.86147 7.86165 1.56997 -8.9525
35 1 9.43421 6.28899 -0.000905754 -8.94958
36 1 11.0066 7.86098 1.56964 -8.95035
165 1 9.42916 6.29274 9.43453 -8.99935
38 1 14.1535 7.86039 1.5685 -8.95182
194 1 14.1583 7.85755 11.0088 -8.97788
40 1 17.298 7.86136 1.57103 -8.94921
164 1 6.27904 6.27972 9.43453 -8.94148
42 1 20.4419 7.8619 1.57198 -8.94948
163 1 3.1406 6.28749 9.43453 -8.94906
44 1 3.14454 9.43452 -0.000281079 -8.94957
162 1 -0.0008823 6.2891 9.43453 -8.94993
161 1 18.8694 3.14438 9.43453 -8.9496
160 1 15.725 3.14374 9.43453 -8.94912
159 1 12.5795 3.14275 9.43453 -8.95115
49 1 18.8696 9.43441 -0.000384199 -8.94952
50 1 -0.000150874 -8.4903e-17 3.14472 -8.94961
51 1 1.57198 1.57213 4.71699 -8.94954
52 1 3.14434 2.69025e-16 3.14434 -8.94955
53 1 4.71642 1.57143 4.71641 -8.94997
54 1 6.28946 2.47552e-16 3.14431 -8.94957
55 1 7.8619 1.57141 4.71647 -8.94963
56 1 9.43455 9.24493e-17 3.14427 -8.94956
57 1 11.0072 1.57147 4.7165 -8.94961
58 1 12.5796 7.10807e-16 3.14434 -8.94952
59 1 14.1522 1.57148 4.71685 -8.95058
60 1 15.7246 1.57403e-15 3.14449 -8.95001
61 1 17.297 1.57204 4.7171 -8.94964
62 1 18.8692 -5.64518e-16 3.14472 -8.94964
63 1 20.4415 1.57227 4.71719 -8.94958
64 1 22.0136 3.14451 3.14452 -8.94958
65 1 1.5711 4.71645 4.71641 -8.94967
66 1 3.14367 3.14381 3.14367 -8.94829
67 1 4.7133 4.71351 4.71342 -8.94471
68 1 6.28907 3.14362 3.14368 -8.94967
69 1 7.86077 4.71363 4.71466 -8.94938
70 1 9.43444 3.14361 3.14374 -8.94939
71 1 11.0073 4.71389 4.71481 -8.94793
72 1 12.5797 3.14354 3.14388 -8.94912
73 1 14.1544 4.71262 4.71465 -8.95068
74 1 15.7252 3.14325 3.1438 -8.94964
75 1 17.298 4.71592 4.71665 -8.94985
76 1 18.8695 3.14435 3.14455 -8.9497
77 1 20.4416 4.71687 4.71706 -8.94989
78 1 9.6937e-05 6.28947 3.14445 -8.94982
79 1 1.57176 7.86214 4.71676 -8.94987
80 1 3.14383 6.2894 3.14389 -8.95038
81 1 4.71479 7.86203 4.71565 -8.95182
82 1 6.28658 6.28683 3.14016 -8.94924
83 1 7.85443 7.85428 4.70596 -8.9504
84 1 9.43382 6.28719 3.14166 -8.94771
85 1 11.0074 7.85638 4.70835 -8.95001
86 1 12.5803 6.28691 3.14143 -8.94869
87 1 14.1658 7.84863 4.70297 -8.92844
88 1 15.7286 6.28525 3.14038 -8.9441
89 1 17.3015 7.85965 4.71478 -8.95024
90 1 18.8706 6.28866 3.14385 -8.94952
91 1 20.4425 7.86169 4.71675 -8.95021
92 1 22.014 9.43443 3.14433 -8.94955
93 1 3.14407 9.43455 3.144 -8.94901
94 1 6.28895 9.43518 3.14387 -8.94877
95 1 9.4344 9.43397 3.14231 -8.95207
96 1 12.5825 9.43268 3.13591 -8.95899
97 1 15.7282 9.43305 3.14065 -8.94769
98 1 18.8707 9.43415 3.14374 -8.94927
99 1 22.0137 1.14136e-15 6.28961 -8.94959
100 1 1.57193 1.5721 7.86201 -8.94954
101 1 3.14424 1.70444e-15 6.28939 -8.94943
102 1 4.71625 1.57135 7.86176 -8.94938
103 1 6.28923 7.82154e-16 6.28922 -8.95059
104 1 7.86186 1.57077 7.86197 -8.95138
105 1 9.43462 6.13099e-16 6.28917 -8.95021
106 1 11.0069 1.5715 7.86203 -8.94942
107 1 12.5796 5.62397e-16 6.28952 -8.95028
108 1 14.1523 1.57162 7.86204 -8.94969
109 1 15.7246 -8.24548e-17 6.28955 -8.94964
110 1 17.2971 1.57209 7.86207 -8.94947
111 1 18.8692 1.58385e-16 6.28964 -8.94955
112 1 20.4415 1.57224 7.86207 -8.94959
113 1 -0.000357943 3.14445 6.28951 -8.94948
114 1 1.571 4.71634 7.86179 -8.9493
115 1 3.14358 3.14369 6.28903 -8.94924
116 1 4.71366 4.71378 7.86082 -8.94766
117 1 6.28799 3.14135 6.28815 -8.95146
118 1 7.85894 4.70908 7.86088 -8.95923
119 1 9.43447 3.1418 6.28845 -8.95042
120 1 11.0055 4.71445 7.86154 -8.94945
121 1 12.5797 3.14233 6.28933 -8.95228
122 1 14.1531 4.71449 7.86202 -8.94834
123 1 15.725 3.1436 6.28949 -8.94951
124 1 17.2975 4.71639 7.86219 -8.94918
125 1 18.8694 3.14445 6.28965 -8.94952
126 1 20.4415 4.71676 7.86203 -8.94953
127 1 22.0132 6.28927 6.28937 -8.9502
128 1 1.5701 7.86178 7.86184 -8.95171
129 1 3.14081 6.28779 6.28778 -8.9508
130 1 4.70707 7.85841 7.85976 -8.95791
131 1 6.27704 6.27755 6.27819 -8.93062
132 1 7.82167 7.82549 7.83075 -8.85818
133 1 9.43314 6.28021 6.28479 -8.95239
134 1 11.0176 7.85576 7.84039 -8.96612
135 1 12.5846 6.27865 6.28404 -8.95586
136 1 14.1583 7.85755 7.86024 -8.97788
137 1 15.7276 6.28671 6.28851 -8.94999
138 1 17.2984 7.86162 7.86306 -8.95133
139 1 18.87 6.28913 6.28973 -8.95016
140 1 20.4417 7.86178 7.86218 -8.94988
141 1 6.29313e-05 9.43454 6.28937 -8.95005
142 1 3.14317 9.43519 6.28908 -8.94992
143 1 6.28535 9.43675 6.28906 -8.95475
144 1 9.41371 9.40575 6.27846 -8.9351
145 1 12.6251 9.39586 6.24958 -8.89304
146 1 15.7369 9.43082 6.28407 -8.95642
147 1 18.8721 9.43411 6.28913 -8.95216
148 1 -0.000180172 1.68879e-15 9.43453 -8.94959
149 1 3.1442 1.74e-15 9.43453 -8.9495
150 1 6.28897 1.52301e-15 9.43453 -8.95029
151 1 9.43467 1.68251e-15 9.43453 -8.94857
152 1 12.5797 1.42222e-15 9.43453 -8.95003
153 1 15.7247 4.43628e-16 9.43453 -8.94957
154 1 18.8693 2.9778e-16 9.43453 -8.94959
155 1 22.0135 3.14442 9.43453 -8.94954
156 1 3.14351 3.14365 9.43453 -8.94948
157 1 6.28742 3.1411 9.43453 -8.94946
158 1 9.4343 3.14355 9.43453 -8.94622
183 1 1.571 4.71634 11.0073 -8.9493
177 1 4.71625 1.57135 11.0073 -8.94938
181 1 17.2971 1.57209 11.007 -8.94947
184 1 4.71366 4.71378 11.0082 -8.94766
3 1 3.1447 -5.8725e-16 -0.000161464 -8.94964
11 1 15.7243 1.84943e-15 -0.000148144 -8.94958
29 1 22.014 6.2896 -0.000151554 -8.94955
37 1 12.5794 6.28895 -0.000962282 -8.9496
176 1 1.57193 1.5721 11.0071 -8.94954
48 1 15.7252 9.43418 22.0127 -8.94948
178 1 7.86186 1.57077 11.0071 -8.95138
179 1 11.0069 1.5715 11.007 -8.94942
180 1 14.1523 1.57162 11.007 -8.94969
47 1 12.5795 9.43436 22.0121 -8.95148
343 1 18.8696 9.43441 18.8694 -8.94952
342 1 15.7252 9.43418 18.8703 -8.94948
46 1 9.43428 9.43458 22.0132 -8.94959
185 1 7.85894 4.70908 11.0082 -8.95923
186 1 11.0055 4.71445 11.0075 -8.94945
187 1 14.1531 4.71449 11.007 -8.94834
188 1 17.2975 4.71639 11.0069 -8.94918
189 1 20.4415 4.71676 11.007 -8.94953
190 1 1.5701 7.86178 11.0072 -8.95171
191 1 4.70707 7.85841 11.0093 -8.95791
192 1 7.82167 7.82549 11.0383 -8.85818
341 1 12.5795 9.43436 18.8708 -8.95148
340 1 9.43428 9.43458 18.8698 -8.94959
339 1 6.2893 9.43464 18.8695 -8.94936
338 1 3.14454 9.43452 18.8693 -8.94957
197 1 22.0137 1.49165e-15 12.5795 -8.94959
198 1 1.57198 1.57213 14.1521 -8.94954
199 1 3.14424 1.75789e-15 12.5797 -8.94943
200 1 4.71642 1.57143 14.1526 -8.94997
201 1 6.28923 1.55959e-15 12.5798 -8.95059
202 1 7.8619 1.57141 14.1526 -8.94963
203 1 9.43462 1.52713e-15 12.5799 -8.95021
204 1 11.0072 1.57147 14.1526 -8.94961
205 1 12.5796 1.6264e-15 12.5795 -8.95028
206 1 14.1522 1.57148 14.1522 -8.95058
207 1 15.7246 -7.4356e-17 12.5795 -8.94964
208 1 17.297 1.57204 14.152 -8.94964
209 1 18.8692 1.58061e-16 12.5794 -8.94955
210 1 20.4415 1.57227 14.1519 -8.94958
211 1 -0.000357943 3.14445 12.5795 -8.94948
212 1 1.5711 4.71645 14.1526 -8.94967
213 1 3.14358 3.14369 12.58 -8.94924
214 1 4.7133 4.71351 14.1556 -8.94471
215 1 6.28799 3.14135 12.5809 -8.95146
216 1 7.86077 4.71363 14.1544 -8.94938
217 1 9.43447 3.1418 12.5806 -8.95042
218 1 11.0073 4.71389 14.1542 -8.94793
219 1 12.5797 3.14233 12.5797 -8.95228
220 1 14.1544 4.71262 14.1544 -8.95068
221 1 15.725 3.1436 12.5796 -8.94951
222 1 17.298 4.71592 14.1524 -8.94985
223 1 18.8694 3.14445 12.5794 -8.94952
224 1 20.4416 4.71687 14.152 -8.94989
225 1 22.0132 6.28927 12.5797 -8.9502
226 1 1.57176 7.86214 14.1523 -8.94987
227 1 3.14081 6.28779 12.5813 -8.9508
228 1 4.71479 7.86203 14.1534 -8.95182
229 1 6.27704 6.27755 12.5909 -8.93062
230 1 7.85443 7.85428 14.1631 -8.9504
231 1 9.43314 6.28021 12.5843 -8.95239
232 1 11.0074 7.85638 14.1607 -8.95001
233 1 12.5846 6.27865 12.585 -8.95586
234 1 14.1658 7.84863 14.1661 -8.92844
235 1 15.7276 6.28671 12.5805 -8.94999
236 1 17.3015 7.85965 14.1543 -8.95024
237 1 18.87 6.28913 12.5793 -8.95016
238 1 20.4425 7.86169 14.1523 -8.95021
239 1 6.29313e-05 9.43454 12.5797 -8.95005
240 1 3.14317 9.43519 12.58 -8.94992
241 1 6.28535 9.43675 12.58 -8.95475
242 1 9.41371 9.40575 12.5906 -8.9351
243 1 12.6251 9.39586 12.6195 -8.89304
244 1 15.7369 9.43082 12.585 -8.95642
245 1 18.8721 9.43411 12.5799 -8.95216
246 1 -0.000150874 1.15166e-15 15.7243 -8.94961
247 1 1.57207 1.5722 17.297 -8.94924
248 1 3.14434 1.26986e-15 15.7247 -8.94955
249 1 4.71699 1.5721 17.2971 -8.94965
250 1 6.28946 9.97319e-16 15.7248 -8.94957
251 1 7.86201 1.57209 17.2971 -8.94951
252 1 9.43455 1.48296e-15 15.7248 -8.94956
253 1 11.007 1.57206 17.2971 -8.94954
254 1 12.5796 1.66642e-15 15.7247 -8.94952
255 1 14.152 1.57206 17.297 -8.94949
256 1 15.7246 1.30399e-15 15.7246 -8.95001
257 1 17.297 1.57202 17.297 -8.94955
258 1 18.8692 -3.13596e-16 15.7243 -8.94964
259 1 20.4415 1.57226 17.2968 -8.94957
260 1 22.0136 3.14451 15.7245 -8.94958
261 1 1.57214 4.71706 17.297 -8.94983
262 1 3.14367 3.14381 15.7254 -8.94829
263 1 4.71616 4.71624 17.2982 -8.94927
264 1 6.28907 3.14362 15.7254 -8.94967
265 1 7.86173 4.71633 17.2979 -8.94916
266 1 9.43444 3.14361 15.7253 -8.94939
267 1 11.0069 4.7162 17.2979 -8.94937
268 1 12.5797 3.14354 15.7252 -8.94912
269 1 14.1523 4.7161 17.2979 -8.94962
270 1 15.7252 3.14325 15.7253 -8.94964
271 1 17.298 4.71592 17.2979 -8.94812
272 1 18.8695 3.14435 15.7245 -8.9497
273 1 20.4419 4.71691 17.297 -8.94953
274 1 9.6937e-05 6.28947 15.7246 -8.94982
275 1 1.57223 7.86206 17.297 -8.94943
276 1 3.14383 6.2894 15.7252 -8.95038
277 1 4.71679 7.8623 17.2973 -8.94961
278 1 6.28658 6.28683 15.7289 -8.94924
279 1 7.86147 7.86165 17.2991 -8.9525
280 1 9.43382 6.28719 15.7274 -8.94771
281 1 11.0066 7.86098 17.2994 -8.95035
282 1 12.5803 6.28691 15.7276 -8.94869
283 1 14.1535 7.86039 17.3006 -8.95182
284 1 15.7286 6.28525 15.7287 -8.9441
285 1 17.298 7.86136 17.298 -8.94921
286 1 18.8706 6.28866 15.7252 -8.94952
287 1 20.4419 7.8619 17.2971 -8.94948
288 1 22.014 9.43443 15.7247 -8.94955
289 1 3.14407 9.43455 15.7251 -8.94901
290 1 6.28895 9.43518 15.7252 -8.94877
291 1 9.4344 9.43397 15.7267 -8.95207
292 1 12.5825 9.43268 15.7332 -8.95899
293 1 15.7282 9.43305 15.7284 -8.94769
294 1 18.8707 9.43415 15.7253 -8.94927
295 1 22.0138 2.67754e-16 18.8692 -8.94937
296 1 1.57228 1.57228 20.4415 -8.94945
297 1 3.1447 8.78568e-16 18.8692 -8.94964
298 1 4.71716 1.57228 20.4415 -8.9496
299 1 6.28961 6.25466e-16 18.8692 -8.94957
300 1 7.86205 1.57225 20.4415 -8.94958
301 1 9.43451 9.16938e-16 18.8693 -8.94959
302 1 11.007 1.57223 20.4415 -8.94959
303 1 12.5794 1.65601e-15 18.8692 -8.94958
304 1 14.1519 1.57225 20.4415 -8.94957
305 1 15.7243 1.87449e-15 18.8692 -8.94958
306 1 17.2968 1.57226 20.4415 -8.94966
307 1 18.8692 5.4793e-16 18.8692 -8.9495
308 1 20.4416 1.57231 20.4415 -8.94937
309 1 1.46013e-05 3.14471 18.8692 -8.94961
310 1 1.57234 4.71722 20.4415 -8.9497
311 1 3.14446 3.14448 18.8694 -8.94945
312 1 4.71688 4.71693 20.4415 -8.94997
313 1 6.2895 3.14448 18.8694 -8.94952
314 1 7.86189 4.71681 20.4415 -8.94952
315 1 9.43446 3.14439 18.8694 -8.94955
316 1 11.0069 4.71673 20.4415 -8.94955
317 1 12.5794 3.14439 18.8694 -8.94951
318 1 14.1519 4.71676 20.4415 -8.94958
319 1 15.7244 3.1444 18.8694 -8.94966
320 1 17.2972 4.71671 20.4415 -8.94958
321 1 18.8695 3.14445 18.8693 -8.9492
322 1 20.4417 4.71712 20.4415 -8.94959
323 1 22.014 6.2896 18.8692 -8.94955
324 1 1.57231 7.86207 20.4415 -8.94957
325 1 3.14462 6.28969 18.8693 -8.94971
326 1 4.71699 7.86215 20.4415 -8.94952
327 1 6.28917 6.28929 18.87 -8.9506
328 1 7.86184 7.86202 20.4415 -8.95044
329 1 9.43421 6.28899 18.87 -8.94958
330 1 11.0067 7.86169 20.4415 -8.95015
331 1 12.5794 6.28895 18.87 -8.9496
332 1 14.1522 7.86162 20.4415 -8.95074
333 1 15.7251 6.28876 18.8702 -8.95007
334 1 17.2973 7.86179 20.4415 -8.94946
335 1 18.8696 6.28937 18.8694 -8.94953
336 1 20.4417 7.86202 20.4415 -8.94958
337 1 5.61897e-05 9.43449 18.8692 -8.94959
45 1 6.2893 9.43464 22.0135 -8.94936
5 1 6.28961 3.37839e-16 22.0137 -8.94957
9 1 12.5794 1.53957e-15 22.0137 -8.94958
43 1 5.61897e-05 9.43449 22.0137 -8.94959
15 1 1.46013e-05 3.14471 22.0137 -8.94961
17 1 3.14446 3.14448 22.0135 -8.94945
19 1 6.2895 3.14448 22.0135 -8.94952
25 1 15.7244 3.1444 22.0136 -8.94966
41 1 18.8696 6.28937 22.0136 -8.94953
31 1 3.14462 6.28969 22.0137 -8.94971
13 1 18.8692 1.03989e-16 22.0137 -8.9495
23 1 12.5794 3.14439 22.0136 -8.94951
39 1 15.7251 6.28876 22.0128 -8.95007
182 1 20.4415 1.57224 11.007 -8.94959
193 1 11.0176 7.85576 11.0287 -8.96612
344 1 1.5722 11.007 1.57199 -8.94958
345 1 4.71665 11.007 1.57163 -8.94964
346 1 7.8617 11.007 1.57192 -8.94837
347 1 11.0069 11.007 1.57082 -8.94765
348 1 14.1539 11.007 1.56834 -8.94986
349 1 17.2981 11.007 1.571 -8.94938
350 1 20.442 11.007 1.57195 -8.94953
688 3 10.2909 11.007 9.43453 2.19001
352 1 1.57223 14.1518 1.57205 -8.94943
353 1 3.14454 12.5794 -0.000281079 -8.94957
354 1 4.71679 14.1516 1.57172 -8.94961
687 2 11.6744 11.007 9.43453 0.192503
356 1 7.86147 14.1522 1.56997 -8.9525
511 1 18.8694 18.8695 9.43453 -8.9496
358 1 11.0066 14.1529 1.56964 -8.95035
510 1 15.725 18.8702 9.43453 -8.94912
360 1 14.1535 14.1535 1.5685 -8.95182
509 1 12.5795 18.8712 9.43453 -8.95115
362 1 17.298 14.1525 1.57103 -8.94921
363 1 18.8696 12.5795 -0.000384199 -8.94952
364 1 20.4419 14.152 1.57198 -8.94948
508 1 9.4343 18.8704 9.43453 -8.94622
366 1 1.57214 17.2968 1.57202 -8.94983
507 1 6.28742 18.8728 9.43453 -8.94946
368 1 4.71616 17.2977 1.57085 -8.94927
369 1 6.28917 15.7246 -0.000948526 -8.9506
370 1 7.86173 17.2976 1.57116 -8.94916
371 1 9.43421 15.7249 -0.000905754 -8.94958
372 1 11.0069 17.2977 1.57121 -8.94937
506 1 3.14351 18.8702 9.43453 -8.94948
374 1 14.1523 17.2978 1.57121 -8.94962
526 1 1.571 17.2976 11.0073 -8.9493
376 1 17.298 17.298 1.57118 -8.94812
505 1 22.0135 18.8695 9.43453 -8.94954
378 1 20.4419 17.297 1.57206 -8.94953
504 1 18.8698 15.7251 9.43453 -8.94924
380 1 1.57207 20.4417 1.57207 -8.94924
503 1 15.7255 15.726 9.43453 -8.94613
382 1 4.71699 20.4418 1.57198 -8.94965
502 1 12.5775 15.7316 9.43453 -8.96017
384 1 7.86201 20.4418 1.57195 -8.94951
385 1 9.43446 18.8695 -0.00036458 -8.94955
386 1 11.007 20.4418 1.57195 -8.94954
525 1 20.4417 14.1521 11.0069 -8.94988
388 1 14.152 20.4418 1.57203 -8.94949
501 1 9.42916 15.7212 9.43453 -8.99935
390 1 17.297 20.4419 1.57203 -8.94955
391 1 18.8695 18.8695 -0.000261655 -8.9492
392 1 20.4415 20.4416 1.57227 -8.94957
393 1 1.57179 11.007 4.71648 -8.94957
394 1 4.71545 11.007 4.7155 -8.94663
395 1 7.86301 11.007 4.71842 -8.94507
396 1 11.0118 11.007 4.71627 -9.014
397 1 14.1631 11.007 4.70536 -8.94393
398 1 17.3015 11.007 4.71454 -8.94857
399 1 20.4427 11.007 4.71659 -8.94989
400 1 22.014 12.5795 3.14433 -8.94955
401 1 1.57176 14.1518 4.71676 -8.94987
402 1 3.14407 12.5794 3.144 -8.94901
403 1 4.71479 14.1519 4.71565 -8.95182
404 1 6.28895 12.5787 3.14387 -8.94877
405 1 7.85443 14.1596 4.70596 -8.9504
406 1 9.4344 12.5799 3.14231 -8.95207
407 1 11.0074 14.1575 4.70835 -8.95001
408 1 12.5825 12.5812 3.13591 -8.95899
409 1 14.1658 14.1653 4.70297 -8.92844
410 1 15.7282 12.5809 3.14065 -8.94769
411 1 17.3015 14.1543 4.71478 -8.95024
412 1 18.8707 12.5797 3.14374 -8.94927
413 1 20.4425 14.1522 4.71675 -8.95021
414 1 9.6937e-05 15.7244 3.14445 -8.94982
415 1 1.5711 17.2974 4.71641 -8.94967
416 1 3.14383 15.7245 3.14389 -8.95038
417 1 4.7133 17.3004 4.71342 -8.94471
418 1 6.28658 15.7271 3.14016 -8.94924
419 1 7.86077 17.3003 4.71466 -8.94938
420 1 9.43382 15.7267 3.14166 -8.94771
421 1 11.0073 17.3 4.71481 -8.94793
422 1 12.5803 15.727 3.14143 -8.94869
423 1 14.1544 17.3013 4.71465 -8.95068
424 1 15.7286 15.7286 3.14038 -8.9441
425 1 17.298 17.298 4.71665 -8.94985
426 1 18.8706 15.7252 3.14385 -8.94952
427 1 20.4416 17.297 4.71706 -8.94989
428 1 22.0136 18.8694 3.14452 -8.94958
429 1 1.57198 20.4418 4.71699 -8.94954
430 1 3.14367 18.8701 3.14367 -8.94829
431 1 4.71642 20.4425 4.71641 -8.94997
432 1 6.28907 18.8703 3.14368 -8.94967
433 1 7.8619 20.4425 4.71647 -8.94963
434 1 9.43444 18.8703 3.14374 -8.94939
435 1 11.0072 20.4424 4.7165 -8.94961
436 1 12.5797 18.8704 3.14388 -8.94912
437 1 14.1522 20.4424 4.71685 -8.95058
438 1 15.7252 18.8707 3.1438 -8.94964
439 1 17.297 20.4419 4.7171 -8.94964
440 1 18.8695 18.8696 3.14455 -8.9497
441 1 20.4415 20.4416 4.71719 -8.94958
442 1 1.57189 11.007 7.86179 -8.94786
443 1 4.71875 11.007 7.86244 -8.93946
444 1 7.88333 11.007 7.87096 -8.96831
445 1 11.0746 11.007 7.58363 -8.31473
446 1 14.1687 11.007 7.84601 -9.01623
447 1 17.3008 11.007 7.86228 -8.9537
448 1 20.4424 11.007 7.86223 -8.94993
449 1 6.29313e-05 12.5794 6.28937 -8.95005
450 1 1.5701 14.1521 7.86184 -8.95171
451 1 3.14317 12.5787 6.28908 -8.94992
452 1 4.70707 14.1555 7.85976 -8.95791
453 1 6.28535 12.5771 6.28906 -8.95475
454 1 7.82167 14.1884 7.83075 -8.85818
455 1 9.41371 12.6082 6.27846 -8.9351
456 1 11.0176 14.1581 7.84039 -8.96612
457 1 12.6251 12.618 6.24958 -8.89304
458 1 14.1583 14.1563 7.86024 -8.97788
459 1 15.7369 12.5831 6.28407 -8.95642
460 1 17.2984 14.1523 7.86306 -8.95133
461 1 18.8721 12.5798 6.28913 -8.95216
462 1 20.4417 14.1521 7.86218 -8.94988
463 1 22.0132 15.7246 6.28937 -8.9502
464 1 1.571 17.2976 7.86179 -8.9493
465 1 3.14081 15.7261 6.28778 -8.9508
466 1 4.71366 17.3001 7.86082 -8.94766
467 1 6.27704 15.7363 6.27819 -8.93062
468 1 7.85894 17.3048 7.86088 -8.95923
469 1 9.43314 15.7337 6.28479 -8.95239
470 1 11.0055 17.2994 7.86154 -8.94945
471 1 12.5846 15.7352 6.28404 -8.95586
472 1 14.1531 17.2994 7.86202 -8.94834
473 1 15.7276 15.7272 6.28851 -8.94999
474 1 17.2975 17.2975 7.86219 -8.94918
475 1 18.87 15.7248 6.28973 -8.95016
476 1 20.4415 17.2971 7.86203 -8.94953
477 1 -0.000357943 18.8694 6.28951 -8.94948
478 1 1.57193 20.4418 7.86201 -8.94954
479 1 3.14358 18.8702 6.28903 -8.94924
480 1 4.71625 20.4426 7.86176 -8.94938
481 1 6.28799 18.8725 6.28815 -8.95146
482 1 7.86186 20.4431 7.86197 -8.95138
483 1 9.43447 18.8721 6.28845 -8.95042
484 1 11.0069 20.4424 7.86203 -8.94942
485 1 12.5797 18.8716 6.28933 -8.95228
486 1 14.1523 20.4423 7.86204 -8.94969
487 1 15.725 18.8703 6.28949 -8.94951
488 1 17.2971 20.4418 7.86207 -8.94947
489 1 18.8694 18.8694 6.28965 -8.94952
490 1 20.4415 20.4417 7.86207 -8.94959
491 1 22.0134 12.5793 9.43453 -8.94939
492 1 3.14211 12.579 9.43453 -8.9513
493 1 6.28053 12.5863 9.43453 -8.97377
494 1 9.35031 12.7947 9.43453 -8.1898
495 1 12.591 12.6162 9.43453 -9.12714
496 1 15.7197 12.5769 9.43453 -8.9871
497 1 18.8696 12.5798 9.43453 -8.94637
498 1 -0.0008823 15.7248 9.43453 -8.94993
499 1 3.1406 15.7264 9.43453 -8.94906
500 1 6.27904 15.7342 9.43453 -8.94148
517 1 17.3008 11.007 11.0068 -8.9537
518 1 20.4424 11.007 11.0068 -8.94993
524 1 17.2984 14.1523 11.006 -8.95133
523 1 14.1583 14.1563 11.0088 -8.97788
527 1 4.71366 17.3001 11.0082 -8.94766
534 1 4.71625 20.4426 11.0073 -8.94938
538 1 17.2971 20.4418 11.007 -8.94947
365 1 22.014 15.7243 -0.000151554 -8.94955
373 1 12.5794 15.725 -0.000962282 -8.9496
512 1 1.57189 11.007 11.0073 -8.94786
513 1 4.71875 11.007 11.0066 -8.93946
514 1 7.88333 11.007 10.9981 -8.96831
515 1 11.0746 11.007 11.2854 -8.31473
516 1 14.1687 11.007 11.0231 -9.01623
686 1 20.4416 20.4416 20.4415 -8.94937
685 1 18.8695 18.8695 18.8693 -8.9492
519 1 1.5701 14.1521 11.0072 -8.95171
520 1 4.70707 14.1555 11.0093 -8.95791
521 1 7.82167 14.1884 11.0383 -8.85818
684 1 17.2968 20.4416 20.4415 -8.94966
683 1 15.7244 18.8695 18.8694 -8.94966
682 1 14.1519 20.4417 20.4415 -8.94957
681 1 12.5794 18.8695 18.8694 -8.94951
680 1 11.007 20.4417 20.4415 -8.94959
389 1 15.7244 18.8695 22.0136 -8.94966
528 1 7.85894 17.3048 11.0082 -8.95923
529 1 11.0055 17.2994 11.0075 -8.94945
530 1 14.1531 17.2994 11.007 -8.94834
531 1 17.2975 17.2975 11.0069 -8.94918
532 1 20.4415 17.2971 11.007 -8.94953
533 1 1.57193 20.4418 11.0071 -8.94954
383 1 6.2895 18.8694 22.0135 -8.94952
535 1 7.86186 20.4431 11.0071 -8.95138
536 1 11.0069 20.4424 11.007 -8.94942
537 1 14.1523 20.4423 11.007 -8.94969
381 1 3.14446 18.8694 22.0135 -8.94945
679 1 9.43446 18.8695 18.8694 -8.94955
540 1 1.57179 11.007 14.1526 -8.94957
541 1 4.71545 11.007 14.1536 -8.94663
542 1 7.86301 11.007 14.1506 -8.94507
543 1 11.0118 11.007 14.1528 -9.014
544 1 14.1631 11.007 14.1637 -8.94393
545 1 17.3015 11.007 14.1545 -8.94857
546 1 20.4427 11.007 14.1525 -8.94989
547 1 6.29313e-05 12.5794 12.5797 -8.95005
548 1 1.57176 14.1518 14.1523 -8.94987
549 1 3.14317 12.5787 12.58 -8.94992
550 1 4.71479 14.1519 14.1534 -8.95182
551 1 6.28535 12.5771 12.58 -8.95475
552 1 7.85443 14.1596 14.1631 -8.9504
553 1 9.41371 12.6082 12.5906 -8.9351
554 1 11.0074 14.1575 14.1607 -8.95001
555 1 12.6251 12.618 12.6195 -8.89304
556 1 14.1658 14.1653 14.1661 -8.92844
557 1 15.7369 12.5831 12.585 -8.95642
558 1 17.3015 14.1543 14.1543 -8.95024
559 1 18.8721 12.5798 12.5799 -8.95216
560 1 20.4425 14.1522 14.1523 -8.95021
561 1 22.0132 15.7246 12.5797 -8.9502
562 1 1.5711 17.2974 14.1526 -8.94967
563 1 3.14081 15.7261 12.5813 -8.9508
564 1 4.7133 17.3004 14.1556 -8.94471
565 1 6.27704 15.7363 12.5909 -8.93062
566 1 7.86077 17.3003 14.1544 -8.94938
567 1 9.43314 15.7337 12.5843 -8.95239
568 1 11.0073 17.3 14.1542 -8.94793
569 1 12.5846 15.7352 12.585 -8.95586
570 1 14.1544 17.3013 14.1544 -8.95068
571 1 15.7276 15.7272 12.5805 -8.94999
572 1 17.298 17.298 14.1524 -8.94985
573 1 18.87 15.7248 12.5793 -8.95016
574 1 20.4416 17.297 14.152 -8.94989
575 1 -0.000357943 18.8694 12.5795 -8.94948
576 1 1.57198 20.4418 14.1521 -8.94954
577 1 3.14358 18.8702 12.58 -8.94924
578 1 4.71642 20.4425 14.1526 -8.94997
579 1 6.28799 18.8725 12.5809 -8.95146
580 1 7.8619 20.4425 14.1526 -8.94963
581 1 9.43447 18.8721 12.5806 -8.95042
582 1 11.0072 20.4424 14.1526 -8.94961
583 1 12.5797 18.8716 12.5797 -8.95228
584 1 14.1522 20.4424 14.1522 -8.95058
585 1 15.725 18.8703 12.5796 -8.94951
586 1 17.297 20.4419 14.152 -8.94964
587 1 18.8694 18.8694 12.5794 -8.94952
588 1 20.4415 20.4416 14.1519 -8.94958
589 1 1.5722 11.007 17.2971 -8.94958
590 1 4.71665 11.007 17.2974 -8.94964
591 1 7.8617 11.007 17.2971 -8.94837
592 1 11.0069 11.007 17.2982 -8.94765
593 1 14.1539 11.007 17.3007 -8.94986
594 1 17.2981 11.007 17.2981 -8.94938
595 1 20.442 11.007 17.2971 -8.94953
596 1 22.014 12.5795 15.7247 -8.94955
597 1 1.57223 14.1518 17.297 -8.94943
598 1 3.14407 12.5794 15.7251 -8.94901
599 1 4.71679 14.1516 17.2973 -8.94961
600 1 6.28895 12.5787 15.7252 -8.94877
601 1 7.86147 14.1522 17.2991 -8.9525
602 1 9.4344 12.5799 15.7267 -8.95207
603 1 11.0066 14.1529 17.2994 -8.95035
604 1 12.5825 12.5812 15.7332 -8.95899
605 1 14.1535 14.1535 17.3006 -8.95182
606 1 15.7282 12.5809 15.7284 -8.94769
607 1 17.298 14.1525 17.298 -8.94921
608 1 18.8707 12.5797 15.7253 -8.94927
609 1 20.4419 14.152 17.2971 -8.94948
610 1 9.6937e-05 15.7244 15.7246 -8.94982
611 1 1.57214 17.2968 17.297 -8.94983
612 1 3.14383 15.7245 15.7252 -8.95038
613 1 4.71616 17.2977 17.2982 -8.94927
614 1 6.28658 15.7271 15.7289 -8.94924
615 1 7.86173 17.2976 17.2979 -8.94916
616 1 9.43382 15.7267 15.7274 -8.94771
617 1 11.0069 17.2977 17.2979 -8.94937
618 1 12.5803 15.727 15.7276 -8.94869
619 1 14.1523 17.2978 17.2979 -8.94962
620 1 15.7286 15.7286 15.7287 -8.9441
621 1 17.298 17.298 17.2979 -8.94812
622 1 18.8706 15.7252 15.7252 -8.94952
623 1 20.4419 17.297 17.297 -8.94953
624 1 22.0136 18.8694 15.7245 -8.94958
625 1 1.57207 20.4417 17.297 -8.94924
626 1 3.14367 18.8701 15.7254 -8.94829
627 1 4.71699 20.4418 17.2971 -8.94965
628 1 6.28907 18.8703 15.7254 -8.94967
629 1 7.86201 20.4418 17.2971 -8.94951
630 1 9.43444 18.8703 15.7253 -8.94939
631 1 11.007 20.4418 17.2971 -8.94954
632 1 12.5797 18.8704 15.7252 -8.94912
633 1 14.152 20.4418 17.297 -8.94949
634 1 15.7252 18.8707 15.7253 -8.94964
635 1 17.297 20.4419 17.297 -8.94955
636 1 18.8695 18.8696 15.7245 -8.9497
637 1 20.4415 20.4416 17.2968 -8.94957
638 1 1.5723 11.007 20.4415 -8.9496
639 1 4.71691 11.007 20.4415 -8.94966
640 1 7.86173 11.007 20.4415 -8.94926
641 1 11.0066 11.007 20.4415 -8.94882
642 1 14.1524 11.007 20.4415 -8.95037
643 1 17.2973 11.007 20.4415 -8.94951
644 1 20.4417 11.007 20.4415 -8.94958
645 1 5.61897e-05 12.5794 18.8692 -8.94959
646 1 1.57231 14.1518 20.4415 -8.94957
647 1 3.14454 12.5794 18.8693 -8.94957
648 1 4.71699 14.1518 20.4415 -8.94952
649 1 6.2893 12.5793 18.8695 -8.94936
650 1 7.86184 14.1519 20.4415 -8.95044
651 1 9.43428 12.5793 18.8698 -8.94959
652 1 11.0067 14.1522 20.4415 -8.95015
653 1 12.5795 12.5795 18.8708 -8.95148
654 1 14.1522 14.1523 20.4415 -8.95074
655 1 15.7252 12.5797 18.8703 -8.94948
656 1 17.2973 14.1521 20.4415 -8.94946
657 1 18.8696 12.5795 18.8694 -8.94952
658 1 20.4417 14.1519 20.4415 -8.94958
659 1 22.014 15.7243 18.8692 -8.94955
660 1 1.57234 17.2967 20.4415 -8.9497
661 1 3.14462 15.7242 18.8693 -8.94971
662 1 4.71688 17.297 20.4415 -8.94997
663 1 6.28917 15.7246 18.87 -8.9506
664 1 7.86189 17.2971 20.4415 -8.94952
665 1 9.43421 15.7249 18.87 -8.94958
666 1 11.0069 17.2972 20.4415 -8.94955
667 1 12.5794 15.725 18.87 -8.9496
668 1 14.1519 17.2971 20.4415 -8.94958
669 1 15.7251 15.7251 18.8702 -8.95007
670 1 17.2972 17.2972 20.4415 -8.94958
671 1 18.8696 15.7245 18.8694 -8.94953
672 1 20.4417 17.2968 20.4415 -8.94959
673 1 1.46013e-05 18.8692 18.8692 -8.94961
674 1 1.57228 20.4416 20.4415 -8.94945
675 1 3.14446 18.8694 18.8694 -8.94945
676 1 4.71716 20.4416 20.4415 -8.9496
677 1 6.2895 18.8694 18.8694 -8.94952
678 1 7.86205 20.4417 20.4415 -8.94958
351 1 5.61897e-05 12.5794 22.0137 -8.94959
355 1 6.2893 12.5793 22.0135 -8.94936
357 1 9.43428 12.5793 22.0132 -8.94959
359 1 12.5795 12.5795 22.0121 -8.95148
361 1 15.7252 12.5797 22.0127 -8.94948
379 1 1.46013e-05 18.8692 22.0137 -8.94961
367 1 3.14462 15.7242 22.0137 -8.94971
377 1 18.8696 15.7245 22.0136 -8.94953
375 1 15.7251 15.7251 22.0128 -8.95007
539 1 20.4415 20.4417 11.007 -8.94959
387 1 12.5794 18.8695 22.0136 -8.94951
522 1 11.0176 14.1581 11.0287 -8.96612
