ITEM: TIMESTEP
102
ITEM: NUMBER OF ATOMS
688
ITEM: BOX BOUNDS pp pp pp
0.0000000000000000e+00 2.2013900999999997e+01
0.0000000000000000e+00 2.2013900999999997e+01
0.0000000000000000e+00 2.2013900999999997e+01
ITEM: ATOMS id type x y z c_pot
1 1 22.0137 6.76802e-15 -0.000240187 -8.9492
2 1 1.57176 1.57202 1.57175 -8.94916
175 1 18.8693 9.43416 9.43453 -8.94601
4 1 4.7166 1.57186 1.57154 -8.9496
174 1 15.7184 9.43775 9.43453 -8.98549
6 1 7.86182 1.57184 1.57157 -8.94945
7 1 9.43446 9.13401e-15 -0.000394677 -8.94952
8 1 11.007 1.57182 1.57161 -8.94948
173 1 12.5906 9.40062 9.43453 -9.12149
10 1 14.1522 1.57177 1.57171 -8.94947
172 1 9.35235 9.22519 9.43453 -8.19519
12 1 17.2974 1.57172 1.57174 -8.94954
196 1 20.4416 7.8617 11.0069 -8.94983
14 1 20.4416 1.57207 1.57205 -8.94951
171 1 6.281 9.42732 9.43453 -8.97369
16 1 1.57192 4.7168 1.57164 -8.94984
170 1 3.14223 9.43469 9.43453 -8.9512
18 1 4.71561 4.71578 1.57027 -8.9492
169 1 22.0133 9.43451 9.43453 -8.94919
20 1 7.86136 4.7158 1.57064 -8.94911
21 1 9.43435 3.14405 -0.000594924 -8.94949
22 1 11.007 4.71563 1.57069 -8.94933
195 1 17.2982 7.8617 11.006 -8.95138
24 1 14.1528 4.71536 1.57058 -8.94957
168 1 18.8697 6.28867 9.43453 -8.94926
26 1 17.2987 4.71522 1.57066 -8.948
27 1 18.8699 3.14406 -0.000462677 -8.94908
28 1 20.4422 4.71654 1.57175 -8.9495
167 1 15.7252 6.28814 9.43453 -8.94615
30 1 1.57221 7.86197 1.57178 -8.94941
166 1 12.5772 6.2831 9.43453 -8.95965
32 1 4.7165 7.86215 1.57141 -8.9496
33 1 6.28885 6.28905 -0.00124556 -8.9507
34 1 7.86119 7.86128 1.56955 -8.95255
35 1 9.43405 6.28864 -0.00119015 -8.9496
36 1 11.0068 7.86049 1.569 -8.95043
165 1 9.4291 6.29296 9.43453 -8.99807
38 1 14.1543 7.85972 1.56757 -8.95183
194 1 14.1577 7.85814 11.0091 -8.97723
40 1 17.299 7.8608 1.57035 -8.94912
164 1 6.27817 6.27897 9.43453 -8.94146
42 1 20.4424 7.86166 1.57163 -8.94943
163 1 3.13972 6.28681 9.43453 -8.94905
44 1 3.14445 9.43451 -0.000401131 -8.94953
162 1 -0.00129568 6.28882 9.43453 -8.94996
161 1 18.8694 3.14415 9.43453 -8.94956
160 1 15.7251 3.14364 9.43453 -8.94903
159 1 12.5794 3.14297 9.43453 -8.95098
49 1 18.8703 9.43424 -0.000663383 -8.94943
50 1 -0.000374331 8.48402e-15 3.14446 -8.94952
51 1 1.57151 1.57191 4.71662 -8.94945
52 1 3.14388 2.5695e-13 3.14389 -8.94951
53 1 4.71588 1.5711 4.71594 -8.94998
54 1 6.28914 -1.61881e-13 3.14384 -8.94959
55 1 7.86162 1.57107 4.71608 -8.94974
56 1 9.43449 4.58529e-14 3.14388 -8.94956
57 1 11.0072 1.57119 4.71621 -8.9497
58 1 12.5797 1.29683e-13 3.14404 -8.94955
59 1 14.1525 1.57117 4.71666 -8.95073
60 1 15.7249 6.44921e-14 3.14424 -8.95012
61 1 17.2973 1.57182 4.71697 -8.94967
62 1 18.8694 3.27959e-16 3.14454 -8.94964
63 1 20.4414 1.5721 4.71702 -8.94953
64 1 22.0134 3.14423 3.14421 -8.94957
65 1 1.57059 4.71607 4.71601 -8.94968
66 1 3.1431 3.14338 3.14313 -8.94829
67 1 4.71248 4.71282 4.71282 -8.94485
68 1 6.28851 3.14302 3.14307 -8.94968
69 1 7.86008 4.71269 4.71403 -8.94951
70 1 9.43427 3.14306 3.14324 -8.94937
71 1 11.0074 4.7131 4.71412 -8.94794
72 1 12.5799 3.14295 3.1434 -8.94912
73 1 14.155 4.71175 4.71397 -8.95075
74 1 15.7258 3.14259 3.14335 -8.94969
75 1 17.2985 4.71537 4.71634 -8.94999
76 1 18.8698 3.14394 3.14428 -8.94973
77 1 20.4416 4.71655 4.71686 -8.94996
78 1 0.000155771 6.28922 3.14413 -8.94989
79 1 1.57157 7.86199 4.71653 -8.95
80 1 3.14332 6.28905 3.1434 -8.95046
81 1 4.71413 7.86151 4.71529 -8.95196
82 1 6.28577 6.286 3.13941 -8.94897
83 1 7.85347 7.85294 4.70513 -8.94936
84 1 9.43357 6.28632 3.14091 -8.94756
85 1 11.0078 7.85525 4.70696 -8.94945
86 1 12.581 6.28596 3.14041 -8.94855
87 1 14.1673 7.84752 4.70144 -8.92776
88 1 15.7298 6.28424 3.13941 -8.94382
89 1 17.3025 7.85905 4.71406 -8.95025
90 1 18.8714 6.28813 3.14338 -8.94952
91 1 20.4429 7.86148 4.71649 -8.95033
92 1 22.0143 9.43436 3.14402 -8.94956
93 1 3.14392 9.43449 3.14377 -8.949
94 1 6.28866 9.43491 3.14366 -8.94862
95 1 9.43438 9.43343 3.14162 -8.9523
96 1 12.5835 9.43214 3.1345 -8.95907
97 1 15.7296 9.43255 3.13943 -8.94755
98 1 18.8716 9.43392 3.14318 -8.94926
99 1 22.0134 8.84661e-15 6.28943 -8.9495
100 1 1.5714 1.57185 7.86185 -8.94947
101 1 3.14367 2.78462e-13 6.28905 -8.94937
102 1 4.71558 1.57098 7.86155 -8.94939
103 1 6.28884 3.806e-12 6.28895 -8.95064
104 1 7.8615 1.5706 7.86188 -8.95139
105 1 9.43451 4.09818e-12 6.28901 -8.95028
106 1 11.0068 1.57152 7.86202 -8.94933
107 1 12.5796 1.20225e-12 6.28948 -8.95037
108 1 14.1524 1.57157 7.86206 -8.94966
109 1 15.7248 -5.96883e-15 6.28953 -8.94965
110 1 17.2972 1.57196 7.86206 -8.94943
111 1 18.8693 2.08371e-15 6.28957 -8.94949
112 1 20.4414 1.57208 7.86201 -8.94953
113 1 -0.000701619 3.14415 6.2893 -8.94943
114 1 1.57031 4.71586 7.86161 -8.94927
115 1 3.14282 3.14315 6.2886 -8.94917
116 1 4.7126 4.71294 7.86053 -8.94764
117 1 6.28729 3.14074 6.28777 -8.95146
118 1 7.8582 4.70869 7.86075 -8.95916
119 1 9.43419 3.1414 6.28818 -8.95059
120 1 11.0053 4.71464 7.8613 -8.94923
121 1 12.5797 3.142 6.28912 -8.95245
122 1 14.1531 4.71448 7.86192 -8.94821
123 1 15.7252 3.14329 6.2894 -8.94953
124 1 17.2976 4.71619 7.86218 -8.94916
125 1 18.8694 3.14419 6.28957 -8.94949
126 1 20.4413 4.71648 7.86198 -8.94953
127 1 22.0129 6.28902 6.28923 -8.95025
128 1 1.56977 7.86155 7.86179 -8.9517
129 1 3.14006 6.28726 6.28745 -8.95076
130 1 4.70665 7.85773 7.8597 -8.95772
131 1 6.27635 6.27687 6.278 -8.93125
132 1 7.8223 7.82558 7.83159 -8.86151
133 1 9.43272 6.27941 6.28417 -8.95285
134 1 11.0176 7.85653 7.83971 -8.96817
135 1 12.585 6.27799 6.28312 -8.95615
136 1 14.1577 7.85814 7.85995 -8.97723
137 1 15.728 6.28634 6.2882 -8.95028
138 1 17.2982 7.8617 7.86306 -8.95138
139 1 18.8702 6.2889 6.28966 -8.95028
140 1 20.4416 7.8617 7.86218 -8.94983
141 1 0.00017718 9.4345 6.2893 -8.9501
142 1 3.14307 9.43506 6.28905 -8.95005
143 1 6.28505 9.43615 6.28892 -8.95529
144 1 9.41267 9.40419 6.27618 -8.93345
145 1 12.6262 9.39494 6.24699 -8.8908
146 1 15.7378 9.4305 6.28294 -8.95651
147 1 18.8726 9.434 6.28887 -8.95234
148 1 -0.000490415 1.55335e-14 9.43453 -8.94952
149 1 3.14359 1.87624e-13 9.43453 -8.94946
150 1 6.2885 1.12658e-11 9.43453 -8.95037
151 1 9.43448 4.17949e-11 9.43453 -8.9484
152 1 12.5796 7.81521e-13 9.43453 -8.94989
153 1 15.7249 -1.11725e-13 9.43453 -8.94952
154 1 18.8693 2.77418e-15 9.43453 -8.94954
155 1 22.0131 3.14409 9.43453 -8.94949
156 1 3.14268 3.14308 9.43453 -8.94944
157 1 6.28657 3.14051 9.43453 -8.9495
158 1 9.43392 3.14367 9.43453 -8.94615
183 1 1.57031 4.71586 11.0075 -8.94927
177 1 4.71558 1.57098 11.0075 -8.94939
181 1 17.2972 1.57196 11.007 -8.94943
184 1 4.7126 4.71294 11.0085 -8.94764
3 1 3.14441 -3.83708e-16 -0.000381073 -8.94955
11 1 15.7245 3.36131e-15 -0.000324437 -8.94953
29 1 22.0141 6.28943 -0.000329573 -8.94949
37 1 12.5796 6.28847 -0.00134763 -8.94965
176 1 1.5714 1.57185 11.0072 -8.94947
48 1 15.726 9.43391 22.0122 -8.9495
178 1 7.8615 1.5706 11.0072 -8.95139
179 1 11.0068 1.57152 11.007 -8.94933
180 1 14.1524 1.57157 11.007 -8.94966
47 1 12.5798 9.43417 22.0118 -8.95167
343 1 18.8703 9.43424 18.8697 -8.94943
342 1 15.726 9.43391 18.8708 -8.9495
46 1 9.43425 9.43448 22.013 -8.94966
185 1 7.8582 4.70869 11.0083 -8.95916
186 1 11.0053 4.71464 11.0078 -8.94923
187 1 14.1531 4.71448 11.0071 -8.94821
188 1 17.2976 4.71619 11.0069 -8.94916
189 1 20.4413 4.71648 11.0071 -8.94953
190 1 1.56977 7.86155 11.0073 -8.9517
191 1 4.70665 7.85773 11.0094 -8.95772
192 1 7.8223 7.82558 11.0375 -8.86151
341 1 12.5798 9.43417 18.8712 -8.95167
340 1 9.43425 9.43448 18.8699 -8.94966
339 1 6.28915 9.43462 18.8695 -8.94933
338 1 3.14445 9.43451 18.8695 -8.94953
197 1 22.0134 9.51946e-15 12.5796 -8.9495
198 1 1.57151 1.57191 14.1524 -8.94945
199 1 3.14367 2.78816e-13 12.58 -8.94937
200 1 4.71588 1.5711 14.1531 -8.94998
201 1 6.28884 3.8074e-12 12.5801 -8.95064
202 1 7.86162 1.57107 14.153 -8.94974
203 1 9.43451 4.09948e-12 12.58 -8.95028
204 1 11.0072 1.57119 14.1528 -8.9497
205 1 12.5796 1.20251e-12 12.5796 -8.95037
206 1 14.1525 1.57117 14.1524 -8.95073
207 1 15.7248 -5.68781e-15 12.5795 -8.94965
208 1 17.2973 1.57182 14.1521 -8.94967
209 1 18.8693 2.13121e-15 12.5795 -8.94949
210 1 20.4414 1.5721 14.152 -8.94953
211 1 -0.000701619 3.14415 12.5798 -8.94943
212 1 1.57059 4.71607 14.153 -8.94968
213 1 3.14282 3.14315 12.5805 -8.94917
214 1 4.71248 4.71282 14.1562 -8.94485
215 1 6.28729 3.14074 12.5813 -8.95146
216 1 7.86008 4.71269 14.155 -8.94951
217 1 9.43419 3.1414 12.5809 -8.95059
218 1 11.0074 4.7131 14.1549 -8.94794
219 1 12.5797 3.142 12.5799 -8.95245
220 1 14.155 4.71175 14.1551 -8.95075
221 1 15.7252 3.14329 12.5797 -8.94953
222 1 17.2985 4.71537 14.1527 -8.94999
223 1 18.8694 3.14419 12.5795 -8.94949
224 1 20.4416 4.71655 14.1522 -8.94996
225 1 22.0129 6.28902 12.5798 -8.95025
226 1 1.57157 7.86199 14.1525 -8.95
227 1 3.14006 6.28726 12.5816 -8.95076
228 1 4.71413 7.86151 14.1538 -8.95196
229 1 6.27635 6.27687 12.5911 -8.93125
230 1 7.85347 7.85294 14.1639 -8.94936
231 1 9.43272 6.27941 12.5849 -8.95285
232 1 11.0078 7.85525 14.1621 -8.94945
233 1 12.585 6.27799 12.5859 -8.95615
234 1 14.1673 7.84752 14.1676 -8.92776
235 1 15.728 6.28634 12.5809 -8.95028
236 1 17.3025 7.85905 14.155 -8.95025
237 1 18.8702 6.2889 12.5794 -8.95028
238 1 20.4429 7.86148 14.1526 -8.95033
239 1 0.00017718 9.4345 12.5798 -8.9501
240 1 3.14307 9.43506 12.58 -8.95005
241 1 6.28505 9.43615 12.5801 -8.95529
242 1 9.41267 9.40419 12.5929 -8.93345
243 1 12.6262 9.39494 12.6221 -8.8908
244 1 15.7378 9.4305 12.5861 -8.95651
245 1 18.8726 9.434 12.5802 -8.95234
246 1 -0.000374331 9.37232e-15 15.7246 -8.94952
247 1 1.57176 1.57202 17.2973 -8.94916
248 1 3.14388 2.57827e-13 15.7252 -8.94951
249 1 4.7166 1.57186 17.2975 -8.9496
250 1 6.28914 -1.60688e-13 15.7252 -8.94959
251 1 7.86182 1.57184 17.2975 -8.94945
252 1 9.43449 4.61019e-14 15.7252 -8.94956
253 1 11.007 1.57182 17.2974 -8.94948
254 1 12.5797 1.30143e-13 15.725 -8.94955
255 1 14.1522 1.57177 17.2973 -8.94947
256 1 15.7249 6.45498e-14 15.7248 -8.95012
257 1 17.2974 1.57172 17.2973 -8.94954
258 1 18.8694 -8.90386e-16 15.7245 -8.94964
259 1 20.4416 1.57207 17.297 -8.94951
260 1 22.0134 3.14423 15.7249 -8.94957
261 1 1.57192 4.7168 17.2974 -8.94984
262 1 3.1431 3.14338 15.7259 -8.94829
263 1 4.71561 4.71578 17.2988 -8.9492
264 1 6.28851 3.14302 15.726 -8.94968
265 1 7.86136 4.7158 17.2984 -8.94911
266 1 9.43427 3.14306 15.7258 -8.94937
267 1 11.007 4.71563 17.2984 -8.94933
268 1 12.5799 3.14295 15.7257 -8.94912
269 1 14.1528 4.71536 17.2985 -8.94957
270 1 15.7258 3.14259 15.7257 -8.94969
271 1 17.2987 4.71522 17.2984 -8.948
272 1 18.8698 3.14394 15.7248 -8.94973
273 1 20.4422 4.71654 17.2973 -8.9495
274 1 0.000155771 6.28922 15.7249 -8.94989
275 1 1.57221 7.86197 17.2973 -8.94941
276 1 3.14332 6.28905 15.7257 -8.95046
277 1 4.7165 7.86215 17.2976 -8.9496
278 1 6.28577 6.286 15.7296 -8.94897
279 1 7.86119 7.86128 17.2995 -8.95255
280 1 9.43357 6.28632 15.7281 -8.94756
281 1 11.0068 7.86049 17.3001 -8.95043
282 1 12.581 6.28596 15.7287 -8.94855
283 1 14.1543 7.85972 17.3015 -8.95183
284 1 15.7298 6.28424 15.7296 -8.94382
285 1 17.299 7.8608 17.2987 -8.94912
286 1 18.8714 6.28813 15.7257 -8.94952
287 1 20.4424 7.86166 17.2974 -8.94943
288 1 22.0143 9.43436 15.725 -8.94956
289 1 3.14392 9.43449 15.7253 -8.949
290 1 6.28866 9.43491 15.7254 -8.94862
291 1 9.43438 9.43343 15.7274 -8.9523
292 1 12.5835 9.43214 15.7346 -8.95907
293 1 15.7296 9.43255 15.7296 -8.94755
294 1 18.8716 9.43392 15.7259 -8.94926
295 1 22.0137 7.10066e-15 18.8693 -8.9492
296 1 1.57208 1.57213 20.4415 -8.94931
297 1 3.14441 6.93633e-16 18.8694 -8.94955
298 1 4.71691 1.57212 20.4415 -8.94954
299 1 6.2894 1.65905e-14 18.8695 -8.9495
300 1 7.86191 1.57207 20.4415 -8.94951
301 1 9.43446 9.39381e-15 18.8695 -8.94952
302 1 11.007 1.57204 20.4415 -8.94952
303 1 12.5795 6.4938e-15 18.8694 -8.94951
304 1 14.152 1.57203 20.4415 -8.9495
305 1 15.7245 3.20574e-15 18.8694 -8.94953
306 1 17.2971 1.57202 20.4415 -8.94959
307 1 18.8695 1.87461e-15 18.8694 -8.94939
308 1 20.4418 1.57215 20.4415 -8.94919
309 1 2.57903e-05 3.14449 18.8694 -8.94953
310 1 1.57226 4.71706 20.4415 -8.9497
311 1 3.14413 3.1442 18.8697 -8.94939
312 1 4.71656 4.71668 20.4415 -8.95003
313 1 6.2892 3.14416 18.8697 -8.94948
314 1 7.86165 4.71649 20.4415 -8.94951
315 1 9.43435 3.14405 18.8697 -8.94949
316 1 11.0069 4.71632 20.4415 -8.94953
317 1 12.5796 3.14399 18.8696 -8.94944
318 1 14.1522 4.71624 20.4415 -8.94957
319 1 15.7248 3.14392 18.8696 -8.9496
320 1 17.2977 4.71617 20.4415 -8.94952
321 1 18.8699 3.14406 18.8695 -8.94908
322 1 20.442 4.71683 20.4415 -8.94949
323 1 22.0141 6.28943 18.8694 -8.94949
324 1 1.57233 7.86201 20.4415 -8.94952
325 1 3.14442 6.28957 18.8695 -8.94973
326 1 4.71681 7.86213 20.4415 -8.94952
327 1 6.28885 6.28905 18.8703 -8.9507
328 1 7.86167 7.86192 20.4415 -8.95052
329 1 9.43405 6.28864 18.8702 -8.9496
330 1 11.0067 7.86146 20.4415 -8.95025
331 1 12.5796 6.28847 18.8704 -8.94965
332 1 14.1526 7.86125 20.4415 -8.95084
333 1 15.7257 6.28815 18.8706 -8.95007
334 1 17.2979 7.8614 20.4415 -8.9494
335 1 18.8701 6.28894 18.8697 -8.94942
336 1 20.4421 7.86182 20.4415 -8.94949
337 1 0.000274868 9.43443 18.8694 -8.94952
45 1 6.28915 9.43462 22.0134 -8.94933
5 1 6.2894 1.5974e-14 22.0135 -8.9495
9 1 12.5795 6.49112e-15 22.0135 -8.94951
43 1 0.000274868 9.43443 22.0135 -8.94952
15 1 2.57903e-05 3.14449 22.0136 -8.94953
17 1 3.14413 3.1442 22.0132 -8.94939
19 1 6.2892 3.14416 22.0133 -8.94948
25 1 15.7248 3.14392 22.0133 -8.9496
41 1 18.8701 6.28894 22.0133 -8.94942
31 1 3.14442 6.28957 22.0134 -8.94973
13 1 18.8695 1.71156e-15 22.0136 -8.94939
23 1 12.5796 3.14399 22.0133 -8.94944
39 1 15.7257 6.28815 22.0123 -8.95007
182 1 20.4414 1.57208 11.007 -8.94953
193 1 11.0176 7.85653 11.0294 -8.96817
344 1 1.57225 11.007 1.57175 -8.94954
345 1 4.71654 11.007 1.57152 -8.9496
346 1 7.86164 11.007 1.57182 -8.94839
347 1 11.0072 11.007 1.57034 -8.94797
348 1 14.1549 11.007 1.56735 -8.94994
349 1 17.2991 11.007 1.5703 -8.94931
350 1 20.4425 11.007 1.57158 -8.94947
688 3 10.3047 11.0068 9.43453 2.19182
352 1 1.57221 14.1519 1.57178 -8.94941
353 1 3.14445 12.5794 -0.000401131 -8.94953
354 1 4.7165 14.1518 1.57141 -8.9496
687 2 11.6532 11.007 9.43453 0.174782
356 1 7.86119 14.1526 1.56955 -8.95255
511 1 18.8694 18.8698 9.43453 -8.94956
358 1 11.0068 14.1534 1.569 -8.95043
510 1 15.7251 18.8703 9.43453 -8.94903
360 1 14.1543 14.1542 1.56757 -8.95183
509 1 12.5794 18.8709 9.43453 -8.95098
362 1 17.299 14.1531 1.57035 -8.94912
363 1 18.8703 12.5797 -0.000663383 -8.94943
364 1 20.4424 14.1522 1.57163 -8.94943
508 1 9.43392 18.8702 9.43453 -8.94615
366 1 1.57192 17.2971 1.57164 -8.94984
507 1 6.28657 18.8734 9.43453 -8.9495
368 1 4.71561 17.2981 1.57027 -8.9492
369 1 6.28885 15.7249 -0.00124556 -8.9507
370 1 7.86136 17.2981 1.57064 -8.94911
371 1 9.43405 15.7253 -0.00119015 -8.9496
372 1 11.007 17.2983 1.57069 -8.94933
506 1 3.14268 18.8708 9.43453 -8.94944
374 1 14.1528 17.2985 1.57058 -8.94957
526 1 1.57031 17.298 11.0075 -8.94927
376 1 17.2987 17.2987 1.57066 -8.948
505 1 22.0131 18.8698 9.43453 -8.94949
378 1 20.4422 17.2974 1.57175 -8.9495
504 1 18.8697 15.7252 9.43453 -8.94926
380 1 1.57176 20.4419 1.57175 -8.94916
503 1 15.7252 15.7258 9.43453 -8.94615
382 1 4.7166 20.442 1.57154 -8.9496
502 1 12.5772 15.7308 9.43453 -8.95965
384 1 7.86182 20.4421 1.57157 -8.94945
385 1 9.43435 18.8699 -0.000594924 -8.94949
386 1 11.007 20.4421 1.57161 -8.94948
525 1 20.4416 14.1522 11.0069 -8.94983
388 1 14.1522 20.4421 1.57171 -8.94947
501 1 9.4291 15.7209 9.43453 -8.9981
390 1 17.2974 20.4422 1.57174 -8.94954
391 1 18.8699 18.8698 -0.000462677 -8.94908
392 1 20.4416 20.4418 1.57205 -8.94951
393 1 1.57184 11.007 4.71631 -8.94962
394 1 4.71531 11.007 4.7154 -8.94668
395 1 7.86267 11.007 4.7178 -8.94462
396 1 11.0123 11.007 4.71424 -9.01464
397 1 14.1646 11.007 4.70341 -8.94376
398 1 17.3027 11.007 4.71366 -8.94855
399 1 20.4432 11.007 4.71629 -8.94997
400 1 22.0143 12.5795 3.14402 -8.94956
401 1 1.57157 14.1519 4.71653 -8.95
402 1 3.14392 12.5794 3.14377 -8.949
403 1 4.71413 14.1524 4.71529 -8.95196
404 1 6.28866 12.579 3.14366 -8.94862
405 1 7.85347 14.161 4.70513 -8.94936
406 1 9.43438 12.5805 3.14162 -8.9523
407 1 11.0078 14.1586 4.70696 -8.94945
408 1 12.5835 12.5818 3.1345 -8.95907
409 1 14.1673 14.1664 4.70144 -8.92776
410 1 15.7296 12.5814 3.13943 -8.94755
411 1 17.3025 14.1549 4.71406 -8.95025
412 1 18.8716 12.58 3.14318 -8.94926
413 1 20.4429 14.1524 4.71649 -8.95033
414 1 0.000155771 15.7247 3.14413 -8.94989
415 1 1.57059 17.2978 4.71601 -8.94968
416 1 3.14332 15.7248 3.1434 -8.95046
417 1 4.71248 17.3011 4.71282 -8.94485
418 1 6.28577 15.7279 3.13941 -8.94897
419 1 7.86008 17.3012 4.71403 -8.94951
420 1 9.43357 15.7276 3.14091 -8.94756
421 1 11.0074 17.3008 4.71412 -8.94794
422 1 12.581 15.7279 3.14041 -8.94855
423 1 14.155 17.3021 4.71397 -8.95075
424 1 15.7298 15.7297 3.13941 -8.94382
425 1 17.2985 17.2985 4.71634 -8.94999
426 1 18.8714 15.7258 3.14338 -8.94952
427 1 20.4416 17.2974 4.71686 -8.94996
428 1 22.0134 18.8697 3.14421 -8.94957
429 1 1.57151 20.442 4.71662 -8.94945
430 1 3.1431 18.8705 3.14313 -8.94829
431 1 4.71588 20.4428 4.71594 -8.94998
432 1 6.28851 18.8709 3.14307 -8.94968
433 1 7.86162 20.4428 4.71608 -8.94974
434 1 9.43427 18.8708 3.14324 -8.94937
435 1 11.0072 20.4427 4.71621 -8.9497
436 1 12.5799 18.8709 3.1434 -8.94912
437 1 14.1525 20.4427 4.71666 -8.95073
438 1 15.7258 18.8713 3.14335 -8.94969
439 1 17.2973 20.4421 4.71697 -8.94967
440 1 18.8698 18.87 3.14428 -8.94973
441 1 20.4414 20.4418 4.71702 -8.94953
442 1 1.57202 11.007 7.86184 -8.94775
443 1 4.71913 11.007 7.8625 -8.93929
444 1 7.88409 11.007 7.87021 -8.97133
445 1 11.0738 11.0069 7.57738 -8.31228
446 1 14.1682 11.007 7.84403 -9.01723
447 1 17.3006 11.007 7.86198 -8.95373
448 1 20.4424 11.007 7.86222 -8.94983
449 1 0.00017718 12.5794 6.2893 -8.9501
450 1 1.56977 14.1524 7.86179 -8.9517
451 1 3.14307 12.5788 6.28905 -8.95005
452 1 4.70665 14.1562 7.8597 -8.95772
453 1 6.28505 12.5777 6.28892 -8.95529
454 1 7.8223 14.1883 7.83159 -8.8614
455 1 9.41267 12.6097 6.27618 -8.93345
456 1 11.0176 14.1574 7.83971 -8.96816
457 1 12.6262 12.619 6.24699 -8.89081
458 1 14.1577 14.1558 7.85995 -8.97723
459 1 15.7378 12.5834 6.28294 -8.95651
460 1 17.2982 14.1522 7.86306 -8.95138
461 1 18.8726 12.5799 6.28887 -8.95234
462 1 20.4416 14.1522 7.86218 -8.94983
463 1 22.0129 15.7249 6.28923 -8.95025
464 1 1.57031 17.298 7.86161 -8.94927
465 1 3.14006 15.7266 6.28745 -8.95076
466 1 4.7126 17.301 7.86053 -8.94764
467 1 6.27635 15.737 6.278 -8.93126
468 1 7.8582 17.3052 7.86075 -8.95916
469 1 9.43272 15.7345 6.28417 -8.95285
470 1 11.0053 17.2993 7.8613 -8.94923
471 1 12.585 15.7359 6.28312 -8.95615
472 1 14.1531 17.2994 7.86192 -8.94821
473 1 15.728 15.7276 6.2882 -8.95028
474 1 17.2976 17.2977 7.86218 -8.94916
475 1 18.8702 15.725 6.28966 -8.95028
476 1 20.4413 17.2974 7.86198 -8.94953
477 1 -0.000701619 18.8698 6.2893 -8.94943
478 1 1.5714 20.4421 7.86185 -8.94947
479 1 3.14282 18.8707 6.2886 -8.94917
480 1 4.71558 20.4429 7.86155 -8.94939
481 1 6.28729 18.8732 6.28777 -8.95146
482 1 7.8615 20.4433 7.86188 -8.95139
483 1 9.43419 18.8725 6.28818 -8.95059
484 1 11.0068 20.4424 7.86202 -8.94933
485 1 12.5797 18.8719 6.28912 -8.95245
486 1 14.1524 20.4423 7.86206 -8.94966
487 1 15.7252 18.8706 6.2894 -8.94953
488 1 17.2972 20.4419 7.86206 -8.94943
489 1 18.8694 18.8697 6.28957 -8.94949
490 1 20.4414 20.4418 7.86201 -8.94953
491 1 22.0133 12.5794 9.43453 -8.94919
492 1 3.14223 12.5792 9.43453 -8.9512
493 1 6.281 12.5866 9.43453 -8.9737
494 1 9.35225 12.7889 9.43453 -8.19569
495 1 12.5906 12.6133 9.43453 -9.12151
496 1 15.7184 12.5762 9.43453 -8.98549
497 1 18.8693 12.5797 9.43453 -8.94601
498 1 -0.00129568 15.7251 9.43453 -8.94996
499 1 3.13972 15.7271 9.43453 -8.94905
500 1 6.27817 15.7349 9.43453 -8.94146
517 1 17.3006 11.007 11.0071 -8.95373
518 1 20.4424 11.007 11.0068 -8.94983
524 1 17.2982 14.1522 11.006 -8.95138
523 1 14.1577 14.1558 11.0091 -8.97723
527 1 4.7126 17.301 11.0085 -8.94764
534 1 4.71558 20.4429 11.0075 -8.94939
538 1 17.2972 20.4419 11.007 -8.94943
365 1 22.0141 15.7245 -0.000329573 -8.94949
373 1 12.5796 15.7254 -0.00134763 -8.94965
512 1 1.57202 11.007 11.0072 -8.94775
513 1 4.71913 11.007 11.0066 -8.93929
514 1 7.88409 11.007 10.9989 -8.97133
515 1 11.0738 11.0069 11.2917 -8.31228
516 1 14.1682 11.007 11.025 -9.01723
686 1 20.4418 20.4418 20.4415 -8.94919
685 1 18.8699 18.8698 18.8695 -8.94908
519 1 1.56977 14.1524 11.0073 -8.9517
520 1 4.70665 14.1562 11.0094 -8.95772
521 1 7.8223 14.1883 11.0375 -8.8614
684 1 17.2971 20.4419 20.4415 -8.94959
683 1 15.7248 18.87 18.8696 -8.9496
682 1 14.152 20.4419 20.4415 -8.9495
681 1 12.5796 18.8699 18.8696 -8.94944
680 1 11.007 20.4419 20.4415 -8.94952
389 1 15.7248 18.87 22.0133 -8.9496
528 1 7.8582 17.3052 11.0083 -8.95916
529 1 11.0053 17.2993 11.0078 -8.94923
530 1 14.1531 17.2994 11.0071 -8.94821
531 1 17.2976 17.2977 11.0069 -8.94916
532 1 20.4413 17.2974 11.0071 -8.94953
533 1 1.5714 20.4421 11.0072 -8.94947
383 1 6.2892 18.8697 22.0133 -8.94948
535 1 7.8615 20.4433 11.0072 -8.95139
536 1 11.0068 20.4424 11.007 -8.94933
537 1 14.1524 20.4423 11.007 -8.94966
381 1 3.14413 18.8697 22.0132 -8.94939
679 1 9.43435 18.8699 18.8697 -8.94949
540 1 1.57184 11.007 14.1527 -8.94962
541 1 4.71531 11.007 14.1537 -8.94668
542 1 7.86267 11.007 14.1513 -8.94462
543 1 11.0123 11.007 14.1548 -9.01464
544 1 14.1646 11.007 14.1656 -8.94376
545 1 17.3027 11.007 14.1554 -8.94855
546 1 20.4432 11.007 14.1528 -8.94997
547 1 0.00017718 12.5794 12.5798 -8.9501
548 1 1.57157 14.1519 14.1525 -8.95
549 1 3.14307 12.5788 12.58 -8.95005
550 1 4.71413 14.1524 14.1538 -8.95196
551 1 6.28505 12.5777 12.5801 -8.95529
552 1 7.85347 14.161 14.1639 -8.94936
553 1 9.41267 12.6097 12.5929 -8.93345
554 1 11.0078 14.1586 14.1621 -8.94945
555 1 12.6262 12.619 12.6221 -8.89081
556 1 14.1673 14.1664 14.1676 -8.92776
557 1 15.7378 12.5834 12.5861 -8.95651
558 1 17.3025 14.1549 14.155 -8.95025
559 1 18.8726 12.5799 12.5802 -8.95234
560 1 20.4429 14.1524 14.1526 -8.95033
561 1 22.0129 15.7249 12.5798 -8.95025
562 1 1.57059 17.2978 14.153 -8.94968
563 1 3.14006 15.7266 12.5816 -8.95076
564 1 4.71248 17.3011 14.1562 -8.94485
565 1 6.27635 15.737 12.5911 -8.93126
566 1 7.86008 17.3012 14.155 -8.94951
567 1 9.43272 15.7345 12.5849 -8.95285
568 1 11.0074 17.3008 14.1549 -8.94794
569 1 12.585 15.7359 12.5859 -8.95615
570 1 14.155 17.3021 14.1551 -8.95075
571 1 15.728 15.7276 12.5809 -8.95028
572 1 17.2985 17.2985 14.1527 -8.94999
573 1 18.8702 15.725 12.5794 -8.95028
574 1 20.4416 17.2974 14.1522 -8.94996
575 1 -0.000701619 18.8698 12.5798 -8.94943
576 1 1.57151 20.442 14.1524 -8.94945
577 1 3.14282 18.8707 12.5805 -8.94917
578 1 4.71588 20.4428 14.1531 -8.94998
579 1 6.28729 18.8732 12.5813 -8.95146
580 1 7.86162 20.4428 14.153 -8.94974
581 1 9.43419 18.8725 12.5809 -8.95059
582 1 11.0072 20.4427 14.1528 -8.9497
583 1 12.5797 18.8719 12.5799 -8.95245
584 1 14.1525 20.4427 14.1524 -8.95073
585 1 15.7252 18.8706 12.5797 -8.94953
586 1 17.2973 20.4421 14.1521 -8.94967
587 1 18.8694 18.8697 12.5795 -8.94949
588 1 20.4414 20.4418 14.152 -8.94953
589 1 1.57225 11.007 17.2973 -8.94954
590 1 4.71654 11.007 17.2975 -8.9496
591 1 7.86164 11.007 17.2972 -8.94839
592 1 11.0072 11.007 17.2987 -8.94797
593 1 14.1549 11.007 17.3017 -8.94994
594 1 17.2991 11.007 17.2988 -8.94931
595 1 20.4425 11.007 17.2975 -8.94947
596 1 22.0143 12.5795 15.725 -8.94956
597 1 1.57221 14.1519 17.2973 -8.94941
598 1 3.14392 12.5794 15.7253 -8.949
599 1 4.7165 14.1518 17.2976 -8.9496
600 1 6.28866 12.579 15.7254 -8.94862
601 1 7.86119 14.1526 17.2995 -8.95255
602 1 9.43438 12.5805 15.7274 -8.9523
603 1 11.0068 14.1534 17.3001 -8.95043
604 1 12.5835 12.5818 15.7346 -8.95907
605 1 14.1543 14.1542 17.3015 -8.95183
606 1 15.7296 12.5814 15.7296 -8.94755
607 1 17.299 14.1531 17.2987 -8.94912
608 1 18.8716 12.58 15.7259 -8.94926
609 1 20.4424 14.1522 17.2974 -8.94943
610 1 0.000155771 15.7247 15.7249 -8.94989
611 1 1.57192 17.2971 17.2974 -8.94984
612 1 3.14332 15.7248 15.7257 -8.95046
613 1 4.71561 17.2981 17.2988 -8.9492
614 1 6.28577 15.7279 15.7296 -8.94897
615 1 7.86136 17.2981 17.2984 -8.94911
616 1 9.43357 15.7276 15.7281 -8.94756
617 1 11.007 17.2983 17.2984 -8.94933
618 1 12.581 15.7279 15.7287 -8.94855
619 1 14.1528 17.2985 17.2985 -8.94957
620 1 15.7298 15.7297 15.7296 -8.94382
621 1 17.2987 17.2987 17.2984 -8.948
622 1 18.8714 15.7258 15.7257 -8.94952
623 1 20.4422 17.2974 17.2973 -8.9495
624 1 22.0134 18.8697 15.7249 -8.94957
625 1 1.57176 20.4419 17.2973 -8.94916
626 1 3.1431 18.8705 15.7259 -8.94829
627 1 4.7166 20.442 17.2975 -8.9496
628 1 6.28851 18.8709 15.726 -8.94968
629 1 7.86182 20.4421 17.2975 -8.94945
630 1 9.43427 18.8708 15.7258 -8.94937
631 1 11.007 20.4421 17.2974 -8.94948
632 1 12.5799 18.8709 15.7257 -8.94912
633 1 14.1522 20.4421 17.2973 -8.94947
634 1 15.7258 18.8713 15.7257 -8.94969
635 1 17.2974 20.4422 17.2973 -8.94954
636 1 18.8698 18.87 15.7248 -8.94973
637 1 20.4416 20.4418 17.297 -8.94951
638 1 1.57233 11.007 20.4415 -8.94956
639 1 4.71678 11.007 20.4415 -8.94962
640 1 7.86162 11.007 20.4415 -8.94921
641 1 11.0067 11.007 20.4415 -8.94886
642 1 14.1529 11.007 20.4415 -8.95051
643 1 17.298 11.007 20.4415 -8.94946
644 1 20.4421 11.007 20.4415 -8.94951
645 1 0.000274868 12.5795 18.8694 -8.94952
646 1 1.57233 14.1519 20.4415 -8.94952
647 1 3.14445 12.5794 18.8695 -8.94953
648 1 4.71681 14.1518 20.4415 -8.94952
649 1 6.28915 12.5793 18.8695 -8.94933
650 1 7.86167 14.152 20.4415 -8.95052
651 1 9.43425 12.5794 18.8699 -8.94966
652 1 11.0067 14.1524 20.4415 -8.95025
653 1 12.5798 12.5797 18.8712 -8.95167
654 1 14.1526 14.1526 20.4415 -8.95084
655 1 15.726 12.58 18.8708 -8.9495
656 1 17.2979 14.1525 20.4415 -8.9494
657 1 18.8703 12.5797 18.8697 -8.94943
658 1 20.4421 14.1521 20.4415 -8.94949
659 1 22.0141 15.7245 18.8694 -8.94949
660 1 1.57226 17.2968 20.4415 -8.9497
661 1 3.14442 15.7243 18.8695 -8.94973
662 1 4.71656 17.2972 20.4415 -8.95003
663 1 6.28885 15.7249 18.8703 -8.9507
664 1 7.86165 17.2974 20.4415 -8.94951
665 1 9.43405 15.7253 18.8702 -8.9496
666 1 11.0069 17.2976 20.4415 -8.94953
667 1 12.5796 15.7254 18.8704 -8.94965
668 1 14.1522 17.2977 20.4415 -8.94957
669 1 15.7257 15.7258 18.8706 -8.95007
670 1 17.2977 17.2977 20.4415 -8.94952
671 1 18.8701 15.725 18.8697 -8.94942
672 1 20.442 17.2971 20.4415 -8.94949
673 1 2.57903e-05 18.8694 18.8694 -8.94953
674 1 1.57208 20.4418 20.4415 -8.94931
675 1 3.14413 18.8697 18.8697 -8.94939
676 1 4.71691 20.4418 20.4415 -8.94954
677 1 6.2892 18.8697 18.8697 -8.94948
678 1 7.86191 20.4418 20.4415 -8.94951
351 1 0.000274868 12.5795 22.0135 -8.94952
355 1 6.28915 12.5793 22.0134 -8.94933
357 1 9.43425 12.5794 22.013 -8.94966
359 1 12.5798 12.5797 22.0118 -8.95167
361 1 15.726 12.58 22.0122 -8.9495
379 1 2.57903e-05 18.8694 22.0136 -8.94953
367 1 3.14442 15.7243 22.0134 -8.94973
377 1 18.8701 15.725 22.0133 -8.94942
375 1 15.7257 15.7258 22.0123 -8.95007
539 1 20.4414 20.4418 11.007 -8.94953
387 1 12.5796 18.8699 22.0133 -8.94944
522 1 11.0176 14.1574 11.0294 -8.96816
