ITEM: TIMESTEP
119
ITEM: NUMBER OF ATOMS
688
ITEM: BOX BOUNDS pp pp pp
0.0000000000000000e+00 2.2013900999999997e+01
0.0000000000000000e+00 2.2013900999999997e+01
0.0000000000000000e+00 2.2013900999999997e+01
ITEM: ATOMS id type x y z c_pot
1 1 22.0137 7.32197e-12 -0.000267659 -8.94918
2 1 1.5717 1.57199 1.57169 -8.94915
175 1 18.8692 9.43417 9.43453 -8.94596
4 1 4.71651 1.57182 1.57146 -8.94959
174 1 15.7181 9.43787 9.43453 -8.98518
6 1 7.86177 1.5718 1.5715 -8.94944
7 1 9.43444 5.04874e-12 -0.000426522 -8.94951
8 1 11.007 1.57178 1.57156 -8.94947
173 1 12.5904 9.40125 9.43453 -9.12053
10 1 14.1523 1.57172 1.57166 -8.94946
172 1 9.35267 9.22662 9.43453 -8.19673
12 1 17.2974 1.57167 1.5717 -8.94953
196 1 20.4416 7.86169 11.0069 -8.94982
14 1 20.4416 1.57204 1.57201 -8.9495
171 1 6.28107 9.42735 9.43453 -8.9737
16 1 1.57188 4.71674 1.57158 -8.94984
170 1 3.14226 9.43465 9.43453 -8.9512
18 1 4.71551 4.7157 1.57019 -8.94919
169 1 22.0133 9.43449 9.43453 -8.94917
20 1 7.86129 4.7157 1.57056 -8.9491
21 1 9.43432 3.14399 -0.000631852 -8.94948
22 1 11.007 4.71553 1.5706 -8.94932
195 1 17.2982 7.86174 11.006 -8.95138
24 1 14.1529 4.71523 1.57048 -8.94956
168 1 18.8696 6.28867 9.43453 -8.94926
26 1 17.2988 4.7151 1.57058 -8.94798
27 1 18.8699 3.14398 -0.00049519 -8.94906
28 1 20.4423 4.71647 1.5717 -8.94949
167 1 15.7251 6.28822 9.43453 -8.94617
30 1 1.57222 7.86194 1.57174 -8.94941
166 1 12.5771 6.28331 9.43453 -8.95957
32 1 4.71645 7.8621 1.57136 -8.94959
33 1 6.28879 6.28899 -0.00128695 -8.9507
34 1 7.86115 7.86119 1.56948 -8.95254
35 1 9.43403 6.28856 -0.0012359 -8.9496
36 1 11.0069 7.86038 1.56888 -8.95043
165 1 9.42912 6.29292 9.43453 -8.99777
38 1 14.1545 7.8596 1.56741 -8.95183
194 1 14.1576 7.8583 11.0091 -8.97715
40 1 17.2992 7.86069 1.57024 -8.9491
164 1 6.2781 6.2789 9.43453 -8.94147
42 1 20.4425 7.8616 1.57157 -8.94942
163 1 3.13961 6.28671 9.43453 -8.94904
44 1 3.14446 9.43451 -0.000415023 -8.94953
162 1 -0.001373 6.28877 9.43453 -8.94996
161 1 18.8694 3.14413 9.43453 -8.94955
160 1 15.725 3.14366 9.43453 -8.94901
159 1 12.5793 3.14303 9.43453 -8.95094
49 1 18.8704 9.4342 -0.000711095 -8.94942
50 1 -0.000421799 1.23997e-12 3.14441 -8.94951
51 1 1.57142 1.57187 4.71655 -8.94943
52 1 3.14379 1.9837e-10 3.14381 -8.94951
53 1 4.71577 1.57105 4.71586 -8.94998
54 1 6.28906 2.56112e-12 3.14376 -8.9496
55 1 7.86155 1.57102 4.71602 -8.94976
56 1 9.43447 4.23095e-11 3.14382 -8.94957
57 1 11.0072 1.57115 4.71617 -8.94972
58 1 12.5798 8.95429e-11 3.14399 -8.94956
59 1 14.1525 1.57113 4.71663 -8.95074
60 1 15.7249 4.51967e-11 3.1442 -8.95013
61 1 17.2973 1.57178 4.71695 -8.94968
62 1 18.8694 3.1397e-13 3.14451 -8.94964
63 1 20.4414 1.57208 4.71698 -8.94952
64 1 22.0134 3.14418 3.14415 -8.94956
65 1 1.57051 4.716 4.71595 -8.94968
66 1 3.143 3.14332 3.14305 -8.9483
67 1 4.71236 4.71273 4.71276 -8.94489
68 1 6.28841 3.14293 3.14298 -8.94969
69 1 7.85998 4.71256 4.71395 -8.94954
70 1 9.43423 3.14297 3.14317 -8.94937
71 1 11.0074 4.71298 4.71401 -8.94795
72 1 12.58 3.14286 3.14332 -8.94912
73 1 14.1551 4.71164 4.71387 -8.95078
74 1 15.7259 3.14249 3.14329 -8.9497
75 1 17.2986 4.71529 4.71629 -8.95001
76 1 18.8698 3.14387 3.14424 -8.94973
77 1 20.4416 4.7165 4.71682 -8.94997
78 1 0.000172228 6.28917 3.14408 -8.94991
79 1 1.57155 7.86195 4.7165 -8.95002
80 1 3.14325 6.28898 3.14334 -8.95047
81 1 4.71405 7.86141 4.71524 -8.95198
82 1 6.28565 6.28587 3.13932 -8.94892
83 1 7.85334 7.85274 4.705 -8.94918
84 1 9.43353 6.28617 3.14079 -8.94754
85 1 11.0079 7.8551 4.70673 -8.94934
86 1 12.5811 6.28581 3.14024 -8.94852
87 1 14.1675 7.84737 4.70119 -8.92764
88 1 15.7299 6.28408 3.13926 -8.94378
89 1 17.3027 7.85896 4.71394 -8.95025
90 1 18.8715 6.28804 3.14331 -8.94952
91 1 20.443 7.86144 4.71645 -8.95034
92 1 22.0144 9.43434 3.14398 -8.94957
93 1 3.14391 9.43446 3.14375 -8.949
94 1 6.28861 9.43485 3.14361 -8.94859
95 1 9.43437 9.43333 3.14143 -8.95233
96 1 12.5837 9.43204 3.13422 -8.95907
97 1 15.7298 9.43247 3.13922 -8.94753
98 1 18.8718 9.43387 3.14309 -8.94926
99 1 22.0134 4.50008e-12 6.28939 -8.94949
100 1 1.57128 1.57181 7.86182 -8.94946
101 1 3.14355 1.00551e-10 6.28899 -8.94936
102 1 4.71545 1.57093 7.86152 -8.94939
103 1 6.28875 1.21814e-09 6.2889 -8.95064
104 1 7.86141 1.57058 7.86186 -8.95139
105 1 9.43446 9.24232e-10 6.28899 -8.95029
106 1 11.0067 1.57153 7.86202 -8.94931
107 1 12.5796 2.71496e-10 6.28948 -8.95037
108 1 14.1524 1.57157 7.86206 -8.94965
109 1 15.7248 5.16628e-11 6.28953 -8.94965
110 1 17.2972 1.57195 7.86206 -8.94942
111 1 18.8693 5.33644e-13 6.28955 -8.94948
112 1 20.4413 1.57206 7.862 -8.94952
113 1 -0.000777639 3.1441 6.28926 -8.94942
114 1 1.57019 4.71579 7.86158 -8.94927
115 1 3.14269 3.14307 6.28854 -8.94917
116 1 4.71246 4.71283 7.8605 -8.94765
117 1 6.28717 3.14066 6.28771 -8.95144
118 1 7.85809 4.70865 7.86073 -8.95912
119 1 9.43413 3.14136 6.28814 -8.9506
120 1 11.0052 4.71469 7.86126 -8.94915
121 1 12.5797 3.14198 6.28908 -8.95245
122 1 14.1531 4.71453 7.8619 -8.9482
123 1 15.7253 3.14326 6.28938 -8.94954
124 1 17.2976 4.71619 7.86218 -8.94916
125 1 18.8694 3.14415 6.28956 -8.94948
126 1 20.4413 4.71644 7.86197 -8.94953
127 1 22.0129 6.28898 6.28921 -8.95025
128 1 1.56973 7.8615 7.86179 -8.95169
129 1 3.13997 6.28718 6.28742 -8.95075
130 1 4.70664 7.85764 7.8597 -8.95767
131 1 6.27631 6.27681 6.27802 -8.93139
132 1 7.8225 7.82568 7.83177 -8.86224
133 1 9.43269 6.27933 6.28409 -8.95294
134 1 11.0175 7.85677 7.83967 -8.96865
135 1 12.585 6.27795 6.283 -8.95624
136 1 14.1576 7.8583 7.85991 -8.97715
137 1 15.728 6.28631 6.28814 -8.95033
138 1 17.2982 7.86174 7.86304 -8.95138
139 1 18.8702 6.28888 6.28964 -8.9503
140 1 20.4416 7.86169 7.86218 -8.94982
141 1 0.000199692 9.43449 6.28929 -8.95011
142 1 3.14307 9.43502 6.28905 -8.95007
143 1 6.28503 9.43607 6.28888 -8.95537
144 1 9.41251 9.404 6.27571 -8.93315
145 1 12.6264 9.3948 6.24653 -8.89031
146 1 15.7379 9.43047 6.28274 -8.95652
147 1 18.8726 9.43399 6.28881 -8.95236
148 1 -0.000576034 9.74341e-12 9.43453 -8.94951
149 1 3.14345 1.05141e-10 9.43453 -8.94945
150 1 6.28839 1.4165e-09 9.43453 -8.95037
151 1 9.43441 3.85007e-10 9.43453 -8.9484
152 1 12.5796 5.47795e-10 9.43453 -8.94986
153 1 15.7248 -6.80501e-12 9.43453 -8.94951
154 1 18.8693 4.21199e-12 9.43453 -8.94954
155 1 22.013 3.14404 9.43453 -8.94949
156 1 3.14253 3.14299 9.43453 -8.94944
157 1 6.28644 3.14044 9.43453 -8.9495
158 1 9.43385 3.14369 9.43453 -8.94618
183 1 1.57019 4.71579 11.0075 -8.94927
177 1 4.71545 1.57093 11.0075 -8.94939
181 1 17.2972 1.57195 11.007 -8.94942
184 1 4.71246 4.71283 11.0086 -8.94765
3 1 3.14434 -4.17595e-12 -0.000421123 -8.94954
11 1 15.7246 1.25249e-12 -0.000353144 -8.94952
29 1 22.0142 6.28938 -0.000360192 -8.94948
37 1 12.5797 6.28837 -0.00141252 -8.94965
176 1 1.57128 1.57181 11.0072 -8.94946
48 1 15.7261 9.43385 22.0121 -8.9495
178 1 7.86141 1.57058 11.0072 -8.95139
179 1 11.0067 1.57153 11.007 -8.94931
180 1 14.1524 1.57157 11.007 -8.94965
47 1 12.5799 9.43412 22.0117 -8.9517
343 1 18.8704 9.4342 18.8698 -8.94942
342 1 15.7261 9.43385 18.8708 -8.9495
46 1 9.43426 9.43445 22.013 -8.94968
185 1 7.85809 4.70865 11.0083 -8.95912
186 1 11.0052 4.71469 11.0078 -8.94915
187 1 14.1531 4.71453 11.0072 -8.9482
188 1 17.2976 4.71619 11.0069 -8.94916
189 1 20.4413 4.71644 11.0071 -8.94953
190 1 1.56973 7.8615 11.0073 -8.95169
191 1 4.70664 7.85764 11.0094 -8.95767
192 1 7.8225 7.82568 11.0373 -8.86224
341 1 12.5799 9.43412 18.8713 -8.9517
340 1 9.43426 9.43445 18.87 -8.94968
339 1 6.28913 9.4346 18.8696 -8.94933
338 1 3.14446 9.43451 18.8695 -8.94953
197 1 22.0134 4.50063e-12 12.5797 -8.94949
198 1 1.57142 1.57187 14.1525 -8.94943
199 1 3.14355 1.00552e-10 12.5801 -8.94936
200 1 4.71577 1.57105 14.1532 -8.94998
201 1 6.28875 1.21814e-09 12.5802 -8.95064
202 1 7.86155 1.57102 14.153 -8.94976
203 1 9.43446 9.24232e-10 12.5801 -8.95029
204 1 11.0072 1.57115 14.1529 -8.94972
205 1 12.5796 2.71496e-10 12.5796 -8.95037
206 1 14.1525 1.57113 14.1524 -8.95074
207 1 15.7248 5.1663e-11 12.5795 -8.94965
208 1 17.2973 1.57178 14.1521 -8.94968
209 1 18.8693 5.33842e-13 12.5795 -8.94948
210 1 20.4414 1.57208 14.1521 -8.94952
211 1 -0.000777639 3.1441 12.5798 -8.94942
212 1 1.57051 4.716 14.1531 -8.94968
213 1 3.14269 3.14307 12.5805 -8.94917
214 1 4.71236 4.71273 14.1563 -8.94489
215 1 6.28717 3.14066 12.5813 -8.95144
216 1 7.85998 4.71256 14.1551 -8.94954
217 1 9.43413 3.14136 12.5809 -8.9506
218 1 11.0074 4.71298 14.1551 -8.94795
219 1 12.5797 3.14198 12.58 -8.95245
220 1 14.1551 4.71164 14.1552 -8.95078
221 1 15.7253 3.14326 12.5797 -8.94954
222 1 17.2986 4.71529 14.1528 -8.95001
223 1 18.8694 3.14415 12.5795 -8.94948
224 1 20.4416 4.7165 14.1522 -8.94997
225 1 22.0129 6.28898 12.5799 -8.95025
226 1 1.57155 7.86195 14.1526 -8.95002
227 1 3.13997 6.28718 12.5816 -8.95075
228 1 4.71405 7.86141 14.1538 -8.95198
229 1 6.27631 6.27681 12.591 -8.93139
230 1 7.85334 7.85274 14.1641 -8.94918
231 1 9.43269 6.27933 12.585 -8.95294
232 1 11.0079 7.8551 14.1623 -8.94934
233 1 12.585 6.27795 12.5861 -8.95624
234 1 14.1675 7.84737 14.1679 -8.92764
235 1 15.728 6.28631 12.5809 -8.95033
236 1 17.3027 7.85896 14.1551 -8.95025
237 1 18.8702 6.28888 12.5794 -8.9503
238 1 20.443 7.86144 14.1526 -8.95034
239 1 0.000199692 9.43449 12.5798 -8.95011
240 1 3.14307 9.43502 12.58 -8.95007
241 1 6.28503 9.43607 12.5802 -8.95537
242 1 9.41251 9.404 12.5934 -8.93315
243 1 12.6264 9.3948 12.6225 -8.89031
244 1 15.7379 9.43047 12.5863 -8.95652
245 1 18.8726 9.43399 12.5802 -8.95236
246 1 -0.000421799 1.24026e-12 15.7247 -8.94951
247 1 1.5717 1.57199 17.2974 -8.94915
248 1 3.14379 1.98372e-10 15.7252 -8.94951
249 1 4.71651 1.57182 17.2976 -8.94959
250 1 6.28906 2.56301e-12 15.7253 -8.9496
251 1 7.86177 1.5718 17.2976 -8.94944
252 1 9.43447 4.23096e-11 15.7252 -8.94957
253 1 11.007 1.57178 17.2975 -8.94947
254 1 12.5798 8.95435e-11 15.7251 -8.94956
255 1 14.1523 1.57172 17.2974 -8.94946
256 1 15.7249 4.51967e-11 15.7249 -8.95013
257 1 17.2974 1.57167 17.2974 -8.94953
258 1 18.8694 3.13055e-13 15.7245 -8.94964
259 1 20.4416 1.57204 17.297 -8.9495
260 1 22.0134 3.14418 15.7249 -8.94956
261 1 1.57188 4.71674 17.2975 -8.94984
262 1 3.143 3.14332 15.726 -8.9483
263 1 4.71551 4.7157 17.2989 -8.94919
264 1 6.28841 3.14293 15.7261 -8.94969
265 1 7.86129 4.7157 17.2985 -8.9491
266 1 9.43423 3.14297 15.7259 -8.94937
267 1 11.007 4.71553 17.2985 -8.94932
268 1 12.58 3.14286 15.7257 -8.94912
269 1 14.1529 4.71523 17.2986 -8.94956
270 1 15.7259 3.14249 15.7258 -8.9497
271 1 17.2988 4.7151 17.2985 -8.94798
272 1 18.8698 3.14387 15.7248 -8.94973
273 1 20.4423 4.71647 17.2974 -8.94949
274 1 0.000172228 6.28917 15.725 -8.94991
275 1 1.57222 7.86194 17.2973 -8.94941
276 1 3.14325 6.28898 15.7257 -8.95047
277 1 4.71645 7.8621 17.2977 -8.94959
278 1 6.28565 6.28587 15.7297 -8.94892
279 1 7.86115 7.86119 17.2996 -8.95254
280 1 9.43353 6.28617 15.7283 -8.94754
281 1 11.0069 7.86038 17.3002 -8.95043
282 1 12.5811 6.28581 15.7288 -8.94852
283 1 14.1545 7.8596 17.3016 -8.95183
284 1 15.7299 6.28408 15.7298 -8.94378
285 1 17.2992 7.86069 17.2988 -8.9491
286 1 18.8715 6.28804 15.7258 -8.94952
287 1 20.4425 7.8616 17.2975 -8.94942
288 1 22.0144 9.43434 15.7251 -8.94957
289 1 3.14391 9.43446 15.7253 -8.949
290 1 6.28861 9.43485 15.7255 -8.94859
291 1 9.43437 9.43333 15.7276 -8.95233
292 1 12.5837 9.43204 15.7348 -8.95907
293 1 15.7298 9.43247 15.7298 -8.94753
294 1 18.8718 9.43387 15.726 -8.94926
295 1 22.0137 7.32233e-12 18.8693 -8.94918
296 1 1.57205 1.5721 20.4415 -8.94929
297 1 3.14434 -4.17538e-12 18.8695 -8.94954
298 1 4.71684 1.57209 20.4415 -8.94953
299 1 6.28934 3.31317e-12 18.8695 -8.94948
300 1 7.86187 1.57204 20.4415 -8.9495
301 1 9.43444 5.04953e-12 18.8695 -8.94951
302 1 11.007 1.572 20.4415 -8.94951
303 1 12.5795 2.54083e-12 18.8695 -8.9495
304 1 14.1521 1.57198 20.4415 -8.94949
305 1 15.7246 1.25178e-12 18.8694 -8.94952
306 1 17.2971 1.57197 20.4415 -8.94957
307 1 18.8695 2.51956e-12 18.8694 -8.94937
308 1 20.4418 1.57211 20.4415 -8.94917
309 1 3.26369e-05 3.14444 18.8694 -8.94952
310 1 1.57225 4.71702 20.4415 -8.94969
311 1 3.14407 3.14416 18.8698 -8.94938
312 1 4.7165 4.71664 20.4415 -8.95003
313 1 6.28914 3.1441 18.8697 -8.94948
314 1 7.8616 4.71643 20.4415 -8.94951
315 1 9.43432 3.14399 18.8697 -8.94948
316 1 11.0069 4.71624 20.4415 -8.94953
317 1 12.5796 3.14391 18.8697 -8.94943
318 1 14.1523 4.71614 20.4415 -8.94956
319 1 15.7249 3.14382 18.8697 -8.94959
320 1 17.2978 4.71606 20.4415 -8.9495
321 1 18.8699 3.14398 18.8696 -8.94906
322 1 20.4421 4.71676 20.4415 -8.94948
323 1 22.0142 6.28938 18.8694 -8.94948
324 1 1.57236 7.862 20.4415 -8.94952
325 1 3.14439 6.28953 18.8696 -8.94972
326 1 4.71678 7.86212 20.4415 -8.94952
327 1 6.28879 6.28899 18.8703 -8.9507
328 1 7.86164 7.86188 20.4415 -8.95053
329 1 9.43403 6.28856 18.8703 -8.9496
330 1 11.0067 7.8614 20.4415 -8.95026
331 1 12.5797 6.28837 18.8705 -8.94965
332 1 14.1527 7.86117 20.4415 -8.95086
333 1 15.7258 6.28803 18.8707 -8.95007
334 1 17.2981 7.86132 20.4415 -8.94939
335 1 18.8703 6.28885 18.8697 -8.94941
336 1 20.4422 7.86177 20.4415 -8.94948
337 1 0.000346702 9.43441 18.8694 -8.94951
45 1 6.28913 9.4346 22.0134 -8.94933
5 1 6.28934 3.31297e-12 22.0135 -8.94948
9 1 12.5795 2.54065e-12 22.0135 -8.9495
43 1 0.000346702 9.43441 22.0135 -8.94951
15 1 3.26369e-05 3.14444 22.0135 -8.94952
17 1 3.14407 3.14416 22.0132 -8.94938
19 1 6.28914 3.1441 22.0132 -8.94948
25 1 15.7249 3.14382 22.0133 -8.94959
41 1 18.8703 6.28885 22.0132 -8.94941
31 1 3.14439 6.28953 22.0134 -8.94972
13 1 18.8695 2.51913e-12 22.0136 -8.94937
23 1 12.5796 3.14391 22.0133 -8.94943
39 1 15.7258 6.28803 22.0123 -8.95007
182 1 20.4413 1.57206 11.0071 -8.94952
193 1 11.0175 7.85677 11.0294 -8.96865
344 1 1.57229 11.007 1.57172 -8.94953
345 1 4.71653 11.007 1.57151 -8.94959
346 1 7.86164 11.007 1.57177 -8.9484
347 1 11.0073 11.007 1.57019 -8.94804
348 1 14.1551 11.007 1.56717 -8.94995
349 1 17.2993 11.007 1.57018 -8.9493
350 1 20.4426 11.007 1.57153 -8.94947
688 3 10.3076 11.007 9.43453 2.19282
352 1 1.57222 14.152 1.57174 -8.94941
353 1 3.14446 12.5794 -0.000415023 -8.94953
354 1 4.71645 14.1518 1.57136 -8.94959
687 2 11.6496 11.007 9.43453 0.17196
356 1 7.86115 14.1527 1.56948 -8.95254
511 1 18.8694 18.8698 9.43453 -8.94955
358 1 11.0069 14.1535 1.56888 -8.95043
510 1 15.725 18.8702 9.43453 -8.94901
360 1 14.1545 14.1543 1.56741 -8.95183
509 1 12.5793 18.8709 9.43453 -8.95094
362 1 17.2992 14.1532 1.57024 -8.9491
363 1 18.8704 12.5797 -0.000711095 -8.94942
364 1 20.4425 14.1523 1.57157 -8.94942
508 1 9.43385 18.8702 9.43453 -8.94618
366 1 1.57188 17.2972 1.57158 -8.94984
507 1 6.28644 18.8735 9.43453 -8.9495
368 1 4.71551 17.2982 1.57019 -8.94919
369 1 6.28879 15.7249 -0.00128695 -8.9507
370 1 7.86129 17.2982 1.57056 -8.9491
371 1 9.43403 15.7253 -0.0012359 -8.9496
372 1 11.007 17.2984 1.5706 -8.94932
506 1 3.14253 18.8709 9.43453 -8.94944
374 1 14.1529 17.2987 1.57048 -8.94956
526 1 1.57019 17.2981 11.0075 -8.94927
376 1 17.2988 17.2988 1.57058 -8.94798
505 1 22.013 18.8699 9.43453 -8.94949
378 1 20.4423 17.2974 1.5717 -8.94949
504 1 18.8696 15.7252 9.43453 -8.94926
380 1 1.5717 20.4419 1.57169 -8.94915
503 1 15.7251 15.7257 9.43453 -8.94617
382 1 4.71651 20.4421 1.57146 -8.94959
502 1 12.5771 15.7306 9.43453 -8.95957
384 1 7.86177 20.4421 1.5715 -8.94944
385 1 9.43432 18.8699 -0.000631852 -8.94948
386 1 11.007 20.4421 1.57156 -8.94947
525 1 20.4416 14.1522 11.0069 -8.94982
388 1 14.1523 20.4422 1.57166 -8.94946
501 1 9.42912 15.721 9.43453 -8.99776
390 1 17.2974 20.4422 1.5717 -8.94953
391 1 18.8699 18.8699 -0.00049519 -8.94906
392 1 20.4416 20.4419 1.57201 -8.9495
393 1 1.57187 11.007 4.7163 -8.94963
394 1 4.71529 11.007 4.71539 -8.94672
395 1 7.8626 11.007 4.7176 -8.94457
396 1 11.0123 11.007 4.71376 -9.01475
397 1 14.1648 11.007 4.70307 -8.94374
398 1 17.3028 11.007 4.7135 -8.94854
399 1 20.4433 11.007 4.71624 -8.94998
400 1 22.0144 12.5796 3.14398 -8.94957
401 1 1.57155 14.1519 4.7165 -8.95002
402 1 3.14391 12.5794 3.14375 -8.949
403 1 4.71405 14.1525 4.71524 -8.95198
404 1 6.28861 12.5791 3.14361 -8.94859
405 1 7.85334 14.1612 4.705 -8.94918
406 1 9.43437 12.5806 3.14143 -8.95233
407 1 11.0079 14.1588 4.70673 -8.94934
408 1 12.5837 12.5819 3.13422 -8.95907
409 1 14.1675 14.1665 4.70119 -8.92764
410 1 15.7298 12.5814 3.13922 -8.94753
411 1 17.3027 14.1549 4.71394 -8.95025
412 1 18.8718 12.58 3.14309 -8.94926
413 1 20.443 14.1525 4.71645 -8.95034
414 1 0.000172228 15.7247 3.14408 -8.94991
415 1 1.57051 17.2979 4.71595 -8.94968
416 1 3.14325 15.7249 3.14334 -8.95047
417 1 4.71236 17.3012 4.71276 -8.94489
418 1 6.28565 15.728 3.13932 -8.94892
419 1 7.85998 17.3013 4.71395 -8.94954
420 1 9.43353 15.7277 3.14079 -8.94754
421 1 11.0074 17.3009 4.71401 -8.94795
422 1 12.5811 15.7281 3.14024 -8.94852
423 1 14.1551 17.3023 4.71387 -8.95078
424 1 15.7299 15.7298 3.13926 -8.94378
425 1 17.2986 17.2986 4.71629 -8.95001
426 1 18.8715 15.7259 3.14331 -8.94952
427 1 20.4416 17.2974 4.71682 -8.94997
428 1 22.0134 18.8697 3.14415 -8.94956
429 1 1.57142 20.442 4.71655 -8.94943
430 1 3.143 18.8706 3.14305 -8.9483
431 1 4.71577 20.4428 4.71586 -8.94998
432 1 6.28841 18.871 3.14298 -8.94969
433 1 7.86155 20.4429 4.71602 -8.94976
434 1 9.43423 18.8709 3.14317 -8.94937
435 1 11.0072 20.4427 4.71617 -8.94972
436 1 12.58 18.871 3.14332 -8.94912
437 1 14.1525 20.4428 4.71663 -8.95074
438 1 15.7259 18.8714 3.14329 -8.9497
439 1 17.2973 20.4421 4.71695 -8.94968
440 1 18.8698 18.87 3.14424 -8.94973
441 1 20.4414 20.4418 4.71698 -8.94952
442 1 1.57205 11.007 7.86185 -8.94774
443 1 4.71918 11.007 7.86248 -8.93928
444 1 7.88413 11.007 7.86994 -8.97181
445 1 11.0737 11.007 7.57606 -8.31143
446 1 14.1681 11.007 7.8437 -9.01745
447 1 17.3006 11.007 7.86192 -8.95373
448 1 20.4424 11.007 7.86221 -8.94983
449 1 0.000199691 12.5794 6.28929 -8.95011
450 1 1.56973 14.1524 7.86179 -8.95169
451 1 3.14307 12.5789 6.28905 -8.95007
452 1 4.70664 14.1563 7.8597 -8.95767
453 1 6.28503 12.5778 6.28888 -8.95537
454 1 7.8225 14.1882 7.83177 -8.86228
455 1 9.41251 12.6099 6.27571 -8.93315
456 1 11.0175 14.1571 7.83967 -8.96865
457 1 12.6264 12.6191 6.24653 -8.89031
458 1 14.1576 14.1556 7.85991 -8.97715
459 1 15.7379 12.5834 6.28274 -8.95652
460 1 17.2982 14.1522 7.86304 -8.95138
461 1 18.8726 12.5799 6.28881 -8.95236
462 1 20.4416 14.1522 7.86218 -8.94982
463 1 22.0129 15.7249 6.28921 -8.95025
464 1 1.57019 17.2981 7.86158 -8.94927
465 1 3.13997 15.7267 6.28742 -8.95075
466 1 4.71246 17.3011 7.8605 -8.94765
467 1 6.27631 15.7371 6.27802 -8.93139
468 1 7.85809 17.3052 7.86073 -8.95912
469 1 9.43269 15.7346 6.28409 -8.95294
470 1 11.0052 17.2992 7.86126 -8.94915
471 1 12.585 15.7359 6.283 -8.95624
472 1 14.1531 17.2994 7.8619 -8.9482
473 1 15.728 15.7276 6.28814 -8.95033
474 1 17.2976 17.2977 7.86218 -8.94916
475 1 18.8702 15.725 6.28964 -8.9503
476 1 20.4413 17.2975 7.86197 -8.94953
477 1 -0.000777639 18.8698 6.28926 -8.94942
478 1 1.57128 20.4421 7.86182 -8.94946
479 1 3.14269 18.8708 6.28854 -8.94917
480 1 4.71545 20.443 7.86152 -8.94939
481 1 6.28717 18.8732 6.28771 -8.95144
482 1 7.86141 20.4433 7.86186 -8.95139
483 1 9.43413 18.8725 6.28814 -8.9506
484 1 11.0067 20.4424 7.86202 -8.94931
485 1 12.5797 18.8719 6.28908 -8.95245
486 1 14.1524 20.4423 7.86206 -8.94965
487 1 15.7253 18.8706 6.28938 -8.94954
488 1 17.2972 20.4419 7.86206 -8.94942
489 1 18.8694 18.8697 6.28956 -8.94948
490 1 20.4413 20.4418 7.862 -8.94952
491 1 22.0133 12.5794 9.43453 -8.94917
492 1 3.14226 12.5793 9.43453 -8.9512
493 1 6.28107 12.5866 9.43453 -8.9737
494 1 9.35271 12.7872 9.43453 -8.19657
495 1 12.5904 12.6126 9.43453 -9.12052
496 1 15.7181 12.576 9.43453 -8.98518
497 1 18.8692 12.5797 9.43453 -8.94596
498 1 -0.001373 15.7251 9.43453 -8.94996
499 1 3.13961 15.7272 9.43453 -8.94904
500 1 6.2781 15.735 9.43453 -8.94147
517 1 17.3006 11.007 11.0071 -8.95373
518 1 20.4424 11.007 11.0068 -8.94983
524 1 17.2982 14.1522 11.006 -8.95138
523 1 14.1576 14.1556 11.0091 -8.97715
527 1 4.71246 17.3011 11.0086 -8.94765
534 1 4.71545 20.443 11.0075 -8.94939
538 1 17.2972 20.4419 11.007 -8.94942
365 1 22.0142 15.7245 -0.000360192 -8.94948
373 1 12.5797 15.7255 -0.00141252 -8.94965
512 1 1.57205 11.007 11.0072 -8.94774
513 1 4.71918 11.007 11.0066 -8.93928
514 1 7.88413 11.007 10.9991 -8.97181
515 1 11.0737 11.007 11.293 -8.31143
516 1 14.1681 11.007 11.0254 -9.01745
686 1 20.4418 20.4418 20.4415 -8.94917
685 1 18.8699 18.8699 18.8696 -8.94906
519 1 1.56973 14.1524 11.0073 -8.95169
520 1 4.70664 14.1563 11.0094 -8.95767
521 1 7.8225 14.1882 11.0373 -8.86228
684 1 17.2971 20.4419 20.4415 -8.94957
683 1 15.7249 18.8701 18.8697 -8.94959
682 1 14.1521 20.4419 20.4415 -8.94949
681 1 12.5796 18.87 18.8697 -8.94943
680 1 11.007 20.4419 20.4415 -8.94951
389 1 15.7249 18.8701 22.0133 -8.94959
528 1 7.85809 17.3052 11.0083 -8.95912
529 1 11.0052 17.2992 11.0078 -8.94915
530 1 14.1531 17.2994 11.0072 -8.9482
531 1 17.2976 17.2977 11.0069 -8.94916
532 1 20.4413 17.2975 11.0071 -8.94953
533 1 1.57128 20.4421 11.0072 -8.94946
383 1 6.28914 18.8698 22.0132 -8.94948
535 1 7.86141 20.4433 11.0072 -8.95139
536 1 11.0067 20.4424 11.007 -8.94931
537 1 14.1524 20.4423 11.007 -8.94965
381 1 3.14407 18.8697 22.0132 -8.94938
679 1 9.43432 18.8699 18.8697 -8.94948
540 1 1.57187 11.007 14.1528 -8.94963
541 1 4.71529 11.007 14.1537 -8.94672
542 1 7.8626 11.007 14.1515 -8.94457
543 1 11.0123 11.007 14.1553 -9.01475
544 1 14.1648 11.007 14.166 -8.94374
545 1 17.3028 11.007 14.1556 -8.94854
546 1 20.4433 11.007 14.1528 -8.94998
547 1 0.000199691 12.5794 12.5798 -8.95011
548 1 1.57155 14.1519 14.1526 -8.95002
549 1 3.14307 12.5789 12.58 -8.95007
550 1 4.71405 14.1525 14.1538 -8.95198
551 1 6.28503 12.5778 12.5802 -8.95537
552 1 7.85334 14.1612 14.1641 -8.94918
553 1 9.41251 12.6099 12.5934 -8.93315
554 1 11.0079 14.1588 14.1623 -8.94934
555 1 12.6264 12.6191 12.6225 -8.89031
556 1 14.1675 14.1665 14.1679 -8.92764
557 1 15.7379 12.5834 12.5863 -8.95652
558 1 17.3027 14.1549 14.1551 -8.95025
559 1 18.8726 12.5799 12.5802 -8.95236
560 1 20.443 14.1525 14.1526 -8.95034
561 1 22.0129 15.7249 12.5799 -8.95025
562 1 1.57051 17.2979 14.1531 -8.94968
563 1 3.13997 15.7267 12.5816 -8.95075
564 1 4.71236 17.3012 14.1563 -8.94489
565 1 6.27631 15.7371 12.591 -8.93139
566 1 7.85998 17.3013 14.1551 -8.94954
567 1 9.43269 15.7346 12.585 -8.95294
568 1 11.0074 17.3009 14.1551 -8.94795
569 1 12.585 15.7359 12.5861 -8.95624
570 1 14.1551 17.3023 14.1552 -8.95078
571 1 15.728 15.7276 12.5809 -8.95033
572 1 17.2986 17.2986 14.1528 -8.95001
573 1 18.8702 15.725 12.5794 -8.9503
574 1 20.4416 17.2974 14.1522 -8.94997
575 1 -0.000777639 18.8698 12.5798 -8.94942
576 1 1.57142 20.442 14.1525 -8.94943
577 1 3.14269 18.8708 12.5805 -8.94917
578 1 4.71577 20.4428 14.1532 -8.94998
579 1 6.28717 18.8732 12.5813 -8.95144
580 1 7.86155 20.4429 14.153 -8.94976
581 1 9.43413 18.8725 12.5809 -8.9506
582 1 11.0072 20.4427 14.1529 -8.94972
583 1 12.5797 18.8719 12.58 -8.95245
584 1 14.1525 20.4428 14.1524 -8.95074
585 1 15.7253 18.8706 12.5797 -8.94954
586 1 17.2973 20.4421 14.1521 -8.94968
587 1 18.8694 18.8697 12.5795 -8.94948
588 1 20.4414 20.4418 14.1521 -8.94952
589 1 1.57229 11.007 17.2973 -8.94953
590 1 4.71653 11.007 17.2976 -8.94959
591 1 7.86164 11.007 17.2973 -8.9484
592 1 11.0073 11.007 17.2989 -8.94804
593 1 14.1551 11.007 17.3019 -8.94995
594 1 17.2993 11.007 17.2989 -8.9493
595 1 20.4426 11.007 17.2975 -8.94947
596 1 22.0144 12.5796 15.7251 -8.94957
597 1 1.57222 14.152 17.2973 -8.94941
598 1 3.14391 12.5794 15.7253 -8.949
599 1 4.71645 14.1518 17.2977 -8.94959
600 1 6.28861 12.5791 15.7255 -8.94859
601 1 7.86115 14.1527 17.2996 -8.95254
602 1 9.43437 12.5806 15.7276 -8.95233
603 1 11.0069 14.1535 17.3002 -8.95043
604 1 12.5837 12.5819 15.7348 -8.95907
605 1 14.1545 14.1543 17.3016 -8.95183
606 1 15.7298 12.5814 15.7298 -8.94753
607 1 17.2992 14.1532 17.2988 -8.9491
608 1 18.8718 12.58 15.726 -8.94926
609 1 20.4425 14.1523 17.2975 -8.94942
610 1 0.000172228 15.7247 15.725 -8.94991
611 1 1.57188 17.2972 17.2975 -8.94984
612 1 3.14325 15.7249 15.7257 -8.95047
613 1 4.71551 17.2982 17.2989 -8.94919
614 1 6.28565 15.728 15.7297 -8.94892
615 1 7.86129 17.2982 17.2985 -8.9491
616 1 9.43353 15.7277 15.7283 -8.94754
617 1 11.007 17.2984 17.2985 -8.94932
618 1 12.5811 15.7281 15.7288 -8.94852
619 1 14.1529 17.2987 17.2986 -8.94956
620 1 15.7299 15.7298 15.7298 -8.94378
621 1 17.2988 17.2988 17.2985 -8.94798
622 1 18.8715 15.7259 15.7258 -8.94952
623 1 20.4423 17.2974 17.2974 -8.94949
624 1 22.0134 18.8697 15.7249 -8.94956
625 1 1.5717 20.4419 17.2974 -8.94915
626 1 3.143 18.8706 15.726 -8.9483
627 1 4.71651 20.4421 17.2976 -8.94959
628 1 6.28841 18.871 15.7261 -8.94969
629 1 7.86177 20.4421 17.2976 -8.94944
630 1 9.43423 18.8709 15.7259 -8.94937
631 1 11.007 20.4421 17.2975 -8.94947
632 1 12.58 18.871 15.7257 -8.94912
633 1 14.1523 20.4422 17.2974 -8.94946
634 1 15.7259 18.8714 15.7258 -8.9497
635 1 17.2974 20.4422 17.2974 -8.94953
636 1 18.8698 18.87 15.7248 -8.94973
637 1 20.4416 20.4419 17.297 -8.9495
638 1 1.57237 11.007 20.4415 -8.94955
639 1 4.71677 11.007 20.4415 -8.94962
640 1 7.86162 11.007 20.4415 -8.94922
641 1 11.0068 11.007 20.4415 -8.94889
642 1 14.153 11.007 20.4415 -8.95054
643 1 17.2982 11.007 20.4415 -8.94945
644 1 20.4422 11.007 20.4415 -8.9495
645 1 0.000346702 12.5795 18.8694 -8.94951
646 1 1.57236 14.1519 20.4415 -8.94952
647 1 3.14446 12.5794 18.8695 -8.94953
648 1 4.71678 14.1518 20.4415 -8.94952
649 1 6.28913 12.5793 18.8696 -8.94933
650 1 7.86164 14.152 20.4415 -8.95053
651 1 9.43426 12.5795 18.87 -8.94968
652 1 11.0067 14.1525 20.4415 -8.95026
653 1 12.5799 12.5798 18.8713 -8.9517
654 1 14.1527 14.1527 20.4415 -8.95086
655 1 15.7261 12.5801 18.8708 -8.9495
656 1 17.2981 14.1526 20.4415 -8.94939
657 1 18.8704 12.5797 18.8698 -8.94942
658 1 20.4422 14.1521 20.4415 -8.94948
659 1 22.0142 15.7245 18.8694 -8.94948
660 1 1.57225 17.2969 20.4415 -8.94969
661 1 3.14439 15.7244 18.8696 -8.94972
662 1 4.7165 17.2973 20.4415 -8.95003
663 1 6.28879 15.7249 18.8703 -8.9507
664 1 7.8616 17.2975 20.4415 -8.94951
665 1 9.43403 15.7253 18.8703 -8.9496
666 1 11.0069 17.2977 20.4415 -8.94953
667 1 12.5797 15.7255 18.8705 -8.94965
668 1 14.1523 17.2978 20.4415 -8.94956
669 1 15.7258 15.7259 18.8707 -8.95007
670 1 17.2978 17.2978 20.4415 -8.9495
671 1 18.8703 15.7251 18.8697 -8.94941
672 1 20.4421 17.2971 20.4415 -8.94948
673 1 3.26369e-05 18.8695 18.8694 -8.94952
674 1 1.57205 20.4418 20.4415 -8.94929
675 1 3.14407 18.8697 18.8698 -8.94938
676 1 4.71684 20.4418 20.4415 -8.94953
677 1 6.28914 18.8698 18.8697 -8.94948
678 1 7.86187 20.4419 20.4415 -8.9495
351 1 0.000346702 12.5795 22.0135 -8.94951
355 1 6.28913 12.5793 22.0134 -8.94933
357 1 9.43426 12.5795 22.013 -8.94968
359 1 12.5799 12.5798 22.0117 -8.9517
361 1 15.7261 12.5801 22.0121 -8.9495
379 1 3.26369e-05 18.8695 22.0135 -8.94952
367 1 3.14439 15.7244 22.0134 -8.94972
377 1 18.8703 15.7251 22.0132 -8.94941
375 1 15.7258 15.7259 22.0123 -8.95007
539 1 20.4413 20.4418 11.0071 -8.94952
387 1 12.5796 18.87 22.0133 -8.94943
522 1 11.0175 14.1571 11.0294 -8.96865
