ITEM: TIMESTEP
74
ITEM: NUMBER OF ATOMS
688
ITEM: BOX BOUNDS pp pp pp
0.0000000000000000e+00 2.2013900999999997e+01
0.0000000000000000e+00 2.2013900999999997e+01
0.0000000000000000e+00 2.2013900999999997e+01
ITEM: ATOMS id type x y z c_pot
1 1 22.0138 2.81779e-16 -0.000129384 -8.94932
2 1 1.57199 1.57215 1.57199 -8.94922
175 1 18.8696 9.43412 9.43453 -8.94626
4 1 4.7169 1.57204 1.57187 -8.94964
174 1 15.7194 9.43724 9.43453 -8.98666
6 1 7.86197 1.57202 1.57185 -8.94949
7 1 9.4345 4.23511e-16 -0.000250461 -8.94957
8 1 11.007 1.572 1.57186 -8.94952
173 1 12.5908 9.39851 9.43453 -9.1259
10 1 14.152 1.57199 1.57195 -8.94948
172 1 9.35087 9.22022 9.43453 -8.19128
12 1 17.2971 1.57194 1.57196 -8.94955
196 1 20.4417 7.86176 11.0069 -8.94987
14 1 20.4415 1.57221 1.57222 -8.94956
171 1 6.28068 9.42745 9.43453 -8.97375
16 1 1.57208 4.717 1.57192 -8.94983
170 1 3.14213 9.43488 9.43453 -8.95127
18 1 4.71601 4.71612 1.57068 -8.94925
169 1 22.0134 9.43455 9.43453 -8.94932
20 1 7.86164 4.71619 1.57101 -8.94915
21 1 9.43444 3.14431 -0.000427684 -8.94953
22 1 11.0069 4.71606 1.57107 -8.94936
195 1 17.2984 7.86163 11.006 -8.95136
24 1 14.1524 4.71591 1.57103 -8.9496
168 1 18.8698 6.28876 9.43453 -8.94924
26 1 17.2981 4.71574 1.57104 -8.94808
27 1 18.8696 3.14435 -0.000314815 -8.94916
28 1 20.442 4.71682 1.57198 -8.94952
167 1 15.7254 6.28795 9.43453 -8.94611
30 1 1.57221 7.86205 1.57197 -8.94942
166 1 12.5774 6.28245 9.43453 -8.95999
32 1 4.71671 7.86227 1.57163 -8.94961
33 1 6.28909 6.28924 -0.0010364 -8.95064
34 1 7.8614 7.86157 1.56985 -8.95253
35 1 9.43417 6.28891 -0.00098654 -8.94958
36 1 11.0067 7.86086 1.56947 -8.95039
165 1 9.4291 6.29289 9.43453 -8.99912
38 1 14.1537 7.86022 1.56824 -8.95183
194 1 14.1582 7.85767 11.0089 -8.97775
40 1 17.2983 7.86122 1.57085 -8.94918
164 1 6.27872 6.27945 9.43453 -8.94145
42 1 20.4421 7.86185 1.57189 -8.94946
163 1 3.14033 6.28729 9.43453 -8.94906
44 1 3.1445 9.43452 -0.000318191 -8.94956
162 1 -0.000990017 6.28902 9.43453 -8.94994
161 1 18.8694 3.1443 9.43453 -8.94959
160 1 15.7251 3.14368 9.43453 -8.94909
159 1 12.5795 3.14278 9.43453 -8.95111
49 1 18.8698 9.43438 -0.000458582 -8.9495
50 1 -0.000201839 9.58055e-18 3.14466 -8.94959
51 1 1.57187 1.57207 4.7169 -8.94951
52 1 3.14423 3.35153e-16 3.14423 -8.94954
53 1 4.71629 1.57134 4.71629 -8.94998
54 1 6.28939 5.60293e-16 3.14419 -8.94957
55 1 7.86184 1.57131 4.71636 -8.94966
56 1 9.43454 3.71746e-16 3.14416 -8.94956
57 1 11.0072 1.57139 4.71642 -8.94964
58 1 12.5796 2.57558e-16 3.14426 -8.94953
59 1 14.1523 1.57139 4.71679 -8.95063
60 1 15.7246 1.34894e-15 3.14442 -8.95004
61 1 17.2971 1.57198 4.71707 -8.94965
62 1 18.8693 -1.09794e-16 3.14468 -8.94964
63 1 20.4415 1.57223 4.71715 -8.94957
64 1 22.0135 3.14444 3.14444 -8.94957
65 1 1.57096 4.71635 4.7163 -8.94967
66 1 3.14351 3.14368 3.14352 -8.94828
67 1 4.71306 4.7133 4.71322 -8.94473
68 1 6.28893 3.14345 3.14351 -8.94967
69 1 7.86058 4.71335 4.71447 -8.94941
70 1 9.43441 3.14346 3.1436 -8.94938
71 1 11.0073 4.71366 4.71462 -8.94793
72 1 12.5797 3.14338 3.14375 -8.94911
73 1 14.1546 4.71235 4.71445 -8.95069
74 1 15.7254 3.14307 3.14368 -8.94965
75 1 17.2981 4.71576 4.71657 -8.94989
76 1 18.8695 3.14424 3.14448 -8.94971
77 1 20.4416 4.71678 4.71701 -8.94991
78 1 0.000109365 6.28941 3.14437 -8.94984
79 1 1.5717 7.86212 4.71669 -8.94991
80 1 3.14368 6.28931 3.14375 -8.95041
81 1 4.71459 7.8619 4.71554 -8.95187
82 1 6.28634 6.2866 3.13992 -8.94916
83 1 7.85413 7.85389 4.70571 -8.95012
84 1 9.43375 6.28696 3.14145 -8.94766
85 1 11.0075 7.85605 4.70797 -8.94987
86 1 12.5805 6.28665 3.14114 -8.94866
87 1 14.1663 7.84829 4.70254 -8.92825
88 1 15.7289 6.28496 3.1401 -8.94402
89 1 17.3018 7.85948 4.71459 -8.95024
90 1 18.8708 6.28852 3.14372 -8.94952
91 1 20.4426 7.86164 4.71668 -8.95024
92 1 22.0141 9.43441 3.14424 -8.94955
93 1 3.14402 9.43454 3.14393 -8.949
94 1 6.28888 9.43513 3.14383 -8.94873
95 1 9.4344 9.43384 3.14218 -8.95215
96 1 12.5827 9.43254 3.13555 -8.95904
97 1 15.7286 9.43291 3.14032 -8.94764
98 1 18.871 9.43409 3.14359 -8.94926
99 1 22.0137 8.55533e-16 6.28957 -8.94957
100 1 1.57181 1.57203 7.86197 -8.94952
101 1 3.14411 1.71607e-15 6.28931 -8.94941
102 1 4.71609 1.57124 7.8617 -8.94938
103 1 6.28915 1.26797e-15 6.28915 -8.95061
104 1 7.86179 1.57071 7.86195 -8.95139
105 1 9.43461 6.9646e-16 6.28912 -8.95023
106 1 11.0069 1.57149 7.86203 -8.94939
107 1 12.5796 6.56158e-16 6.28951 -8.95031
108 1 14.1524 1.57159 7.86205 -8.94968
109 1 15.7247 3.16927e-16 6.28955 -8.94964
110 1 17.2971 1.57204 7.86206 -8.94946
111 1 18.8693 1.6129e-16 6.28962 -8.94953
112 1 20.4415 1.5722 7.86206 -8.94957
113 1 -0.000437629 3.14437 6.28946 -8.94947
114 1 1.57082 4.71621 7.86173 -8.94929
115 1 3.14338 3.14354 6.28891 -8.94921
116 1 4.71335 4.71352 7.86073 -8.94763
117 1 6.28781 3.14116 6.28804 -8.95148
118 1 7.85872 4.70895 7.86085 -8.95925
119 1 9.43441 3.14166 6.28837 -8.95048
120 1 11.0054 4.71449 7.86149 -8.94943
121 1 12.5797 3.14222 6.28928 -8.95235
122 1 14.1532 4.71445 7.862 -8.94829
123 1 15.7251 3.1435 6.28947 -8.94952
124 1 17.2976 4.71631 7.86219 -8.94917
125 1 18.8694 3.14438 6.28963 -8.94951
126 1 20.4415 4.71668 7.86202 -8.94953
127 1 22.0131 6.2892 6.28933 -8.95022
128 1 1.56999 7.86173 7.86183 -8.95172
129 1 3.14058 6.28764 6.28767 -8.9508
130 1 4.70689 7.85821 7.85973 -8.95788
131 1 6.27678 6.27731 6.27809 -8.93075
132 1 7.82173 7.82543 7.83092 -8.85884
133 1 9.43299 6.27994 6.2846 -8.95251
134 1 11.0177 7.85587 7.84012 -8.96651
135 1 12.5847 6.2784 6.28375 -8.95591
136 1 14.1582 7.85767 7.86016 -8.97775
137 1 15.7277 6.28657 6.28842 -8.95007
138 1 17.2984 7.86163 7.86308 -8.95136
139 1 18.8701 6.28906 6.28972 -8.9502
140 1 20.4417 7.86176 7.86218 -8.94987
141 1 8.9278e-05 9.43454 6.28935 -8.95006
142 1 3.14313 9.43518 6.28907 -8.94996
143 1 6.28526 9.43661 6.28905 -8.95493
144 1 9.4134 9.40523 6.2779 -8.93465
145 1 12.6255 9.39559 6.24889 -8.89255
146 1 15.7372 9.43071 6.28376 -8.95644
147 1 18.8723 9.43407 6.28907 -8.95221
148 1 -0.000241451 1.54232e-15 9.43453 -8.94958
149 1 3.14406 1.67013e-15 9.43453 -8.94949
150 1 6.28887 1.52269e-15 9.43453 -8.95032
151 1 9.43464 1.84257e-15 9.43453 -8.94849
152 1 12.5797 1.64961e-15 9.43453 -8.94999
153 1 15.7248 8.0862e-16 9.43453 -8.94956
154 1 18.8693 1.16123e-16 9.43453 -8.94958
155 1 22.0135 3.14433 9.43453 -8.94953
156 1 3.1433 3.14349 9.43453 -8.94947
157 1 6.28718 3.1409 9.43453 -8.94949
158 1 9.4342 3.14359 9.43453 -8.94615
183 1 1.57082 4.71621 11.0073 -8.94929
177 1 4.71609 1.57124 11.0074 -8.94938
181 1 17.2971 1.57204 11.007 -8.94946
184 1 4.71335 4.71352 11.0083 -8.94763
3 1 3.14464 1.10531e-16 -0.000214217 -8.94962
11 1 15.7244 1.58574e-15 -0.00019308 -8.94957
29 1 22.014 6.28957 -0.00019592 -8.94953
37 1 12.5794 6.28883 -0.001069 -8.94961
176 1 1.57181 1.57203 11.0071 -8.94952
48 1 15.7254 9.43411 22.0126 -8.94948
178 1 7.86179 1.57071 11.0071 -8.95139
179 1 11.0069 1.57149 11.007 -8.94939
180 1 14.1524 1.57159 11.007 -8.94968
47 1 12.5795 9.43432 22.012 -8.95153
343 1 18.8698 9.43438 18.8695 -8.9495
342 1 15.7254 9.43411 18.8704 -8.94948
46 1 9.43426 9.43457 22.0131 -8.9496
185 1 7.85872 4.70895 11.0082 -8.95925
186 1 11.0054 4.71449 11.0076 -8.94943
187 1 14.1532 4.71445 11.0071 -8.94829
188 1 17.2976 4.71631 11.0069 -8.94917
189 1 20.4415 4.71668 11.007 -8.94953
190 1 1.56999 7.86173 11.0072 -8.95172
191 1 4.70689 7.85821 11.0093 -8.95788
192 1 7.82173 7.82543 11.0381 -8.85884
341 1 12.5795 9.43432 18.8709 -8.95153
340 1 9.43426 9.43457 18.8698 -8.9496
339 1 6.28925 9.43464 18.8695 -8.94935
338 1 3.1445 9.43452 18.8694 -8.94956
197 1 22.0137 1.33174e-15 12.5795 -8.94957
198 1 1.57187 1.57207 14.1522 -8.94951
199 1 3.14411 1.6453e-15 12.5797 -8.94941
200 1 4.71629 1.57134 14.1528 -8.94998
201 1 6.28915 1.88496e-15 12.5799 -8.95061
202 1 7.86184 1.57131 14.1527 -8.94966
203 1 9.43461 1.59946e-15 12.5799 -8.95023
204 1 11.0072 1.57139 14.1526 -8.94964
205 1 12.5796 1.39306e-15 12.5795 -8.95031
206 1 14.1523 1.57139 14.1523 -8.95063
207 1 15.7247 1.53998e-16 12.5795 -8.94964
208 1 17.2971 1.57198 14.152 -8.94965
209 1 18.8693 -1.24361e-16 12.5794 -8.94953
210 1 20.4415 1.57223 14.1519 -8.94957
211 1 -0.000437629 3.14437 12.5796 -8.94947
212 1 1.57096 4.71635 14.1528 -8.94967
213 1 3.14338 3.14354 12.5801 -8.94921
214 1 4.71306 4.7133 14.1558 -8.94473
215 1 6.28781 3.14116 12.581 -8.95148
216 1 7.86058 4.71335 14.1546 -8.94941
217 1 9.43441 3.14166 12.5807 -8.95048
218 1 11.0073 4.71366 14.1544 -8.94793
219 1 12.5797 3.14222 12.5798 -8.95235
220 1 14.1546 4.71235 14.1546 -8.95069
221 1 15.7251 3.1435 12.5796 -8.94952
222 1 17.2981 4.71576 14.1525 -8.94989
223 1 18.8694 3.14438 12.5794 -8.94951
224 1 20.4416 4.71678 14.152 -8.94991
225 1 22.0131 6.2892 12.5797 -8.95022
226 1 1.5717 7.86212 14.1524 -8.94991
227 1 3.14058 6.28764 12.5814 -8.9508
228 1 4.71459 7.8619 14.1535 -8.95187
229 1 6.27678 6.27731 12.591 -8.93075
230 1 7.85413 7.85389 14.1634 -8.95012
231 1 9.43299 6.27994 12.5845 -8.95251
232 1 11.0075 7.85605 14.1611 -8.94987
233 1 12.5847 6.2784 12.5853 -8.95591
234 1 14.1663 7.84829 14.1665 -8.92825
235 1 15.7277 6.28657 12.5806 -8.95007
236 1 17.3018 7.85948 14.1545 -8.95024
237 1 18.8701 6.28906 12.5793 -8.9502
238 1 20.4426 7.86164 14.1524 -8.95024
239 1 8.9278e-05 9.43454 12.5797 -8.95006
240 1 3.14313 9.43518 12.58 -8.94996
241 1 6.28526 9.43661 12.58 -8.95493
242 1 9.4134 9.40523 12.5912 -8.93465
243 1 12.6255 9.39559 12.6202 -8.89255
244 1 15.7372 9.43071 12.5853 -8.95644
245 1 18.8723 9.43407 12.58 -8.95221
246 1 -0.000201839 1.41786e-15 15.7244 -8.94959
247 1 1.57199 1.57215 17.2971 -8.94922
248 1 3.14423 1.29978e-15 15.7248 -8.94954
249 1 4.7169 1.57204 17.2972 -8.94964
250 1 6.28939 1.19388e-15 15.7249 -8.94957
251 1 7.86197 1.57202 17.2972 -8.94949
252 1 9.43454 1.50035e-15 15.7249 -8.94956
253 1 11.007 1.572 17.2972 -8.94952
254 1 12.5796 1.53487e-15 15.7248 -8.94953
255 1 14.152 1.57199 17.2971 -8.94948
256 1 15.7246 1.42285e-15 15.7246 -8.95004
257 1 17.2971 1.57194 17.2971 -8.94955
258 1 18.8693 -1.97645e-16 15.7244 -8.94964
259 1 20.4415 1.57221 17.2968 -8.94956
260 1 22.0135 3.14444 15.7246 -8.94957
261 1 1.57208 4.717 17.2971 -8.94983
262 1 3.14351 3.14368 15.7255 -8.94828
263 1 4.71601 4.71612 17.2984 -8.94925
264 1 6.28893 3.14345 15.7256 -8.94967
265 1 7.86164 4.71619 17.298 -8.94915
266 1 9.43441 3.14346 15.7255 -8.94938
267 1 11.0069 4.71606 17.298 -8.94936
268 1 12.5797 3.14338 15.7253 -8.94911
269 1 14.1524 4.71591 17.298 -8.9496
270 1 15.7254 3.14307 15.7254 -8.94965
271 1 17.2981 4.71574 17.298 -8.94808
272 1 18.8695 3.14424 15.7246 -8.94971
273 1 20.442 4.71682 17.2971 -8.94952
274 1 0.000109365 6.28941 15.7247 -8.94984
275 1 1.57221 7.86205 17.2971 -8.94942
276 1 3.14368 6.28931 15.7253 -8.95041
277 1 4.71671 7.86227 17.2974 -8.94961
278 1 6.28634 6.2866 15.7291 -8.94916
279 1 7.8614 7.86157 17.2992 -8.95253
280 1 9.43375 6.28696 15.7276 -8.94766
281 1 11.0067 7.86086 17.2996 -8.95039
282 1 12.5805 6.28665 15.7279 -8.94866
283 1 14.1537 7.86022 17.3008 -8.95183
284 1 15.7289 6.28496 15.729 -8.94402
285 1 17.2983 7.86122 17.2982 -8.94918
286 1 18.8708 6.28852 15.7253 -8.94952
287 1 20.4421 7.86185 17.2972 -8.94946
288 1 22.0141 9.43441 15.7248 -8.94955
289 1 3.14402 9.43454 15.7251 -8.949
290 1 6.28888 9.43513 15.7252 -8.94873
291 1 9.4344 9.43384 15.7269 -8.95215
292 1 12.5827 9.43254 15.7335 -8.95904
293 1 15.7286 9.43291 15.7287 -8.94764
294 1 18.871 9.43409 15.7255 -8.94926
295 1 22.0138 7.69291e-16 18.8692 -8.94932
296 1 1.57223 1.57224 20.4415 -8.94941
297 1 3.14464 1.81889e-15 18.8693 -8.94962
298 1 4.71711 1.57224 20.4415 -8.94958
299 1 6.28957 1.02846e-15 18.8693 -8.94955
300 1 7.86202 1.5722 20.4415 -8.94956
301 1 9.4345 6.24205e-16 18.8693 -8.94957
302 1 11.007 1.57218 20.4415 -8.94957
303 1 12.5794 1.47529e-15 18.8693 -8.94956
304 1 14.1519 1.5722 20.4415 -8.94955
305 1 15.7244 1.58455e-15 18.8693 -8.94957
306 1 17.2968 1.5722 20.4415 -8.94964
307 1 18.8693 1.16313e-15 18.8693 -8.94947
308 1 20.4416 1.57228 20.4415 -8.94932
309 1 1.54502e-05 3.14466 18.8693 -8.94959
310 1 1.57232 4.71719 20.4415 -8.94971
311 1 3.14438 3.14441 18.8695 -8.94943
312 1 4.71681 4.71687 20.4415 -8.94999
313 1 6.28944 3.1444 18.8695 -8.94951
314 1 7.86183 4.71673 20.4415 -8.94951
315 1 9.43444 3.14431 18.8695 -8.94953
316 1 11.0069 4.71663 20.4415 -8.94955
317 1 12.5795 3.14429 18.8695 -8.94949
318 1 14.152 4.71664 20.4415 -8.94958
319 1 15.7245 3.14429 18.8695 -8.94965
320 1 17.2973 4.71659 20.4415 -8.94956
321 1 18.8696 3.14435 18.8694 -8.94916
322 1 20.4417 4.71706 20.4415 -8.94957
323 1 22.014 6.28957 18.8693 -8.94953
324 1 1.5723 7.86206 20.4415 -8.94955
325 1 3.14457 6.28966 18.8694 -8.94972
326 1 4.71694 7.86215 20.4415 -8.94952
327 1 6.28909 6.28924 18.8701 -8.95064
328 1 7.8618 7.862 20.4415 -8.95047
329 1 9.43417 6.28891 18.87 -8.94958
330 1 11.0067 7.86164 20.4415 -8.95018
331 1 12.5794 6.28883 18.8701 -8.94961
332 1 14.1522 7.86154 20.4415 -8.95078
333 1 15.7252 6.28861 18.8703 -8.95008
334 1 17.2974 7.8617 20.4415 -8.94945
335 1 18.8697 6.28927 18.8695 -8.9495
336 1 20.4418 7.86198 20.4415 -8.94956
337 1 9.19028e-05 9.43448 18.8693 -8.94957
45 1 6.28925 9.43464 22.0135 -8.94935
5 1 6.28957 5.68889e-16 22.0137 -8.94955
9 1 12.5794 8.08699e-16 22.0137 -8.94956
43 1 9.19028e-05 9.43448 22.0137 -8.94957
15 1 1.54502e-05 3.14466 22.0137 -8.94959
17 1 3.14438 3.14441 22.0134 -8.94943
19 1 6.28944 3.1444 22.0135 -8.94951
25 1 15.7245 3.14429 22.0135 -8.94965
41 1 18.8697 6.28927 22.0135 -8.9495
31 1 3.14457 6.28966 22.0136 -8.94972
13 1 18.8693 7.66171e-16 22.0137 -8.94947
23 1 12.5795 3.14429 22.0135 -8.94949
39 1 15.7252 6.28861 22.0127 -8.95008
182 1 20.4415 1.5722 11.007 -8.94957
193 1 11.0177 7.85587 11.0289 -8.96651
344 1 1.5722 11.007 1.57192 -8.94957
345 1 4.71661 11.007 1.57159 -8.94963
346 1 7.86169 11.007 1.57191 -8.94836
347 1 11.0069 11.007 1.57073 -8.94772
348 1 14.1542 11.007 1.56807 -8.94989
349 1 17.2983 11.007 1.57081 -8.94936
350 1 20.4421 11.007 1.57185 -8.94951
688 3 10.2943 11.007 9.43453 2.19011
352 1 1.57221 14.1519 1.57197 -8.94942
353 1 3.1445 12.5794 -0.000318191 -8.94956
354 1 4.71671 14.1516 1.57163 -8.94961
687 2 11.6687 11.007 9.43453 0.188262
356 1 7.8614 14.1523 1.56985 -8.95253
511 1 18.8694 18.8696 9.43453 -8.94959
358 1 11.0067 14.153 1.56947 -8.95039
510 1 15.7251 18.8702 9.43453 -8.94909
360 1 14.1537 14.1537 1.56824 -8.95183
509 1 12.5795 18.8711 9.43453 -8.95111
362 1 17.2983 14.1527 1.57085 -8.94918
363 1 18.8698 12.5795 -0.000458582 -8.9495
364 1 20.4421 14.1521 1.57189 -8.94946
508 1 9.4342 18.8703 9.43453 -8.94615
366 1 1.57208 17.2969 1.57192 -8.94983
507 1 6.28718 18.873 9.43453 -8.94949
368 1 4.71601 17.2978 1.57068 -8.94925
369 1 6.28909 15.7247 -0.0010364 -8.95064
370 1 7.86164 17.2977 1.57101 -8.94915
371 1 9.43417 15.725 -0.00098654 -8.94958
372 1 11.0069 17.2978 1.57107 -8.94936
506 1 3.1433 18.8704 9.43453 -8.94947
374 1 14.1524 17.298 1.57103 -8.9496
526 1 1.57082 17.2977 11.0073 -8.94929
376 1 17.2981 17.2982 1.57104 -8.94808
505 1 22.0135 18.8696 9.43453 -8.94953
378 1 20.442 17.2971 1.57198 -8.94952
504 1 18.8698 15.7251 9.43453 -8.94924
380 1 1.57199 20.4417 1.57199 -8.94922
503 1 15.7254 15.7259 9.43453 -8.94611
382 1 4.7169 20.4419 1.57187 -8.94964
502 1 12.5774 15.7315 9.43453 -8.95999
384 1 7.86197 20.4419 1.57185 -8.94949
385 1 9.43444 18.8696 -0.000427684 -8.94953
386 1 11.007 20.4419 1.57186 -8.94952
525 1 20.4417 14.1521 11.0069 -8.94987
388 1 14.152 20.4419 1.57195 -8.94948
501 1 9.4291 15.721 9.43453 -8.99912
390 1 17.2971 20.442 1.57196 -8.94955
391 1 18.8696 18.8695 -0.000314815 -8.94916
392 1 20.4415 20.4417 1.57222 -8.94956
393 1 1.57179 11.007 4.71642 -8.94958
394 1 4.7154 11.007 4.71546 -8.94662
395 1 7.86294 11.007 4.71834 -8.94489
396 1 11.0119 11.007 4.71584 -9.01418
397 1 14.1635 11.007 4.70483 -8.94387
398 1 17.3019 11.007 4.71431 -8.94857
399 1 20.4428 11.007 4.7165 -8.94992
400 1 22.0141 12.5795 3.14424 -8.94955
401 1 1.5717 14.1518 4.71669 -8.94991
402 1 3.14402 12.5794 3.14393 -8.949
403 1 4.71459 14.152 4.71554 -8.95187
404 1 6.28888 12.5788 3.14383 -8.94873
405 1 7.85413 14.16 4.70571 -8.95012
406 1 9.4344 12.5801 3.14218 -8.95215
407 1 11.0075 14.1578 4.70797 -8.94987
408 1 12.5827 12.5814 3.13555 -8.95904
409 1 14.1663 14.1656 4.70254 -8.92825
410 1 15.7286 12.581 3.14032 -8.94764
411 1 17.3018 14.1544 4.71459 -8.95024
412 1 18.871 12.5798 3.14359 -8.94926
413 1 20.4426 14.1523 4.71668 -8.95024
414 1 0.000109365 15.7245 3.14437 -8.94984
415 1 1.57096 17.2976 4.7163 -8.94967
416 1 3.14368 15.7246 3.14375 -8.95041
417 1 4.71306 17.3006 4.71322 -8.94473
418 1 6.28634 15.7273 3.13992 -8.94916
419 1 7.86058 17.3006 4.71447 -8.94941
420 1 9.43375 15.7269 3.14145 -8.94766
421 1 11.0073 17.3002 4.71462 -8.94793
422 1 12.5805 15.7273 3.14114 -8.94866
423 1 14.1546 17.3016 4.71445 -8.95069
424 1 15.7289 15.7289 3.1401 -8.94402
425 1 17.2981 17.2981 4.71657 -8.94989
426 1 18.8708 15.7254 3.14372 -8.94952
427 1 20.4416 17.2971 4.71701 -8.94991
428 1 22.0135 18.8695 3.14444 -8.94957
429 1 1.57187 20.4418 4.7169 -8.94951
430 1 3.14351 18.8702 3.14352 -8.94828
431 1 4.71629 20.4426 4.71629 -8.94998
432 1 6.28893 18.8704 3.14351 -8.94967
433 1 7.86184 20.4426 4.71636 -8.94966
434 1 9.43441 18.8704 3.1436 -8.94938
435 1 11.0072 20.4425 4.71642 -8.94964
436 1 12.5797 18.8705 3.14375 -8.94911
437 1 14.1523 20.4425 4.71679 -8.95063
438 1 15.7254 18.8708 3.14368 -8.94965
439 1 17.2971 20.4419 4.71707 -8.94965
440 1 18.8695 18.8697 3.14448 -8.94971
441 1 20.4415 20.4417 4.71715 -8.94957
442 1 1.57192 11.007 7.8618 -8.94781
443 1 4.7189 11.007 7.86248 -8.93935
444 1 7.88377 11.007 7.87094 -8.96918
445 1 11.0743 11.007 7.58217 -8.31456
446 1 14.1685 11.007 7.84545 -9.01647
447 1 17.3008 11.007 7.86221 -8.9537
448 1 20.4424 11.007 7.86223 -8.9499
449 1 8.9278e-05 12.5794 6.28935 -8.95006
450 1 1.56999 14.1522 7.86183 -8.95172
451 1 3.14313 12.5787 6.28907 -8.94996
452 1 4.70689 14.1557 7.85973 -8.95788
453 1 6.28526 12.5773 6.28905 -8.95493
454 1 7.82173 14.1885 7.83092 -8.85884
455 1 9.4134 12.6087 6.2779 -8.93465
456 1 11.0177 14.158 7.84012 -8.96651
457 1 12.6255 12.6183 6.24889 -8.89255
458 1 14.1582 14.1562 7.86016 -8.97775
459 1 15.7372 12.5832 6.28376 -8.95644
460 1 17.2984 14.1523 7.86308 -8.95136
461 1 18.8723 12.5798 6.28907 -8.95221
462 1 20.4417 14.1521 7.86218 -8.94987
463 1 22.0131 15.7247 6.28933 -8.95022
464 1 1.57082 17.2977 7.86173 -8.94929
465 1 3.14058 15.7263 6.28767 -8.9508
466 1 4.71335 17.3004 7.86073 -8.94763
467 1 6.27678 15.7366 6.27809 -8.93075
468 1 7.85872 17.305 7.86085 -8.95925
469 1 9.43299 15.734 6.2846 -8.95251
470 1 11.0054 17.2994 7.86149 -8.94943
471 1 12.5847 15.7355 6.28375 -8.95591
472 1 14.1532 17.2995 7.862 -8.94829
473 1 15.7277 15.7273 6.28842 -8.95007
474 1 17.2976 17.2976 7.86219 -8.94917
475 1 18.8701 15.7248 6.28972 -8.9502
476 1 20.4415 17.2972 7.86202 -8.94953
477 1 -0.000437629 18.8695 6.28946 -8.94947
478 1 1.57181 20.4419 7.86197 -8.94952
479 1 3.14338 18.8704 6.28891 -8.94921
480 1 4.71609 20.4427 7.8617 -8.94938
481 1 6.28781 18.8727 6.28804 -8.95148
482 1 7.86179 20.4432 7.86195 -8.95139
483 1 9.43441 18.8722 6.28837 -8.95048
484 1 11.0069 20.4424 7.86203 -8.94939
485 1 12.5797 18.8717 6.28928 -8.95235
486 1 14.1524 20.4423 7.86205 -8.94968
487 1 15.7251 18.8704 6.28947 -8.94952
488 1 17.2971 20.4419 7.86206 -8.94946
489 1 18.8694 18.8695 6.28963 -8.94951
490 1 20.4415 20.4417 7.86206 -8.94957
491 1 22.0134 12.5794 9.43453 -8.94932
492 1 3.14213 12.579 9.43453 -8.95127
493 1 6.28068 12.5865 9.43453 -8.97375
494 1 9.35087 12.7937 9.43453 -8.19128
495 1 12.5908 12.6154 9.43453 -9.1259
496 1 15.7194 12.5767 9.43453 -8.98666
497 1 18.8696 12.5798 9.43453 -8.94626
498 1 -0.000990017 15.7249 9.43453 -8.94994
499 1 3.14033 15.7266 9.43453 -8.94906
500 1 6.27872 15.7344 9.43453 -8.94145
517 1 17.3008 11.007 11.0069 -8.9537
518 1 20.4424 11.007 11.0068 -8.9499
524 1 17.2984 14.1523 11.006 -8.95136
523 1 14.1582 14.1562 11.0089 -8.97775
527 1 4.71335 17.3004 11.0083 -8.94763
534 1 4.71609 20.4427 11.0074 -8.94938
538 1 17.2971 20.4419 11.007 -8.94946
365 1 22.014 15.7243 -0.00019592 -8.94953
373 1 12.5794 15.7251 -0.001069 -8.94961
512 1 1.57192 11.007 11.0073 -8.94781
513 1 4.7189 11.007 11.0066 -8.93935
514 1 7.88377 11.007 10.9981 -8.96918
515 1 11.0743 11.007 11.2869 -8.31456
516 1 14.1685 11.007 11.0236 -9.01647
686 1 20.4416 20.4416 20.4415 -8.94932
685 1 18.8696 18.8695 18.8694 -8.94916
519 1 1.56999 14.1522 11.0072 -8.95172
520 1 4.70689 14.1557 11.0093 -8.95788
521 1 7.82173 14.1885 11.0381 -8.85884
684 1 17.2968 20.4417 20.4415 -8.94964
683 1 15.7245 18.8696 18.8695 -8.94965
682 1 14.1519 20.4417 20.4415 -8.94955
681 1 12.5795 18.8696 18.8695 -8.94949
680 1 11.007 20.4417 20.4415 -8.94957
389 1 15.7245 18.8696 22.0135 -8.94965
528 1 7.85872 17.305 11.0082 -8.95925
529 1 11.0054 17.2994 11.0076 -8.94943
530 1 14.1532 17.2995 11.0071 -8.94829
531 1 17.2976 17.2976 11.0069 -8.94917
532 1 20.4415 17.2972 11.007 -8.94953
533 1 1.57181 20.4419 11.0071 -8.94952
383 1 6.28944 18.8695 22.0135 -8.94951
535 1 7.86179 20.4432 11.0071 -8.95139
536 1 11.0069 20.4424 11.007 -8.94939
537 1 14.1524 20.4423 11.007 -8.94968
381 1 3.14438 18.8695 22.0134 -8.94943
679 1 9.43444 18.8696 18.8695 -8.94953
540 1 1.57179 11.007 14.1526 -8.94958
541 1 4.7154 11.007 14.1536 -8.94662
542 1 7.86294 11.007 14.1507 -8.94489
543 1 11.0119 11.007 14.1532 -9.01418
544 1 14.1635 11.007 14.1642 -8.94387
545 1 17.3019 11.007 14.1548 -8.94857
546 1 20.4428 11.007 14.1526 -8.94992
547 1 8.9278e-05 12.5794 12.5797 -8.95006
548 1 1.5717 14.1518 14.1524 -8.94991
549 1 3.14313 12.5787 12.58 -8.94996
550 1 4.71459 14.152 14.1535 -8.95187
551 1 6.28526 12.5773 12.58 -8.95493
552 1 7.85413 14.16 14.1634 -8.95012
553 1 9.4134 12.6087 12.5912 -8.93465
554 1 11.0075 14.1578 14.1611 -8.94987
555 1 12.6255 12.6183 12.6202 -8.89255
556 1 14.1663 14.1656 14.1665 -8.92825
557 1 15.7372 12.5832 12.5853 -8.95644
558 1 17.3018 14.1544 14.1545 -8.95024
559 1 18.8723 12.5798 12.58 -8.95221
560 1 20.4426 14.1523 14.1524 -8.95024
561 1 22.0131 15.7247 12.5797 -8.95022
562 1 1.57096 17.2976 14.1528 -8.94967
563 1 3.14058 15.7263 12.5814 -8.9508
564 1 4.71306 17.3006 14.1558 -8.94473
565 1 6.27678 15.7366 12.591 -8.93075
566 1 7.86058 17.3006 14.1546 -8.94941
567 1 9.43299 15.734 12.5845 -8.95251
568 1 11.0073 17.3002 14.1544 -8.94793
569 1 12.5847 15.7355 12.5853 -8.95591
570 1 14.1546 17.3016 14.1546 -8.95069
571 1 15.7277 15.7273 12.5806 -8.95007
572 1 17.2981 17.2981 14.1525 -8.94989
573 1 18.8701 15.7248 12.5793 -8.9502
574 1 20.4416 17.2971 14.152 -8.94991
575 1 -0.000437629 18.8695 12.5796 -8.94947
576 1 1.57187 20.4418 14.1522 -8.94951
577 1 3.14338 18.8704 12.5801 -8.94921
578 1 4.71629 20.4426 14.1528 -8.94998
579 1 6.28781 18.8727 12.581 -8.95148
580 1 7.86184 20.4426 14.1527 -8.94966
581 1 9.43441 18.8722 12.5807 -8.95048
582 1 11.0072 20.4425 14.1526 -8.94964
583 1 12.5797 18.8717 12.5798 -8.95235
584 1 14.1523 20.4425 14.1523 -8.95063
585 1 15.7251 18.8704 12.5796 -8.94952
586 1 17.2971 20.4419 14.152 -8.94965
587 1 18.8694 18.8695 12.5794 -8.94951
588 1 20.4415 20.4417 14.1519 -8.94957
589 1 1.5722 11.007 17.2971 -8.94957
590 1 4.71661 11.007 17.2975 -8.94963
591 1 7.86169 11.007 17.2971 -8.94836
592 1 11.0069 11.007 17.2983 -8.94772
593 1 14.1542 11.007 17.301 -8.94989
594 1 17.2983 11.007 17.2982 -8.94936
595 1 20.4421 11.007 17.2972 -8.94951
596 1 22.0141 12.5795 15.7248 -8.94955
597 1 1.57221 14.1519 17.2971 -8.94942
598 1 3.14402 12.5794 15.7251 -8.949
599 1 4.71671 14.1516 17.2974 -8.94961
600 1 6.28888 12.5788 15.7252 -8.94873
601 1 7.8614 14.1523 17.2992 -8.95253
602 1 9.4344 12.5801 15.7269 -8.95215
603 1 11.0067 14.153 17.2996 -8.95039
604 1 12.5827 12.5814 15.7335 -8.95904
605 1 14.1537 14.1537 17.3008 -8.95183
606 1 15.7286 12.581 15.7287 -8.94764
607 1 17.2983 14.1527 17.2982 -8.94918
608 1 18.871 12.5798 15.7255 -8.94926
609 1 20.4421 14.1521 17.2972 -8.94946
610 1 0.000109365 15.7245 15.7247 -8.94984
611 1 1.57208 17.2969 17.2971 -8.94983
612 1 3.14368 15.7246 15.7253 -8.95041
613 1 4.71601 17.2978 17.2984 -8.94925
614 1 6.28634 15.7273 15.7291 -8.94916
615 1 7.86164 17.2977 17.298 -8.94915
616 1 9.43375 15.7269 15.7276 -8.94766
617 1 11.0069 17.2978 17.298 -8.94936
618 1 12.5805 15.7273 15.7279 -8.94866
619 1 14.1524 17.298 17.298 -8.9496
620 1 15.7289 15.7289 15.729 -8.94402
621 1 17.2981 17.2982 17.298 -8.94808
622 1 18.8708 15.7254 15.7253 -8.94952
623 1 20.442 17.2971 17.2971 -8.94952
624 1 22.0135 18.8695 15.7246 -8.94957
625 1 1.57199 20.4417 17.2971 -8.94922
626 1 3.14351 18.8702 15.7255 -8.94828
627 1 4.7169 20.4419 17.2972 -8.94964
628 1 6.28893 18.8704 15.7256 -8.94967
629 1 7.86197 20.4419 17.2972 -8.94949
630 1 9.43441 18.8704 15.7255 -8.94938
631 1 11.007 20.4419 17.2972 -8.94952
632 1 12.5797 18.8705 15.7253 -8.94911
633 1 14.152 20.4419 17.2971 -8.94948
634 1 15.7254 18.8708 15.7254 -8.94965
635 1 17.2971 20.442 17.2971 -8.94955
636 1 18.8695 18.8697 15.7246 -8.94971
637 1 20.4415 20.4417 17.2968 -8.94956
638 1 1.57228 11.007 20.4415 -8.94959
639 1 4.71686 11.007 20.4415 -8.94965
640 1 7.86169 11.007 20.4415 -8.94924
641 1 11.0066 11.007 20.4415 -8.9488
642 1 14.1525 11.007 20.4415 -8.95041
643 1 17.2975 11.007 20.4415 -8.9495
644 1 20.4418 11.007 20.4415 -8.94956
645 1 9.19028e-05 12.5794 18.8693 -8.94957
646 1 1.5723 14.1518 20.4415 -8.94955
647 1 3.1445 12.5794 18.8694 -8.94956
648 1 4.71694 14.1517 20.4415 -8.94952
649 1 6.28925 12.5793 18.8695 -8.94935
650 1 7.8618 14.1519 20.4415 -8.95047
651 1 9.43426 12.5793 18.8698 -8.9496
652 1 11.0067 14.1523 20.4415 -8.95018
653 1 12.5795 12.5796 18.8709 -8.95153
654 1 14.1522 14.1524 20.4415 -8.95078
655 1 15.7254 12.5798 18.8704 -8.94948
656 1 17.2974 14.1522 20.4415 -8.94945
657 1 18.8698 12.5795 18.8695 -8.9495
658 1 20.4418 14.1519 20.4415 -8.94956
659 1 22.014 15.7243 18.8693 -8.94953
660 1 1.57232 17.2967 20.4415 -8.94971
661 1 3.14457 15.7242 18.8694 -8.94972
662 1 4.71681 17.297 20.4415 -8.94999
663 1 6.28909 15.7247 18.8701 -8.95064
664 1 7.86183 17.2972 20.4415 -8.94951
665 1 9.43417 15.725 18.87 -8.94958
666 1 11.0069 17.2973 20.4415 -8.94955
667 1 12.5794 15.7251 18.8701 -8.94961
668 1 14.152 17.2973 20.4415 -8.94958
669 1 15.7252 15.7253 18.8703 -8.95008
670 1 17.2973 17.2973 20.4415 -8.94956
671 1 18.8697 15.7246 18.8695 -8.9495
672 1 20.4417 17.2968 20.4415 -8.94957
673 1 1.54502e-05 18.8692 18.8693 -8.94959
674 1 1.57223 20.4417 20.4415 -8.94941
675 1 3.14438 18.8695 18.8695 -8.94943
676 1 4.71711 20.4417 20.4415 -8.94958
677 1 6.28944 18.8695 18.8695 -8.94951
678 1 7.86202 20.4417 20.4415 -8.94956
351 1 9.19028e-05 12.5794 22.0137 -8.94957
355 1 6.28925 12.5793 22.0135 -8.94935
357 1 9.43426 12.5793 22.0131 -8.9496
359 1 12.5795 12.5796 22.012 -8.95153
361 1 15.7254 12.5798 22.0126 -8.94948
379 1 1.54502e-05 18.8692 22.0137 -8.94959
367 1 3.14457 15.7242 22.0136 -8.94972
377 1 18.8697 15.7246 22.0135 -8.9495
375 1 15.7252 15.7253 22.0127 -8.95008
539 1 20.4415 20.4417 11.007 -8.94957
387 1 12.5795 18.8696 22.0135 -8.94949
522 1 11.0177 14.158 11.0289 -8.96651
