ITEM: TIMESTEP
58
ITEM: NUMBER OF ATOMS
688
ITEM: BOX BOUNDS pp pp pp
0.0000000000000000e+00 2.2013900999999997e+01
0.0000000000000000e+00 2.2013900999999997e+01
0.0000000000000000e+00 2.2013900999999997e+01
ITEM: ATOMS id type x y z c_pot
1 1 22.0139 -8.20998e-16 -9.06071e-06 -8.94958
2 1 1.57236 1.57238 1.57236 -8.94945
175 1 18.8697 9.43415 9.43453 -8.94727
4 1 4.71724 1.57236 1.57236 -8.94971
174 1 15.7219 9.43594 9.43453 -8.98972
6 1 7.86209 1.57235 1.57234 -8.94961
7 1 9.43453 7.64432e-16 -1.83073e-05 -8.94964
8 1 11.007 1.57235 1.57233 -8.94962
173 1 12.5917 9.3939 9.43453 -9.13588
10 1 14.1518 1.57236 1.57235 -8.94958
172 1 9.34793 9.22113 9.43453 -8.17703
12 1 17.2967 1.57233 1.57234 -8.94959
196 1 20.4416 7.86195 11.0069 -8.9499
14 1 20.4415 1.5724 1.57241 -8.94962
171 1 6.27949 9.42893 9.43453 -8.97405
16 1 1.57238 4.71724 1.57236 -8.94975
170 1 3.14231 9.43504 9.43453 -8.95163
18 1 4.71686 4.71688 1.57179 -8.94939
169 1 22.0135 9.43456 9.43453 -8.94979
20 1 7.86204 4.71694 1.57197 -8.94932
21 1 9.43452 3.14476 -7.67131e-05 -8.94963
22 1 11.007 4.71689 1.57196 -8.94951
195 1 17.2981 7.86173 11.0063 -8.95106
24 1 14.1519 4.71695 1.57207 -8.94976
168 1 18.8695 6.28927 9.43453 -8.94926
26 1 17.2971 4.7168 1.57196 -8.94862
27 1 18.8691 3.14477 -5.36505e-05 -8.94944
28 1 20.4416 4.7172 1.57235 -8.94958
167 1 15.7252 6.28842 9.43453 -8.94666
30 1 1.57237 7.8621 1.57235 -8.94955
166 1 12.578 6.2817 9.43453 -8.96149
32 1 4.71712 7.86224 1.57219 -8.94963
33 1 6.2895 6.28952 -0.000427117 -8.95019
34 1 7.86176 7.86187 1.57081 -8.95193
35 1 9.43443 6.2894 -0.000400829 -8.94955
36 1 11.0066 7.86148 1.57075 -8.94998
165 1 9.43013 6.29036 9.43453 -8.99877
38 1 14.1526 7.86119 1.57012 -8.95144
194 1 14.1582 7.85747 11.0086 -8.97884
40 1 17.2971 7.86192 1.57196 -8.9495
164 1 6.28196 6.28217 9.43453 -8.94229
42 1 20.4416 7.86208 1.57234 -8.94959
163 1 3.14249 6.28855 9.43453 -8.94902
44 1 3.14477 9.43452 -7.7508e-05 -8.94961
162 1 -0.00035662 6.28948 9.43453 -8.9498
161 1 18.8692 3.14474 9.43453 -8.94966
160 1 15.7246 3.14431 9.43453 -8.94921
159 1 12.5796 3.143 9.43453 -8.95131
49 1 18.8691 9.43452 -7.6714e-05 -8.94963
50 1 -1.22443e-05 -1.18008e-16 3.14484 -8.94967
51 1 1.57236 1.57237 4.71724 -8.94967
52 1 3.14473 -6.7885e-16 3.14473 -8.94956
53 1 4.71696 1.57198 4.71695 -8.9498
54 1 6.28967 -9.83038e-16 3.14475 -8.94959
55 1 7.86207 1.57203 4.71699 -8.94952
56 1 9.43453 3.68457e-16 3.14473 -8.94962
57 1 11.0071 1.572 4.71695 -8.94957
58 1 12.5794 1.49413e-15 3.14473 -8.94957
59 1 14.152 1.57202 4.71709 -8.95013
60 1 15.7243 1.39025e-15 3.14476 -8.94976
61 1 17.2967 1.57232 4.71722 -8.94962
62 1 18.8691 -2.60829e-16 3.14483 -8.94963
63 1 20.4415 1.57241 4.71727 -8.94965
64 1 22.0138 3.14478 3.14478 -8.9496
65 1 1.57188 4.71695 4.71695 -8.94964
66 1 3.14442 3.14445 3.14442 -8.94866
67 1 4.71495 4.71501 4.71493 -8.94515
68 1 6.28957 3.14446 3.14451 -8.94978
69 1 7.86174 4.71542 4.71592 -8.94945
70 1 9.43451 3.14439 3.14445 -8.94951
71 1 11.0072 4.71537 4.71585 -8.94818
72 1 12.5794 3.14438 3.1445 -8.94927
73 1 14.1531 4.71458 4.71586 -8.95054
74 1 15.7246 3.14424 3.14447 -8.94962
75 1 17.2971 4.71675 4.71702 -8.94964
76 1 18.8691 3.14474 3.14479 -8.94965
77 1 20.4415 4.71718 4.71723 -8.94975
78 1 4.48551e-05 6.28964 3.14476 -8.94969
79 1 1.57216 7.86214 4.71708 -8.94967
80 1 3.14454 6.28966 3.14458 -8.95014
81 1 4.71602 7.8624 4.71643 -8.95136
82 1 6.28801 6.28812 3.14198 -8.94949
83 1 7.85662 7.85679 4.70806 -8.95171
84 1 9.43424 6.28835 3.14302 -8.94806
85 1 11.0066 7.85836 4.71078 -8.95061
86 1 12.5796 6.28836 3.14316 -8.94897
87 1 14.1626 7.85137 4.70605 -8.93012
88 1 15.7267 6.28715 3.14225 -8.94492
89 1 17.2994 7.86072 4.71587 -8.95009
90 1 18.8697 6.28932 3.14448 -8.94954
91 1 20.4419 7.86194 4.71707 -8.94997
92 1 22.0139 9.4345 3.14473 -8.94959
93 1 3.14449 9.43451 3.14447 -8.94919
94 1 6.28924 9.43516 3.1442 -8.94905
95 1 9.43426 9.43436 3.1427 -8.95137
96 1 12.5811 9.43329 3.13789 -8.95821
97 1 15.7261 9.43384 3.14263 -8.94819
98 1 18.8696 9.43442 3.14446 -8.94938
99 1 22.0139 1.13889e-15 6.28968 -8.94964
100 1 1.57235 1.57236 7.8621 -8.94964
101 1 3.14473 1.38638e-15 6.28965 -8.94954
102 1 4.71693 1.57199 7.86201 -8.94942
103 1 6.2895 3.95327e-16 6.2895 -8.95033
104 1 7.86202 1.57131 7.86202 -8.95122
105 1 9.43457 1.0724e-15 6.28944 -8.95
106 1 11.007 1.57172 7.86196 -8.94963
107 1 12.5795 1.29287e-15 6.28957 -8.95008
108 1 14.1521 1.57196 7.86204 -8.94973
109 1 15.7243 -7.67907e-16 6.28963 -8.94965
110 1 17.2967 1.57234 7.8621 -8.94955
111 1 18.8691 -6.16206e-17 6.28969 -8.94962
112 1 20.4415 1.5724 7.86211 -8.94964
113 1 -6.70416e-05 3.14478 6.28967 -8.94958
114 1 1.57193 4.71696 7.86202 -8.9494
115 1 3.14447 3.14448 6.28953 -8.94952
116 1 4.71549 4.71545 7.86148 -8.94817
117 1 6.28878 3.1427 6.28877 -8.95111
118 1 7.8602 4.7104 7.86103 -8.95849
119 1 9.43468 3.14292 6.2889 -8.94995
120 1 11.0062 4.71451 7.86161 -8.94904
121 1 12.5796 3.14324 6.28944 -8.95162
122 1 14.1529 4.71513 7.86195 -8.94867
123 1 15.7246 3.14426 6.28955 -8.94952
124 1 17.297 4.71695 7.86216 -8.94942
125 1 18.8691 3.14478 6.2897 -8.94963
126 1 20.4415 4.71715 7.86209 -8.94958
127 1 22.0136 6.28954 6.28957 -8.95001
128 1 1.57097 7.86196 7.86195 -8.95138
129 1 3.14245 6.28863 6.28858 -8.95061
130 1 4.70901 7.85961 7.86013 -8.95754
131 1 6.27965 6.27992 6.27992 -8.93069
132 1 7.82355 7.8274 7.83088 -8.85812
133 1 9.43421 6.2825 6.28621 -8.95182
134 1 11.0161 7.85602 7.84345 -8.9666
135 1 12.5831 6.28096 6.28598 -8.9558
136 1 14.1582 7.85747 7.86048 -8.97884
137 1 15.7264 6.28776 6.28888 -8.94942
138 1 17.2981 7.86173 7.86275 -8.95106
139 1 18.8695 6.28948 6.28972 -8.94995
140 1 20.4416 7.86195 7.86214 -8.9499
141 1 -1.68167e-06 9.43452 6.28953 -8.94996
142 1 3.14367 9.43502 6.28918 -8.94964
143 1 6.28618 9.43723 6.28907 -8.95387
144 1 9.41625 9.41004 6.28109 -8.93893
145 1 12.6211 9.39852 6.25413 -8.89732
146 1 15.7343 9.43171 6.28575 -8.95591
147 1 18.871 9.43427 6.28936 -8.95161
148 1 -1.51201e-05 1.54009e-15 9.43453 -8.94964
149 1 3.14472 8.6545e-16 9.43453 -8.94959
150 1 6.28941 1.22537e-15 9.43453 -8.95003
151 1 9.43465 1.5106e-15 9.43453 -8.94936
152 1 12.5795 1.60997e-15 9.43453 -8.95019
153 1 15.7243 -1.38762e-15 9.43453 -8.9496
154 1 18.8691 2.72373e-16 9.43453 -8.94964
155 1 22.0138 3.14477 9.43453 -8.94962
156 1 3.14445 3.14446 9.43453 -8.9496
157 1 6.28855 3.1426 9.43453 -8.94927
158 1 9.43472 3.14338 9.43453 -8.94734
183 1 1.57193 4.71696 11.007 -8.9494
177 1 4.71693 1.57199 11.0071 -8.94942
181 1 17.2967 1.57234 11.007 -8.94955
184 1 4.71549 4.71545 11.0076 -8.94817
3 1 3.14484 -3.4652e-16 -1.24383e-05 -8.94968
11 1 15.7242 1.15441e-15 -1.15744e-05 -8.94963
29 1 22.0139 6.28968 -1.39882e-05 -8.94962
37 1 12.5794 6.28944 -0.000360819 -8.94953
176 1 1.57235 1.57236 11.007 -8.94964
48 1 15.7246 9.43442 22.0134 -8.9495
178 1 7.86202 1.57131 11.007 -8.95122
179 1 11.007 1.57172 11.0071 -8.94963
180 1 14.1521 1.57196 11.007 -8.94973
47 1 12.5794 9.43444 22.0128 -8.95118
343 1 18.8691 9.43452 18.8691 -8.94963
342 1 15.7246 9.43442 18.8695 -8.9495
46 1 9.43438 9.43451 22.0134 -8.9497
185 1 7.8602 4.7104 11.008 -8.95849
186 1 11.0062 4.71451 11.0074 -8.94904
187 1 14.1529 4.71513 11.0071 -8.94867
188 1 17.297 4.71695 11.0069 -8.94942
189 1 20.4415 4.71715 11.007 -8.94958
190 1 1.57097 7.86196 11.0071 -8.95138
191 1 4.70901 7.85961 11.0089 -8.95754
192 1 7.82355 7.8274 11.0382 -8.85812
341 1 12.5794 9.43444 18.8702 -8.95118
340 1 9.43438 9.43451 18.8696 -8.9497
339 1 6.28953 9.43458 18.8693 -8.94948
338 1 3.14477 9.43452 18.8691 -8.94961
197 1 22.0139 1.19499e-15 12.5794 -8.94964
198 1 1.57236 1.57237 14.1518 -8.94967
199 1 3.14473 1.68263e-15 12.5794 -8.94954
200 1 4.71696 1.57198 14.1521 -8.9498
201 1 6.2895 1.29257e-15 12.5796 -8.95033
202 1 7.86207 1.57203 14.1521 -8.94952
203 1 9.43457 1.17591e-15 12.5796 -8.95
204 1 11.0071 1.572 14.1521 -8.94957
205 1 12.5795 1.60804e-15 12.5795 -8.95008
206 1 14.152 1.57202 14.152 -8.95013
207 1 15.7243 1.86099e-16 12.5794 -8.94965
208 1 17.2967 1.57232 14.1518 -8.94962
209 1 18.8691 -6.11571e-17 12.5794 -8.94962
210 1 20.4415 1.57241 14.1518 -8.94965
211 1 -6.70416e-05 3.14478 12.5794 -8.94958
212 1 1.57188 4.71695 14.1521 -8.94964
213 1 3.14447 3.14448 12.5795 -8.94952
214 1 4.71495 4.71501 14.1541 -8.94515
215 1 6.28878 3.1427 12.5803 -8.95111
216 1 7.86174 4.71542 14.1531 -8.94945
217 1 9.43468 3.14292 12.5802 -8.94995
218 1 11.0072 4.71537 14.1532 -8.94818
219 1 12.5796 3.14324 12.5796 -8.95162
220 1 14.1531 4.71458 14.1532 -8.95054
221 1 15.7246 3.14426 12.5795 -8.94952
222 1 17.2971 4.71675 14.152 -8.94964
223 1 18.8691 3.14478 12.5794 -8.94963
224 1 20.4415 4.71718 14.1518 -8.94975
225 1 22.0136 6.28954 12.5795 -8.95001
226 1 1.57216 7.86214 14.152 -8.94967
227 1 3.14245 6.28863 12.5805 -8.95061
228 1 4.71602 7.8624 14.1526 -8.95136
229 1 6.27965 6.27992 12.5891 -8.93069
230 1 7.85662 7.85679 14.161 -8.95171
231 1 9.43421 6.2825 12.5829 -8.95182
232 1 11.0066 7.85836 14.1583 -8.95061
233 1 12.5831 6.28096 12.5831 -8.9558
234 1 14.1626 7.85137 14.163 -8.93012
235 1 15.7264 6.28776 12.5802 -8.94942
236 1 17.2994 7.86072 14.1532 -8.95009
237 1 18.8695 6.28948 12.5793 -8.94995
238 1 20.4419 7.86194 14.152 -8.94997
239 1 -1.68167e-06 9.43452 12.5795 -8.94996
240 1 3.14367 9.43502 12.5799 -8.94964
241 1 6.28618 9.43723 12.58 -8.95387
242 1 9.41625 9.41004 12.588 -8.93893
243 1 12.6211 9.39852 12.6149 -8.89732
244 1 15.7343 9.43171 12.5833 -8.95591
245 1 18.871 9.43427 12.5797 -8.95161
246 1 -1.22443e-05 3.90984e-16 15.7242 -8.94967
247 1 1.57236 1.57238 17.2967 -8.94945
248 1 3.14473 6.5723e-16 15.7243 -8.94956
249 1 4.71724 1.57236 17.2967 -8.94971
250 1 6.28967 -3.52158e-17 15.7243 -8.94959
251 1 7.86209 1.57235 17.2967 -8.94961
252 1 9.43453 1.12745e-15 15.7243 -8.94962
253 1 11.007 1.57235 17.2967 -8.94962
254 1 12.5794 4.41004e-16 15.7243 -8.94957
255 1 14.1518 1.57236 17.2967 -8.94958
256 1 15.7243 1.48316e-15 15.7243 -8.94976
257 1 17.2967 1.57233 17.2967 -8.94959
258 1 18.8691 -1.0552e-15 15.7242 -8.94963
259 1 20.4415 1.5724 17.2967 -8.94962
260 1 22.0138 3.14478 15.7243 -8.9496
261 1 1.57238 4.71724 17.2967 -8.94975
262 1 3.14442 3.14445 15.7246 -8.94866
263 1 4.71686 4.71688 17.2973 -8.94939
264 1 6.28957 3.14446 15.7246 -8.94978
265 1 7.86204 4.71694 17.2971 -8.94932
266 1 9.43451 3.14439 15.7246 -8.94951
267 1 11.007 4.71689 17.2971 -8.94951
268 1 12.5794 3.14438 15.7246 -8.94927
269 1 14.1519 4.71695 17.297 -8.94976
270 1 15.7246 3.14424 15.7246 -8.94962
271 1 17.2971 4.7168 17.2971 -8.94862
272 1 18.8691 3.14474 15.7243 -8.94965
273 1 20.4416 4.7172 17.2967 -8.94958
274 1 4.48551e-05 6.28964 15.7243 -8.94969
275 1 1.57237 7.8621 17.2967 -8.94955
276 1 3.14454 6.28966 15.7245 -8.95014
277 1 4.71712 7.86224 17.2969 -8.94963
278 1 6.28801 6.28812 15.7271 -8.94949
279 1 7.86176 7.86187 17.2982 -8.95193
280 1 9.43424 6.28835 15.726 -8.94806
281 1 11.0066 7.86148 17.2983 -8.94998
282 1 12.5796 6.28836 15.7259 -8.94897
283 1 14.1526 7.86119 17.2989 -8.95144
284 1 15.7267 6.28715 15.7268 -8.94492
285 1 17.2971 7.86192 17.2971 -8.9495
286 1 18.8697 6.28932 15.7246 -8.94954
287 1 20.4416 7.86208 17.2967 -8.94959
288 1 22.0139 9.4345 15.7243 -8.94959
289 1 3.14449 9.43451 15.7246 -8.94919
290 1 6.28924 9.43516 15.7249 -8.94905
291 1 9.43426 9.43436 15.7264 -8.95137
292 1 12.5811 9.43329 15.7312 -8.95821
293 1 15.7261 9.43384 15.7264 -8.94819
294 1 18.8696 9.43442 15.7246 -8.94938
295 1 22.0139 -5.77906e-16 18.8691 -8.94958
296 1 1.5724 1.5724 20.4415 -8.94959
297 1 3.14484 7.04845e-16 18.8691 -8.94968
298 1 4.71726 1.57241 20.4415 -8.94964
299 1 6.28968 4.40269e-16 18.8691 -8.94963
300 1 7.8621 1.5724 20.4415 -8.94964
301 1 9.43453 9.45992e-18 18.8691 -8.94964
302 1 11.007 1.5724 20.4415 -8.94964
303 1 12.5794 1.65248e-15 18.8691 -8.94964
304 1 14.1518 1.57241 20.4415 -8.94963
305 1 15.7242 2.04264e-15 18.8691 -8.94963
306 1 17.2966 1.57241 20.4415 -8.94968
307 1 18.8691 5.24108e-16 18.8691 -8.9496
308 1 20.4415 1.57241 20.4415 -8.94958
309 1 6.71653e-06 3.14483 18.8691 -8.94964
310 1 1.57242 4.71727 20.4415 -8.94967
311 1 3.14477 3.14476 18.8692 -8.94954
312 1 4.71717 4.71718 20.4415 -8.94975
313 1 6.28967 3.14478 18.8691 -8.9496
314 1 7.86207 4.71716 20.4415 -8.94956
315 1 9.43452 3.14476 18.8691 -8.94963
316 1 11.0069 4.71715 20.4415 -8.94962
317 1 12.5794 3.14477 18.8691 -8.94961
318 1 14.1518 4.71718 20.4415 -8.9496
319 1 15.7242 3.14479 18.8691 -8.94972
320 1 17.2968 4.71714 20.4415 -8.94958
321 1 18.8691 3.14477 18.8691 -8.94944
322 1 20.4415 4.71726 20.4415 -8.94966
323 1 22.0139 6.28968 18.8691 -8.94962
324 1 1.5724 7.8621 20.4415 -8.94962
325 1 3.14481 6.2897 18.8691 -8.94968
326 1 4.71721 7.86212 20.4415 -8.94958
327 1 6.2895 6.28952 18.8695 -8.95019
328 1 7.862 7.86203 20.4415 -8.95022
329 1 9.43443 6.2894 18.8695 -8.94955
330 1 11.0068 7.86192 20.4415 -8.94998
331 1 12.5794 6.28944 18.8694 -8.94953
332 1 14.1519 7.86192 20.4415 -8.9504
333 1 15.7245 6.28937 18.8695 -8.94987
334 1 17.2968 7.86206 20.4415 -8.94956
335 1 18.8691 6.28965 18.8691 -8.94966
336 1 20.4415 7.8621 20.4415 -8.94964
337 1 3.49333e-07 9.43453 18.8691 -8.94964
45 1 6.28953 9.43458 22.0137 -8.94948
5 1 6.28968 2.05311e-16 22.0139 -8.94963
9 1 12.5794 1.47642e-15 22.0139 -8.94964
43 1 3.49333e-07 9.43453 22.0139 -8.94964
15 1 6.71653e-06 3.14483 22.0139 -8.94964
17 1 3.14477 3.14476 22.0138 -8.94954
19 1 6.28967 3.14478 22.0138 -8.9496
25 1 15.7242 3.14479 22.0138 -8.94972
41 1 18.8691 6.28965 22.0138 -8.94966
31 1 3.14481 6.2897 22.0139 -8.94968
13 1 18.8691 4.12704e-16 22.0139 -8.9496
23 1 12.5794 3.14477 22.0138 -8.94961
39 1 15.7245 6.28937 22.0134 -8.94987
182 1 20.4415 1.5724 11.007 -8.94964
193 1 11.0161 7.85602 11.0256 -8.9666
344 1 1.57236 11.007 1.57233 -8.94964
345 1 4.71697 11.007 1.572 -8.94966
346 1 7.86179 11.007 1.57202 -8.94858
347 1 11.0067 11.007 1.57099 -8.94785
348 1 14.1529 11.007 1.57004 -8.9496
349 1 17.2971 11.007 1.57193 -8.94954
350 1 20.4416 11.007 1.57234 -8.94962
688 3 10.2694 11.007 9.43453 2.21853
352 1 1.57237 14.1518 1.57235 -8.94955
353 1 3.14477 12.5794 -7.7508e-05 -8.94961
354 1 4.71712 14.1517 1.57219 -8.94963
687 2 11.7083 11.007 9.43453 0.227611
356 1 7.86176 14.152 1.57081 -8.95193
511 1 18.8692 18.8692 9.43453 -8.94966
358 1 11.0066 14.1524 1.57075 -8.94998
510 1 15.7246 18.8696 9.43453 -8.94921
360 1 14.1526 14.1527 1.57012 -8.95144
509 1 12.5796 18.8709 9.43453 -8.95131
362 1 17.2971 14.152 1.57196 -8.9495
363 1 18.8691 12.5794 -7.6714e-05 -8.94963
364 1 20.4416 14.1518 1.57234 -8.94959
508 1 9.43472 18.8705 9.43453 -8.94734
366 1 1.57238 17.2967 1.57236 -8.94975
507 1 6.28855 18.8713 9.43453 -8.94927
368 1 4.71686 17.297 1.57179 -8.94939
369 1 6.2895 15.7244 -0.000427117 -8.95019
370 1 7.86204 17.297 1.57197 -8.94932
371 1 9.43443 15.7245 -0.000400829 -8.94955
372 1 11.007 17.297 1.57196 -8.94951
506 1 3.14445 18.8694 9.43453 -8.9496
374 1 14.1519 17.297 1.57207 -8.94976
526 1 1.57193 17.2969 11.007 -8.9494
376 1 17.2971 17.2971 1.57196 -8.94862
505 1 22.0138 18.8691 9.43453 -8.94962
378 1 20.4416 17.2967 1.57235 -8.94958
504 1 18.8695 15.7246 9.43453 -8.94926
380 1 1.57236 20.4415 1.57236 -8.94945
503 1 15.7252 15.7255 9.43453 -8.94666
382 1 4.71724 20.4415 1.57236 -8.94971
502 1 12.578 15.7322 9.43453 -8.96149
384 1 7.86209 20.4415 1.57234 -8.94961
385 1 9.43452 18.8691 -7.67131e-05 -8.94963
386 1 11.007 20.4416 1.57233 -8.94962
525 1 20.4416 14.1519 11.0069 -8.9499
388 1 14.1518 20.4415 1.57235 -8.94958
501 1 9.43013 15.7235 9.43453 -8.99877
390 1 17.2967 20.4416 1.57234 -8.94959
391 1 18.8691 18.8691 -5.36505e-05 -8.94944
392 1 20.4415 20.4415 1.57241 -8.94962
393 1 1.57205 11.007 4.7169 -8.94956
394 1 4.71593 11.007 4.71583 -8.94701
395 1 7.86302 11.007 4.71813 -8.94639
396 1 11.0106 11.007 4.71682 -9.01189
397 1 14.1597 11.007 4.70863 -8.94479
398 1 17.2993 11.007 4.71579 -8.94859
399 1 20.442 11.007 4.71702 -8.94976
400 1 22.0139 12.5794 3.14473 -8.94959
401 1 1.57216 14.1518 4.71708 -8.94967
402 1 3.14449 12.5794 3.14447 -8.94919
403 1 4.71602 14.1515 4.71643 -8.95136
404 1 6.28924 12.5787 3.1442 -8.94905
405 1 7.85662 14.1571 4.70806 -8.95171
406 1 9.43426 12.5795 3.1427 -8.95137
407 1 11.0066 14.1555 4.71078 -8.95061
408 1 12.5811 12.5806 3.13789 -8.95821
409 1 14.1626 14.1625 4.70605 -8.93012
410 1 15.7261 12.5801 3.14263 -8.94819
411 1 17.2994 14.1532 4.71587 -8.95009
412 1 18.8696 12.5795 3.14446 -8.94938
413 1 20.4419 14.152 4.71707 -8.94997
414 1 4.48551e-05 15.7243 3.14476 -8.94969
415 1 1.57188 17.2969 4.71695 -8.94964
416 1 3.14454 15.7242 3.14458 -8.95014
417 1 4.71495 17.2989 4.71493 -8.94515
418 1 6.28801 15.7258 3.14198 -8.94949
419 1 7.86174 17.2985 4.71592 -8.94945
420 1 9.43424 15.7256 3.14302 -8.94806
421 1 11.0072 17.2985 4.71585 -8.94818
422 1 12.5796 15.7255 3.14316 -8.94897
423 1 14.1531 17.2993 4.71586 -8.95054
424 1 15.7267 15.7268 3.14225 -8.94492
425 1 17.2971 17.2972 4.71702 -8.94964
426 1 18.8697 15.7246 3.14448 -8.94954
427 1 20.4415 17.2967 4.71723 -8.94975
428 1 22.0138 18.8691 3.14478 -8.9496
429 1 1.57236 20.4415 4.71724 -8.94967
430 1 3.14442 18.8695 3.14442 -8.94866
431 1 4.71696 20.4419 4.71695 -8.9498
432 1 6.28957 18.8694 3.14451 -8.94978
433 1 7.86207 20.4419 4.71699 -8.94952
434 1 9.43451 18.8695 3.14445 -8.94951
435 1 11.0071 20.4419 4.71695 -8.94957
436 1 12.5794 18.8695 3.1445 -8.94927
437 1 14.152 20.4419 4.71709 -8.95013
438 1 15.7246 18.8697 3.14447 -8.94962
439 1 17.2967 20.4416 4.71722 -8.94962
440 1 18.8691 18.8692 3.14479 -8.94965
441 1 20.4415 20.4415 4.71727 -8.94965
442 1 1.5719 11.007 7.86178 -8.94839
443 1 4.71771 11.007 7.86185 -8.9401
444 1 7.88061 11.007 7.87058 -8.96249
445 1 11.0761 11.007 7.59427 -8.31724
446 1 14.1689 11.007 7.84946 -9.01484
447 1 17.3005 11.007 7.86241 -8.95356
448 1 20.4421 11.007 7.86218 -8.95019
449 1 -1.68167e-06 12.5794 6.28953 -8.94996
450 1 1.57097 14.1519 7.86195 -8.95138
451 1 3.14367 12.5789 6.28918 -8.94964
452 1 4.70901 14.1543 7.86013 -8.95754
453 1 6.28618 12.5767 6.28907 -8.95387
454 1 7.82355 14.1865 7.83088 -8.85812
455 1 9.41625 12.6039 6.28109 -8.93893
456 1 11.0161 14.1579 7.84345 -8.9666
457 1 12.6211 12.6154 6.25413 -8.89732
458 1 14.1582 14.1564 7.86048 -8.97884
459 1 15.7343 12.5822 6.28575 -8.95591
460 1 17.2981 14.1522 7.86275 -8.95106
461 1 18.871 12.5796 6.28936 -8.95161
462 1 20.4416 14.1519 7.86214 -8.9499
463 1 22.0136 15.7244 6.28957 -8.95001
464 1 1.57193 17.2969 7.86202 -8.9494
465 1 3.14245 15.7253 6.28858 -8.95061
466 1 4.71549 17.2985 7.86148 -8.94817
467 1 6.27965 15.734 6.27992 -8.93069
468 1 7.8602 17.3035 7.86103 -8.95849
469 1 9.43421 15.7314 6.28621 -8.95182
470 1 11.0062 17.2994 7.86161 -8.94904
471 1 12.5831 15.7329 6.28598 -8.9558
472 1 14.1529 17.2988 7.86195 -8.94867
473 1 15.7264 15.7261 6.28888 -8.94942
474 1 17.297 17.297 7.86216 -8.94942
475 1 18.8695 15.7244 6.28972 -8.94995
476 1 20.4415 17.2968 7.86209 -8.94958
477 1 -6.70416e-05 18.8691 6.28967 -8.94958
478 1 1.57235 20.4415 7.8621 -8.94964
479 1 3.14447 18.8694 6.28953 -8.94952
480 1 4.71693 20.4419 7.86201 -8.94942
481 1 6.28878 18.8712 6.28877 -8.95111
482 1 7.86202 20.4426 7.86202 -8.95122
483 1 9.43468 18.871 6.2889 -8.94995
484 1 11.007 20.4422 7.86196 -8.94963
485 1 12.5796 18.8707 6.28944 -8.95162
486 1 14.1521 20.4419 7.86204 -8.94973
487 1 15.7246 18.8696 6.28955 -8.94952
488 1 17.2967 20.4416 7.8621 -8.94955
489 1 18.8691 18.8691 6.2897 -8.94963
490 1 20.4415 20.4415 7.86211 -8.94964
491 1 22.0135 12.5793 9.43453 -8.94979
492 1 3.14231 12.5789 9.43453 -8.95163
493 1 6.27949 12.585 9.43453 -8.97405
494 1 9.34793 12.7928 9.43453 -8.17703
495 1 12.5917 12.62 9.43453 -9.13588
496 1 15.7219 12.578 9.43453 -8.98972
497 1 18.8697 12.5797 9.43453 -8.94727
498 1 -0.00035662 15.7244 9.43453 -8.9498
499 1 3.14249 15.7254 9.43453 -8.94902
500 1 6.28196 15.7317 9.43453 -8.94229
517 1 17.3005 11.007 11.0067 -8.95356
518 1 20.4421 11.007 11.0069 -8.95019
524 1 17.2981 14.1522 11.0063 -8.95106
523 1 14.1582 14.1564 11.0086 -8.97884
527 1 4.71549 17.2985 11.0076 -8.94817
534 1 4.71693 20.4419 11.0071 -8.94942
538 1 17.2967 20.4416 11.007 -8.94955
365 1 22.0139 15.7242 -1.39882e-05 -8.94962
373 1 12.5794 15.7245 -0.000360819 -8.94953
512 1 1.5719 11.007 11.0073 -8.94839
513 1 4.71771 11.007 11.0072 -8.9401
514 1 7.88061 11.007 10.9985 -8.96249
515 1 11.0761 11.007 11.2748 -8.31724
516 1 14.1689 11.007 11.0196 -9.01484
686 1 20.4415 20.4415 20.4415 -8.94958
685 1 18.8691 18.8691 18.8691 -8.94944
519 1 1.57097 14.1519 11.0071 -8.95138
520 1 4.70901 14.1543 11.0089 -8.95754
521 1 7.82355 14.1865 11.0382 -8.85812
684 1 17.2966 20.4415 20.4415 -8.94968
683 1 15.7242 18.8691 18.8691 -8.94972
682 1 14.1518 20.4415 20.4415 -8.94963
681 1 12.5794 18.8691 18.8691 -8.94961
680 1 11.007 20.4415 20.4415 -8.94964
389 1 15.7242 18.8691 22.0138 -8.94972
528 1 7.8602 17.3035 11.008 -8.95849
529 1 11.0062 17.2994 11.0074 -8.94904
530 1 14.1529 17.2988 11.0071 -8.94867
531 1 17.297 17.297 11.0069 -8.94942
532 1 20.4415 17.2968 11.007 -8.94958
533 1 1.57235 20.4415 11.007 -8.94964
383 1 6.28967 18.8691 22.0138 -8.9496
535 1 7.86202 20.4426 11.007 -8.95122
536 1 11.007 20.4422 11.0071 -8.94963
537 1 14.1521 20.4419 11.007 -8.94973
381 1 3.14477 18.8691 22.0138 -8.94954
679 1 9.43452 18.8691 18.8691 -8.94963
540 1 1.57205 11.007 14.1522 -8.94956
541 1 4.71593 11.007 14.1532 -8.94701
542 1 7.86302 11.007 14.1509 -8.94639
543 1 11.0106 11.007 14.1522 -9.01189
544 1 14.1597 11.007 14.1604 -8.94479
545 1 17.2993 11.007 14.1533 -8.94859
546 1 20.442 11.007 14.152 -8.94976
547 1 -1.68167e-06 12.5794 12.5795 -8.94996
548 1 1.57216 14.1518 14.152 -8.94967
549 1 3.14367 12.5789 12.5799 -8.94964
550 1 4.71602 14.1515 14.1526 -8.95136
551 1 6.28618 12.5767 12.58 -8.95387
552 1 7.85662 14.1571 14.161 -8.95171
553 1 9.41625 12.6039 12.588 -8.93893
554 1 11.0066 14.1555 14.1583 -8.95061
555 1 12.6211 12.6154 12.6149 -8.89732
556 1 14.1626 14.1625 14.163 -8.93012
557 1 15.7343 12.5822 12.5833 -8.95591
558 1 17.2994 14.1532 14.1532 -8.95009
559 1 18.871 12.5796 12.5797 -8.95161
560 1 20.4419 14.152 14.152 -8.94997
561 1 22.0136 15.7244 12.5795 -8.95001
562 1 1.57188 17.2969 14.1521 -8.94964
563 1 3.14245 15.7253 12.5805 -8.95061
564 1 4.71495 17.2989 14.1541 -8.94515
565 1 6.27965 15.734 12.5891 -8.93069
566 1 7.86174 17.2985 14.1531 -8.94945
567 1 9.43421 15.7314 12.5829 -8.95182
568 1 11.0072 17.2985 14.1532 -8.94818
569 1 12.5831 15.7329 12.5831 -8.9558
570 1 14.1531 17.2993 14.1532 -8.95054
571 1 15.7264 15.7261 12.5802 -8.94942
572 1 17.2971 17.2972 14.152 -8.94964
573 1 18.8695 15.7244 12.5793 -8.94995
574 1 20.4415 17.2967 14.1518 -8.94975
575 1 -6.70416e-05 18.8691 12.5794 -8.94958
576 1 1.57236 20.4415 14.1518 -8.94967
577 1 3.14447 18.8694 12.5795 -8.94952
578 1 4.71696 20.4419 14.1521 -8.9498
579 1 6.28878 18.8712 12.5803 -8.95111
580 1 7.86207 20.4419 14.1521 -8.94952
581 1 9.43468 18.871 12.5802 -8.94995
582 1 11.0071 20.4419 14.1521 -8.94957
583 1 12.5796 18.8707 12.5796 -8.95162
584 1 14.152 20.4419 14.152 -8.95013
585 1 15.7246 18.8696 12.5795 -8.94952
586 1 17.2967 20.4416 14.1518 -8.94962
587 1 18.8691 18.8691 12.5794 -8.94963
588 1 20.4415 20.4415 14.1518 -8.94965
589 1 1.57236 11.007 17.2967 -8.94964
590 1 4.71697 11.007 17.2971 -8.94966
591 1 7.86179 11.007 17.297 -8.94858
592 1 11.0067 11.007 17.2981 -8.94785
593 1 14.1529 11.007 17.299 -8.9496
594 1 17.2971 11.007 17.2971 -8.94954
595 1 20.4416 11.007 17.2967 -8.94962
596 1 22.0139 12.5794 15.7243 -8.94959
597 1 1.57237 14.1518 17.2967 -8.94955
598 1 3.14449 12.5794 15.7246 -8.94919
599 1 4.71712 14.1517 17.2969 -8.94963
600 1 6.28924 12.5787 15.7249 -8.94905
601 1 7.86176 14.152 17.2982 -8.95193
602 1 9.43426 12.5795 15.7264 -8.95137
603 1 11.0066 14.1524 17.2983 -8.94998
604 1 12.5811 12.5806 15.7312 -8.95821
605 1 14.1526 14.1527 17.2989 -8.95144
606 1 15.7261 12.5801 15.7264 -8.94819
607 1 17.2971 14.152 17.2971 -8.9495
608 1 18.8696 12.5795 15.7246 -8.94938
609 1 20.4416 14.1518 17.2967 -8.94959
610 1 4.48551e-05 15.7243 15.7243 -8.94969
611 1 1.57238 17.2967 17.2967 -8.94975
612 1 3.14454 15.7242 15.7245 -8.95014
613 1 4.71686 17.297 17.2973 -8.94939
614 1 6.28801 15.7258 15.7271 -8.94949
615 1 7.86204 17.297 17.2971 -8.94932
616 1 9.43424 15.7256 15.726 -8.94806
617 1 11.007 17.297 17.2971 -8.94951
618 1 12.5796 15.7255 15.7259 -8.94897
619 1 14.1519 17.297 17.297 -8.94976
620 1 15.7267 15.7268 15.7268 -8.94492
621 1 17.2971 17.2971 17.2971 -8.94862
622 1 18.8697 15.7246 15.7246 -8.94954
623 1 20.4416 17.2967 17.2967 -8.94958
624 1 22.0138 18.8691 15.7243 -8.9496
625 1 1.57236 20.4415 17.2967 -8.94945
626 1 3.14442 18.8695 15.7246 -8.94866
627 1 4.71724 20.4415 17.2967 -8.94971
628 1 6.28957 18.8694 15.7246 -8.94978
629 1 7.86209 20.4415 17.2967 -8.94961
630 1 9.43451 18.8695 15.7246 -8.94951
631 1 11.007 20.4416 17.2967 -8.94962
632 1 12.5794 18.8695 15.7246 -8.94927
633 1 14.1518 20.4415 17.2967 -8.94958
634 1 15.7246 18.8697 15.7246 -8.94962
635 1 17.2967 20.4416 17.2967 -8.94959
636 1 18.8691 18.8692 15.7243 -8.94965
637 1 20.4415 20.4415 17.2967 -8.94962
638 1 1.5724 11.007 20.4415 -8.94964
639 1 4.71718 11.007 20.4415 -8.94969
640 1 7.86197 11.007 20.4415 -8.94948
641 1 11.0068 11.007 20.4415 -8.94941
642 1 14.152 11.007 20.4415 -8.95011
643 1 17.2968 11.007 20.4415 -8.9496
644 1 20.4415 11.007 20.4415 -8.94964
645 1 3.49333e-07 12.5794 18.8691 -8.94964
646 1 1.5724 14.1518 20.4415 -8.94962
647 1 3.14477 12.5794 18.8691 -8.94961
648 1 4.71721 14.1518 20.4415 -8.94958
649 1 6.28953 12.5793 18.8693 -8.94948
650 1 7.862 14.1519 20.4415 -8.95022
651 1 9.43438 12.5794 18.8696 -8.9497
652 1 11.0068 14.152 20.4415 -8.94998
653 1 12.5794 12.5795 18.8702 -8.95118
654 1 14.1519 14.152 20.4415 -8.9504
655 1 15.7246 12.5795 18.8695 -8.9495
656 1 17.2968 14.1518 20.4415 -8.94956
657 1 18.8691 12.5794 18.8691 -8.94963
658 1 20.4415 14.1518 20.4415 -8.94964
659 1 22.0139 15.7242 18.8691 -8.94962
660 1 1.57242 17.2966 20.4415 -8.94967
661 1 3.14481 15.7242 18.8691 -8.94968
662 1 4.71717 17.2967 20.4415 -8.94975
663 1 6.2895 15.7244 18.8695 -8.95019
664 1 7.86207 17.2967 20.4415 -8.94956
665 1 9.43443 15.7245 18.8695 -8.94955
666 1 11.0069 17.2967 20.4415 -8.94962
667 1 12.5794 15.7245 18.8694 -8.94953
668 1 14.1518 17.2967 20.4415 -8.9496
669 1 15.7245 15.7245 18.8695 -8.94987
670 1 17.2968 17.2968 20.4415 -8.94958
671 1 18.8691 15.7243 18.8691 -8.94966
672 1 20.4415 17.2966 20.4415 -8.94966
673 1 6.71653e-06 18.8691 18.8691 -8.94964
674 1 1.5724 20.4415 20.4415 -8.94959
675 1 3.14477 18.8691 18.8692 -8.94954
676 1 4.71726 20.4415 20.4415 -8.94964
677 1 6.28967 18.8691 18.8691 -8.9496
678 1 7.8621 20.4415 20.4415 -8.94964
351 1 3.49333e-07 12.5794 22.0139 -8.94964
355 1 6.28953 12.5793 22.0137 -8.94948
357 1 9.43438 12.5794 22.0134 -8.9497
359 1 12.5794 12.5795 22.0128 -8.95118
361 1 15.7246 12.5795 22.0134 -8.9495
379 1 6.71653e-06 18.8691 22.0139 -8.94964
367 1 3.14481 15.7242 22.0139 -8.94968
377 1 18.8691 15.7243 22.0138 -8.94966
375 1 15.7245 15.7245 22.0134 -8.94987
539 1 20.4415 20.4415 11.007 -8.94964
387 1 12.5794 18.8691 22.0138 -8.94961
522 1 11.0161 14.1579 11.0256 -8.9666
