ITEM: TIMESTEP
92
ITEM: NUMBER OF ATOMS
688
ITEM: BOX BOUNDS pp pp pp
0.0000000000000000e+00 2.2013900999999997e+01
0.0000000000000000e+00 2.2013900999999997e+01
0.0000000000000000e+00 2.2013900999999997e+01
ITEM: ATOMS id type x y z c_pot
1 1 22.0138 2.54107e-16 -0.000201081 -8.94924
2 1 1.57184 1.57207 1.57183 -8.94918
175 1 18.8694 9.43414 9.43453 -8.94608
4 1 4.71671 1.57192 1.57165 -8.94961
174 1 15.7187 9.43758 9.43453 -8.98588
6 1 7.86188 1.5719 1.57166 -8.94946
7 1 9.43448 5.72882e-16 -0.000347442 -8.94954
8 1 11.007 1.57188 1.57169 -8.94949
173 1 12.5907 9.39986 9.43453 -9.123
10 1 14.1521 1.57184 1.57179 -8.94947
172 1 9.35201 9.22348 9.43453 -8.19424
12 1 17.2973 1.57179 1.57181 -8.94954
196 1 20.4416 7.86172 11.0069 -8.94984
14 1 20.4416 1.57212 1.57211 -8.94953
171 1 6.28092 9.42733 9.43453 -8.97365
16 1 1.57197 4.71687 1.57173 -8.94984
170 1 3.1422 9.43476 9.43453 -8.95122
18 1 4.71574 4.71589 1.5704 -8.94922
169 1 22.0134 9.43452 9.43453 -8.94923
20 1 7.86146 4.71593 1.57076 -8.94912
21 1 9.43438 3.14414 -0.000540649 -8.9495
22 1 11.007 4.71578 1.57081 -8.94933
195 1 17.2983 7.86167 11.006 -8.95138
24 1 14.1527 4.71555 1.57073 -8.94958
168 1 18.8698 6.28869 9.43453 -8.94925
26 1 17.2985 4.71539 1.57078 -8.94802
27 1 18.8697 3.14416 -0.000414173 -8.9491
28 1 20.4421 4.71664 1.57183 -8.94951
167 1 15.7253 6.28805 9.43453 -8.94613
30 1 1.5722 7.862 1.57184 -8.94941
166 1 12.5773 6.28286 9.43453 -8.95974
32 1 4.71657 7.8622 1.57148 -8.9496
33 1 6.28893 6.28912 -0.00118162 -8.95069
34 1 7.86126 7.86139 1.56965 -8.95256
35 1 9.43409 6.28873 -0.00112458 -8.9496
36 1 11.0067 7.86062 1.56916 -8.95042
165 1 9.42907 6.29299 9.43453 -8.99843
38 1 14.1541 7.85989 1.56779 -8.95183
194 1 14.1579 7.85797 11.009 -8.9774
40 1 17.2987 7.86094 1.57052 -8.94913
164 1 6.2783 6.27909 9.43453 -8.94144
42 1 20.4423 7.86172 1.57172 -8.94944
163 1 3.13989 6.28696 9.43453 -8.94905
44 1 3.14446 9.43452 -0.000377428 -8.94954
162 1 -0.00119108 6.28888 9.43453 -8.94996
161 1 18.8694 3.14419 9.43453 -8.94957
160 1 15.7251 3.14364 9.43453 -8.94905
159 1 12.5794 3.14289 9.43453 -8.95102
49 1 18.8701 9.43429 -0.000595298 -8.94945
50 1 -0.000311945 9.88027e-17 3.14453 -8.94954
51 1 1.57164 1.57196 4.71672 -8.94947
52 1 3.14401 5.32722e-16 3.14401 -8.94952
53 1 4.71603 1.57117 4.71606 -8.94998
54 1 6.28923 5.77828e-16 3.14396 -8.94958
55 1 7.86171 1.57114 4.71617 -8.94971
56 1 9.43452 1.18154e-15 3.14397 -8.94956
57 1 11.0072 1.57125 4.71628 -8.94968
58 1 12.5797 9.98024e-16 3.14411 -8.94954
59 1 14.1524 1.57124 4.7167 -8.9507
60 1 15.7248 1.03875e-15 3.1443 -8.9501
61 1 17.2972 1.57187 4.717 -8.94966
62 1 18.8693 1.09087e-16 3.14459 -8.94964
63 1 20.4414 1.57215 4.71707 -8.94954
64 1 22.0135 3.1443 3.14429 -8.94957
65 1 1.57071 4.71616 4.7161 -8.94968
66 1 3.14323 3.14348 3.14325 -8.94828
67 1 4.71265 4.71297 4.71293 -8.9448
68 1 6.28866 3.14316 3.1432 -8.94967
69 1 7.86024 4.71289 4.71416 -8.94948
70 1 9.43432 3.14319 3.14336 -8.94937
71 1 11.0074 4.71327 4.71428 -8.94794
72 1 12.5799 3.14309 3.14351 -8.94911
73 1 14.1549 4.71193 4.71412 -8.95072
74 1 15.7256 3.14274 3.14345 -8.94967
75 1 17.2984 4.71549 4.71642 -8.94996
76 1 18.8697 3.14404 3.14435 -8.94972
77 1 20.4416 4.71663 4.71691 -8.94995
78 1 0.000137179 6.28929 3.14421 -8.94988
79 1 1.57161 7.86204 4.71658 -8.94997
80 1 3.14344 6.28915 3.14351 -8.95045
81 1 4.71427 7.86165 4.71536 -8.95193
82 1 6.28595 6.2862 3.13956 -8.94903
83 1 7.85367 7.85324 4.70531 -8.94962
84 1 9.43363 6.28653 3.14108 -8.94759
85 1 11.0077 7.8555 4.70729 -8.9496
86 1 12.5808 6.28619 3.14064 -8.94859
87 1 14.167 7.84776 4.7018 -8.92792
88 1 15.7295 6.28447 3.13963 -8.94389
89 1 17.3023 7.85918 4.71424 -8.95025
90 1 18.8712 6.28826 3.1435 -8.94952
91 1 20.4428 7.86153 4.71655 -8.9503
92 1 22.0142 9.43438 3.14409 -8.94956
93 1 3.14394 9.43451 3.14382 -8.94899
94 1 6.28874 9.435 3.14373 -8.94866
95 1 9.43438 9.43357 3.14184 -8.95225
96 1 12.5832 9.43227 3.13487 -8.95907
97 1 15.7293 9.43266 3.13972 -8.94757
98 1 18.8714 9.43397 3.14332 -8.94926
99 1 22.0135 4.39297e-16 6.28948 -8.94952
100 1 1.57155 1.57191 7.86189 -8.94948
101 1 3.14383 1.12564e-15 6.28914 -8.94938
102 1 4.71576 1.57105 7.8616 -8.94938
103 1 6.28896 5.49019e-15 6.28902 -8.95063
104 1 7.86161 1.57063 7.8619 -8.95139
105 1 9.43456 3.71066e-15 6.28905 -8.95027
106 1 11.0068 1.5715 7.86203 -8.94935
107 1 12.5796 1.79374e-15 6.28949 -8.95035
108 1 14.1524 1.57156 7.86206 -8.94967
109 1 15.7248 -7.88854e-16 6.28953 -8.94964
110 1 17.2972 1.57198 7.86206 -8.94944
111 1 18.8693 4.28415e-16 6.28958 -8.9495
112 1 20.4414 1.57212 7.86203 -8.94955
113 1 -0.000604847 3.14422 6.28935 -8.94944
114 1 1.57048 4.71598 7.86164 -8.94928
115 1 3.14301 3.14327 6.2887 -8.94918
116 1 4.71283 4.71311 7.86059 -8.94763
117 1 6.28747 3.14086 6.28785 -8.95147
118 1 7.85836 4.70876 7.86078 -8.9592
119 1 9.43426 3.14147 6.28824 -8.95055
120 1 11.0053 4.71458 7.86137 -8.94932
121 1 12.5797 3.14206 6.28918 -8.95243
122 1 14.1531 4.71445 7.86195 -8.94822
123 1 15.7252 3.14334 6.28943 -8.94953
124 1 17.2976 4.71621 7.86218 -8.94916
125 1 18.8694 3.14425 6.28959 -8.94949
126 1 20.4414 4.71654 7.86199 -8.94953
127 1 22.013 6.28908 6.28926 -8.95024
128 1 1.56983 7.86161 7.8618 -8.95172
129 1 3.14021 6.28738 6.28751 -8.95078
130 1 4.7067 7.85787 7.85971 -8.95778
131 1 6.27645 6.27698 6.278 -8.93108
132 1 7.82206 7.82549 7.83135 -8.86064
133 1 9.43279 6.27955 6.2843 -8.95272
134 1 11.0177 7.85624 7.83979 -8.96754
135 1 12.585 6.27809 6.28331 -8.95604
136 1 14.1579 7.85797 7.86003 -8.9774
137 1 15.7279 6.28639 6.28827 -8.95022
138 1 17.2983 7.86167 7.86308 -8.95138
139 1 18.8702 6.28895 6.28968 -8.95026
140 1 20.4416 7.86172 7.86218 -8.94984
141 1 0.000146392 9.43452 6.28931 -8.95009
142 1 3.14308 9.43511 6.28906 -8.95003
143 1 6.28511 9.4363 6.28897 -8.95511
144 1 9.41291 9.40448 6.27679 -8.93385
145 1 12.626 9.39515 6.24763 -8.89137
146 1 15.7377 9.43056 6.28321 -8.95649
147 1 18.8725 9.43402 6.28894 -8.9523
148 1 -0.000390899 7.59726e-16 9.43453 -8.94954
149 1 3.14376 1.18185e-15 9.43453 -8.94946
150 1 6.28863 6.17762e-15 9.43453 -8.95036
151 1 9.43455 3.70951e-14 9.43453 -8.94841
152 1 12.5797 -2.47193e-15 9.43453 -8.94992
153 1 15.7248 -5.14641e-16 9.43453 -8.94953
154 1 18.8693 6.57369e-16 9.43453 -8.94956
155 1 22.0133 3.14417 9.43453 -8.94951
156 1 3.14289 3.14321 9.43453 -8.94945
157 1 6.28677 3.14062 9.43453 -8.9495
158 1 9.43401 3.14365 9.43453 -8.94612
183 1 1.57048 4.71598 11.0074 -8.94928
177 1 4.71576 1.57105 11.0075 -8.94938
181 1 17.2972 1.57198 11.007 -8.94944
184 1 4.71283 4.71311 11.0085 -8.94763
3 1 3.1445 5.23788e-17 -0.000323544 -8.94958
11 1 15.7245 1.02978e-15 -0.000281065 -8.94955
29 1 22.0141 6.28948 -0.000284493 -8.9495
37 1 12.5795 6.2886 -0.00125622 -8.94964
176 1 1.57155 1.57191 11.0072 -8.94948
48 1 15.7258 9.43398 22.0123 -8.9495
178 1 7.86161 1.57063 11.0072 -8.95139
179 1 11.0068 1.5715 11.007 -8.94935
180 1 14.1524 1.57156 11.007 -8.94967
47 1 12.5797 9.43423 22.0119 -8.95162
343 1 18.8701 9.43429 18.8697 -8.94945
342 1 15.7258 9.43398 18.8706 -8.9495
46 1 9.43424 9.43452 22.0131 -8.94963
185 1 7.85836 4.70876 11.0083 -8.9592
186 1 11.0053 4.71458 11.0077 -8.94932
187 1 14.1531 4.71445 11.0071 -8.94822
188 1 17.2976 4.71621 11.0069 -8.94916
189 1 20.4414 4.71654 11.0071 -8.94953
190 1 1.56983 7.86161 11.0073 -8.95172
191 1 4.7067 7.85787 11.0094 -8.95778
192 1 7.82206 7.82549 11.0377 -8.86064
341 1 12.5797 9.43423 18.8711 -8.95162
340 1 9.43424 9.43452 18.8699 -8.94963
339 1 6.28918 9.43463 18.8695 -8.94933
338 1 3.14446 9.43452 18.8694 -8.94954
197 1 22.0135 7.75348e-16 12.5796 -8.94952
198 1 1.57164 1.57196 14.1523 -8.94947
199 1 3.14383 1.52204e-15 12.5799 -8.94938
200 1 4.71603 1.57117 14.153 -8.94998
201 1 6.28896 6.35397e-15 12.58 -8.95063
202 1 7.86171 1.57114 14.1529 -8.94971
203 1 9.43456 4.77535e-15 12.58 -8.95027
204 1 11.0072 1.57125 14.1528 -8.94968
205 1 12.5796 1.83086e-15 12.5796 -8.95035
206 1 14.1524 1.57124 14.1524 -8.9507
207 1 15.7248 -4.85999e-16 12.5795 -8.94964
208 1 17.2972 1.57187 14.1521 -8.94966
209 1 18.8693 5.1917e-16 12.5795 -8.9495
210 1 20.4414 1.57215 14.152 -8.94954
211 1 -0.000604847 3.14422 12.5797 -8.94944
212 1 1.57071 4.71616 14.153 -8.94968
213 1 3.14301 3.14327 12.5804 -8.94918
214 1 4.71265 4.71297 14.1561 -8.9448
215 1 6.28747 3.14086 12.5812 -8.95147
216 1 7.86024 4.71289 14.1549 -8.94948
217 1 9.43426 3.14147 12.5808 -8.95055
218 1 11.0074 4.71327 14.1548 -8.94794
219 1 12.5797 3.14206 12.5799 -8.95243
220 1 14.1549 4.71193 14.1549 -8.95072
221 1 15.7252 3.14334 12.5796 -8.94953
222 1 17.2984 4.71549 14.1526 -8.94996
223 1 18.8694 3.14425 12.5795 -8.94949
224 1 20.4416 4.71663 14.1521 -8.94995
225 1 22.013 6.28908 12.5798 -8.95024
226 1 1.57161 7.86204 14.1525 -8.94997
227 1 3.14021 6.28738 12.5815 -8.95078
228 1 4.71427 7.86165 14.1537 -8.95193
229 1 6.27645 6.27698 12.5911 -8.93108
230 1 7.85367 7.85324 14.1637 -8.94962
231 1 9.43279 6.27955 12.5848 -8.95272
232 1 11.0077 7.8555 14.1618 -8.9496
233 1 12.585 6.27809 12.5857 -8.95604
234 1 14.167 7.84776 14.1673 -8.92792
235 1 15.7279 6.28639 12.5808 -8.95022
236 1 17.3023 7.85918 14.1548 -8.95025
237 1 18.8702 6.28895 12.5794 -8.95026
238 1 20.4428 7.86153 14.1525 -8.9503
239 1 0.000146392 9.43452 12.5797 -8.95009
240 1 3.14308 9.43511 12.58 -8.95003
241 1 6.28511 9.4363 12.5801 -8.95511
242 1 9.41291 9.40448 12.5923 -8.93385
243 1 12.626 9.39515 12.6214 -8.89137
244 1 15.7377 9.43056 12.5858 -8.95649
245 1 18.8725 9.43402 12.5801 -8.9523
246 1 -0.000311945 1.43958e-15 15.7245 -8.94954
247 1 1.57184 1.57207 17.2972 -8.94918
248 1 3.14401 1.95601e-15 15.7251 -8.94952
249 1 4.71671 1.57192 17.2974 -8.94961
250 1 6.28923 1.46611e-15 15.7251 -8.94958
251 1 7.86188 1.5719 17.2974 -8.94946
252 1 9.43452 1.80203e-15 15.7251 -8.94956
253 1 11.007 1.57188 17.2974 -8.94949
254 1 12.5797 1.49349e-15 15.725 -8.94954
255 1 14.1521 1.57184 17.2973 -8.94947
256 1 15.7248 9.51691e-16 15.7248 -8.9501
257 1 17.2973 1.57179 17.2972 -8.94954
258 1 18.8693 -1.50533e-16 15.7245 -8.94964
259 1 20.4416 1.57212 17.2969 -8.94953
260 1 22.0135 3.1443 15.7248 -8.94957
261 1 1.57197 4.71687 17.2973 -8.94984
262 1 3.14323 3.14348 15.7258 -8.94828
263 1 4.71574 4.71589 17.2987 -8.94922
264 1 6.28866 3.14316 15.7259 -8.94967
265 1 7.86146 4.71593 17.2983 -8.94912
266 1 9.43432 3.14319 15.7257 -8.94937
267 1 11.007 4.71578 17.2982 -8.94933
268 1 12.5799 3.14309 15.7255 -8.94911
269 1 14.1527 4.71555 17.2983 -8.94958
270 1 15.7256 3.14274 15.7256 -8.94967
271 1 17.2985 4.71539 17.2983 -8.94802
272 1 18.8697 3.14404 15.7247 -8.94972
273 1 20.4421 4.71664 17.2972 -8.94951
274 1 0.000137179 6.28929 15.7248 -8.94988
275 1 1.5722 7.862 17.2972 -8.94941
276 1 3.14344 6.28915 15.7255 -8.95045
277 1 4.71657 7.8622 17.2976 -8.9496
278 1 6.28595 6.2862 15.7295 -8.94903
279 1 7.86126 7.86139 17.2994 -8.95256
280 1 9.43363 6.28653 15.728 -8.94759
281 1 11.0067 7.86062 17.2999 -8.95042
282 1 12.5808 6.28619 15.7284 -8.94859
283 1 14.1541 7.85989 17.3013 -8.95183
284 1 15.7295 6.28447 15.7294 -8.94389
285 1 17.2987 7.86094 17.2985 -8.94913
286 1 18.8712 6.28826 15.7256 -8.94952
287 1 20.4423 7.86172 17.2973 -8.94944
288 1 22.0142 9.43438 15.725 -8.94956
289 1 3.14394 9.43451 15.7252 -8.94899
290 1 6.28874 9.435 15.7253 -8.94866
291 1 9.43438 9.43357 15.7272 -8.95225
292 1 12.5832 9.43227 15.7342 -8.95907
293 1 15.7293 9.43266 15.7293 -8.94757
294 1 18.8714 9.43397 15.7257 -8.94926
295 1 22.0138 6.08395e-16 18.8693 -8.94924
296 1 1.57214 1.57216 20.4415 -8.94934
297 1 3.1445 1.52008e-15 18.8694 -8.94958
298 1 4.71699 1.57216 20.4415 -8.94955
299 1 6.28947 1.35608e-15 18.8694 -8.94951
300 1 7.86195 1.57212 20.4415 -8.94953
301 1 9.43448 6.56949e-16 18.8694 -8.94954
302 1 11.007 1.57209 20.4415 -8.94954
303 1 12.5795 6.27121e-16 18.8694 -8.94952
304 1 14.152 1.57209 20.4415 -8.94951
305 1 15.7245 9.10457e-16 18.8693 -8.94955
306 1 17.297 1.57208 20.4415 -8.94961
307 1 18.8694 2.72272e-16 18.8693 -8.94941
308 1 20.4417 1.5722 20.4415 -8.94923
309 1 2.00607e-05 3.14455 18.8693 -8.94955
310 1 1.57228 4.71711 20.4415 -8.9497
311 1 3.14422 3.14427 18.8697 -8.94941
312 1 4.71665 4.71675 20.4415 -8.95002
313 1 6.28929 3.14424 18.8696 -8.94949
314 1 7.86171 4.71657 20.4415 -8.94951
315 1 9.43438 3.14414 18.8696 -8.9495
316 1 11.0069 4.71643 20.4415 -8.94953
317 1 12.5795 3.1441 18.8696 -8.94945
318 1 14.1521 4.71639 20.4415 -8.94957
319 1 15.7247 3.14405 18.8696 -8.94962
320 1 17.2975 4.71632 20.4415 -8.94953
321 1 18.8697 3.14416 18.8695 -8.9491
322 1 20.4419 4.71692 20.4415 -8.94952
323 1 22.0141 6.28948 18.8693 -8.9495
324 1 1.57231 7.86203 20.4415 -8.94953
325 1 3.14447 6.28961 18.8695 -8.94972
326 1 4.71685 7.86215 20.4415 -8.94952
327 1 6.28893 6.28912 18.8702 -8.95069
328 1 7.86171 7.86196 20.4415 -8.9505
329 1 9.43409 6.28873 18.8702 -8.9496
330 1 11.0066 7.86153 20.4415 -8.95023
331 1 12.5795 6.2886 18.8703 -8.94964
332 1 14.1524 7.86136 20.4415 -8.95083
333 1 15.7255 6.28831 18.8705 -8.95008
334 1 17.2977 7.86151 20.4415 -8.94942
335 1 18.87 6.28906 18.8696 -8.94945
336 1 20.442 7.86188 20.4415 -8.94951
337 1 0.000196258 9.43445 18.8694 -8.94954
45 1 6.28918 9.43463 22.0134 -8.94933
5 1 6.28947 6.45207e-16 22.0136 -8.94951
9 1 12.5795 4.24912e-16 22.0136 -8.94952
43 1 0.000196258 9.43445 22.0136 -8.94954
15 1 2.00607e-05 3.14455 22.0136 -8.94955
17 1 3.14422 3.14427 22.0133 -8.94941
19 1 6.28929 3.14424 22.0133 -8.94949
25 1 15.7247 3.14405 22.0134 -8.94962
41 1 18.87 6.28906 22.0134 -8.94945
31 1 3.14447 6.28961 22.0135 -8.94972
13 1 18.8694 -1.07865e-16 22.0136 -8.94941
23 1 12.5795 3.1441 22.0134 -8.94945
39 1 15.7255 6.28831 22.0124 -8.95008
182 1 20.4414 1.57212 11.007 -8.94955
193 1 11.0177 7.85624 11.0293 -8.96754
344 1 1.57222 11.007 1.5718 -8.94955
345 1 4.71655 11.007 1.57154 -8.94961
346 1 7.86166 11.007 1.57187 -8.94837
347 1 11.0071 11.007 1.5705 -8.94788
348 1 14.1547 11.007 1.56759 -8.94992
349 1 17.2988 11.007 1.57047 -8.94932
350 1 20.4423 11.007 1.57167 -8.94948
688 3 10.3012 11.007 9.43453 2.19119
352 1 1.5722 14.1519 1.57184 -8.94941
353 1 3.14446 12.5794 -0.000377428 -8.94954
354 1 4.71657 14.1517 1.57148 -8.9496
687 2 11.6583 11.007 9.43453 0.178953
356 1 7.86126 14.1525 1.56965 -8.95256
511 1 18.8694 18.8697 9.43453 -8.94957
358 1 11.0067 14.1533 1.56916 -8.95042
510 1 15.7251 18.8703 9.43453 -8.94905
360 1 14.1541 14.154 1.56779 -8.95183
509 1 12.5794 18.871 9.43453 -8.95102
362 1 17.2987 14.153 1.57052 -8.94913
363 1 18.8701 12.5796 -0.000595298 -8.94945
364 1 20.4423 14.1522 1.57172 -8.94944
508 1 9.43401 18.8703 9.43453 -8.94612
366 1 1.57197 17.297 1.57173 -8.94984
507 1 6.28677 18.8733 9.43453 -8.9495
368 1 4.71574 17.298 1.5704 -8.94922
369 1 6.28893 15.7248 -0.00118162 -8.95069
370 1 7.86146 17.298 1.57076 -8.94912
371 1 9.43409 15.7252 -0.00112458 -8.9496
372 1 11.007 17.2981 1.57081 -8.94933
506 1 3.14289 18.8707 9.43453 -8.94945
374 1 14.1527 17.2984 1.57073 -8.94958
526 1 1.57048 17.2979 11.0074 -8.94928
376 1 17.2985 17.2985 1.57078 -8.94802
505 1 22.0133 18.8697 9.43453 -8.94951
378 1 20.4421 17.2973 1.57183 -8.94951
504 1 18.8698 15.7252 9.43453 -8.94925
380 1 1.57184 20.4418 1.57183 -8.94918
503 1 15.7253 15.7259 9.43453 -8.94613
382 1 4.71671 20.442 1.57165 -8.94961
502 1 12.5773 15.731 9.43453 -8.95974
384 1 7.86188 20.442 1.57166 -8.94946
385 1 9.43438 18.8698 -0.000540649 -8.9495
386 1 11.007 20.442 1.57169 -8.94949
525 1 20.4416 14.1522 11.0069 -8.94984
388 1 14.1521 20.4421 1.57179 -8.94947
501 1 9.42907 15.7209 9.43453 -8.99843
390 1 17.2973 20.4421 1.57181 -8.94954
391 1 18.8697 18.8697 -0.000414173 -8.9491
392 1 20.4416 20.4418 1.57211 -8.94953
393 1 1.57181 11.007 4.71634 -8.94961
394 1 4.71533 11.007 4.71542 -8.94666
395 1 7.86277 11.007 4.71804 -8.94476
396 1 11.0122 11.007 4.71485 -9.0145
397 1 14.1643 11.007 4.70388 -8.94379
398 1 17.3024 11.007 4.71388 -8.94856
399 1 20.4431 11.007 4.71636 -8.94995
400 1 22.0142 12.5795 3.14409 -8.94956
401 1 1.57161 14.1519 4.71658 -8.94997
402 1 3.14394 12.5794 3.14382 -8.94899
403 1 4.71427 14.1523 4.71536 -8.95193
404 1 6.28874 12.5789 3.14373 -8.94866
405 1 7.85367 14.1607 4.70531 -8.94962
406 1 9.43438 12.5803 3.14184 -8.95225
407 1 11.0077 14.1584 4.70729 -8.9496
408 1 12.5832 12.5816 3.13487 -8.95907
409 1 14.167 14.1661 4.7018 -8.92792
410 1 15.7293 12.5812 3.13972 -8.94757
411 1 17.3023 14.1547 4.71424 -8.95025
412 1 18.8714 12.5799 3.14332 -8.94926
413 1 20.4428 14.1524 4.71655 -8.9503
414 1 0.000137179 15.7246 3.14421 -8.94988
415 1 1.57071 17.2977 4.7161 -8.94968
416 1 3.14344 15.7248 3.14351 -8.95045
417 1 4.71265 17.3009 4.71293 -8.9448
418 1 6.28595 15.7277 3.13956 -8.94903
419 1 7.86024 17.301 4.71416 -8.94948
420 1 9.43363 15.7274 3.14108 -8.94759
421 1 11.0074 17.3006 4.71428 -8.94794
422 1 12.5808 15.7277 3.14064 -8.94859
423 1 14.1549 17.302 4.71412 -8.95072
424 1 15.7295 15.7294 3.13963 -8.94389
425 1 17.2984 17.2984 4.71642 -8.94996
426 1 18.8712 15.7256 3.1435 -8.94952
427 1 20.4416 17.2973 4.71691 -8.94995
428 1 22.0135 18.8696 3.14429 -8.94957
429 1 1.57164 20.4419 4.71672 -8.94947
430 1 3.14323 18.8704 3.14325 -8.94828
431 1 4.71603 20.4427 4.71606 -8.94998
432 1 6.28866 18.8707 3.1432 -8.94967
433 1 7.86171 20.4428 4.71617 -8.94971
434 1 9.43432 18.8707 3.14336 -8.94937
435 1 11.0072 20.4427 4.71628 -8.94968
436 1 12.5799 18.8708 3.14351 -8.94911
437 1 14.1524 20.4427 4.7167 -8.9507
438 1 15.7256 18.8712 3.14345 -8.94967
439 1 17.2972 20.442 4.717 -8.94966
440 1 18.8697 18.8699 3.14435 -8.94972
441 1 20.4414 20.4418 4.71707 -8.94954
442 1 1.57199 11.007 7.86183 -8.94776
443 1 4.71907 11.007 7.86251 -8.93939
444 1 7.88372 11.007 7.87031 -8.97062
445 1 11.074 11.007 7.57893 -8.31295
446 1 14.1683 11.007 7.84449 -9.01698
447 1 17.3007 11.007 7.86206 -8.95373
448 1 20.4424 11.007 7.86222 -8.94985
449 1 0.000146392 12.5794 6.28931 -8.95009
450 1 1.56983 14.1523 7.8618 -8.95172
451 1 3.14308 12.5788 6.28906 -8.95003
452 1 4.7067 14.156 7.85971 -8.95778
453 1 6.28511 12.5776 6.28897 -8.95511
454 1 7.82206 14.1884 7.83135 -8.86064
455 1 9.41291 12.6094 6.27679 -8.93385
456 1 11.0177 14.1577 7.83979 -8.96754
457 1 12.626 12.6187 6.24763 -8.89137
458 1 14.1579 14.1559 7.86003 -8.9774
459 1 15.7377 12.5833 6.28321 -8.95649
460 1 17.2983 14.1522 7.86308 -8.95138
461 1 18.8725 12.5799 6.28894 -8.9523
462 1 20.4416 14.1522 7.86218 -8.94984
463 1 22.013 15.7248 6.28926 -8.95024
464 1 1.57048 17.2979 7.86164 -8.94928
465 1 3.14021 15.7265 6.28751 -8.95078
466 1 4.71283 17.3008 7.86059 -8.94763
467 1 6.27645 15.7369 6.278 -8.93108
468 1 7.85836 17.3051 7.86078 -8.9592
469 1 9.43279 15.7344 6.2843 -8.95272
470 1 11.0053 17.2993 7.86137 -8.94932
471 1 12.585 15.7358 6.28331 -8.95604
472 1 14.1531 17.2995 7.86195 -8.94822
473 1 15.7279 15.7275 6.28827 -8.95022
474 1 17.2976 17.2977 7.86218 -8.94916
475 1 18.8702 15.7249 6.28968 -8.95026
476 1 20.4414 17.2974 7.86199 -8.94953
477 1 -0.000604847 18.8697 6.28935 -8.94944
478 1 1.57155 20.442 7.86189 -8.94948
479 1 3.14301 18.8706 6.2887 -8.94918
480 1 4.71576 20.4428 7.8616 -8.94938
481 1 6.28747 18.873 6.28785 -8.95147
482 1 7.86161 20.4433 7.8619 -8.95139
483 1 9.43426 18.8724 6.28824 -8.95055
484 1 11.0068 20.4424 7.86203 -8.94935
485 1 12.5797 18.8718 6.28918 -8.95243
486 1 14.1524 20.4423 7.86206 -8.94967
487 1 15.7252 18.8706 6.28943 -8.94953
488 1 17.2972 20.4419 7.86206 -8.94944
489 1 18.8694 18.8697 6.28959 -8.94949
490 1 20.4414 20.4418 7.86203 -8.94955
491 1 22.0134 12.5794 9.43453 -8.94923
492 1 3.1422 12.5791 9.43453 -8.95122
493 1 6.28092 12.5866 9.43453 -8.97365
494 1 9.352 12.7904 9.43453 -8.19424
495 1 12.5907 12.614 9.43453 -9.123
496 1 15.7187 12.5763 9.43453 -8.98588
497 1 18.8694 12.5798 9.43453 -8.94608
498 1 -0.00119108 15.725 9.43453 -8.94996
499 1 3.13989 15.7269 9.43453 -8.94905
500 1 6.2783 15.7348 9.43453 -8.94144
517 1 17.3007 11.007 11.007 -8.95373
518 1 20.4424 11.007 11.0068 -8.94985
524 1 17.2983 14.1522 11.006 -8.95138
523 1 14.1579 14.1559 11.009 -8.9774
527 1 4.71283 17.3008 11.0085 -8.94763
534 1 4.71576 20.4428 11.0075 -8.94938
538 1 17.2972 20.4419 11.007 -8.94944
365 1 22.0141 15.7244 -0.000284493 -8.9495
373 1 12.5795 15.7253 -0.00125622 -8.94964
512 1 1.57199 11.007 11.0072 -8.94776
513 1 4.71907 11.007 11.0065 -8.93939
514 1 7.88372 11.007 10.9988 -8.97062
515 1 11.074 11.007 11.2901 -8.31295
516 1 14.1683 11.007 11.0246 -9.01698
686 1 20.4417 20.4417 20.4415 -8.94923
685 1 18.8697 18.8697 18.8695 -8.9491
519 1 1.56983 14.1523 11.0073 -8.95172
520 1 4.7067 14.156 11.0094 -8.95778
521 1 7.82206 14.1884 11.0377 -8.86064
684 1 17.297 20.4418 20.4415 -8.94961
683 1 15.7247 18.8699 18.8696 -8.94962
682 1 14.152 20.4418 20.4415 -8.94951
681 1 12.5795 18.8698 18.8696 -8.94945
680 1 11.007 20.4418 20.4415 -8.94954
389 1 15.7247 18.8699 22.0134 -8.94962
528 1 7.85836 17.3051 11.0083 -8.9592
529 1 11.0053 17.2993 11.0077 -8.94932
530 1 14.1531 17.2995 11.0071 -8.94822
531 1 17.2976 17.2977 11.0069 -8.94916
532 1 20.4414 17.2974 11.0071 -8.94953
533 1 1.57155 20.442 11.0072 -8.94948
383 1 6.28929 18.8697 22.0133 -8.94949
535 1 7.86161 20.4433 11.0072 -8.95139
536 1 11.0068 20.4424 11.007 -8.94935
537 1 14.1524 20.4423 11.007 -8.94967
381 1 3.14422 18.8696 22.0133 -8.94941
679 1 9.43438 18.8698 18.8696 -8.9495
540 1 1.57181 11.007 14.1527 -8.94961
541 1 4.71533 11.007 14.1536 -8.94666
542 1 7.86277 11.007 14.151 -8.94476
543 1 11.0122 11.007 14.1542 -9.0145
544 1 14.1643 11.007 14.1652 -8.94379
545 1 17.3024 11.007 14.1552 -8.94856
546 1 20.4431 11.007 14.1527 -8.94995
547 1 0.000146392 12.5794 12.5797 -8.95009
548 1 1.57161 14.1519 14.1525 -8.94997
549 1 3.14308 12.5788 12.58 -8.95003
550 1 4.71427 14.1523 14.1537 -8.95193
551 1 6.28511 12.5776 12.5801 -8.95511
552 1 7.85367 14.1607 14.1637 -8.94962
553 1 9.41291 12.6094 12.5923 -8.93385
554 1 11.0077 14.1584 14.1618 -8.9496
555 1 12.626 12.6187 12.6214 -8.89137
556 1 14.167 14.1661 14.1673 -8.92792
557 1 15.7377 12.5833 12.5858 -8.95649
558 1 17.3023 14.1547 14.1548 -8.95025
559 1 18.8725 12.5799 12.5801 -8.9523
560 1 20.4428 14.1524 14.1525 -8.9503
561 1 22.013 15.7248 12.5798 -8.95024
562 1 1.57071 17.2977 14.153 -8.94968
563 1 3.14021 15.7265 12.5815 -8.95078
564 1 4.71265 17.3009 14.1561 -8.9448
565 1 6.27645 15.7369 12.5911 -8.93108
566 1 7.86024 17.301 14.1549 -8.94948
567 1 9.43279 15.7344 12.5848 -8.95272
568 1 11.0074 17.3006 14.1548 -8.94794
569 1 12.585 15.7358 12.5857 -8.95604
570 1 14.1549 17.302 14.1549 -8.95072
571 1 15.7279 15.7275 12.5808 -8.95022
572 1 17.2984 17.2984 14.1526 -8.94996
573 1 18.8702 15.7249 12.5794 -8.95026
574 1 20.4416 17.2973 14.1521 -8.94995
575 1 -0.000604847 18.8697 12.5797 -8.94944
576 1 1.57164 20.4419 14.1523 -8.94947
577 1 3.14301 18.8706 12.5804 -8.94918
578 1 4.71603 20.4427 14.153 -8.94998
579 1 6.28747 18.873 12.5812 -8.95147
580 1 7.86171 20.4428 14.1529 -8.94971
581 1 9.43426 18.8724 12.5808 -8.95055
582 1 11.0072 20.4427 14.1528 -8.94968
583 1 12.5797 18.8718 12.5799 -8.95243
584 1 14.1524 20.4427 14.1524 -8.9507
585 1 15.7252 18.8706 12.5796 -8.94953
586 1 17.2972 20.442 14.1521 -8.94966
587 1 18.8694 18.8697 12.5795 -8.94949
588 1 20.4414 20.4418 14.152 -8.94954
589 1 1.57222 11.007 17.2973 -8.94955
590 1 4.71655 11.007 17.2975 -8.94961
591 1 7.86166 11.007 17.2972 -8.94837
592 1 11.0071 11.007 17.2986 -8.94788
593 1 14.1547 11.007 17.3015 -8.94992
594 1 17.2988 11.007 17.2986 -8.94932
595 1 20.4423 11.007 17.2974 -8.94948
596 1 22.0142 12.5795 15.725 -8.94956
597 1 1.5722 14.1519 17.2972 -8.94941
598 1 3.14394 12.5794 15.7252 -8.94899
599 1 4.71657 14.1517 17.2976 -8.9496
600 1 6.28874 12.5789 15.7253 -8.94866
601 1 7.86126 14.1525 17.2994 -8.95256
602 1 9.43438 12.5803 15.7272 -8.95225
603 1 11.0067 14.1533 17.2999 -8.95042
604 1 12.5832 12.5816 15.7342 -8.95907
605 1 14.1541 14.154 17.3013 -8.95183
606 1 15.7293 12.5812 15.7293 -8.94757
607 1 17.2987 14.153 17.2985 -8.94913
608 1 18.8714 12.5799 15.7257 -8.94926
609 1 20.4423 14.1522 17.2973 -8.94944
610 1 0.000137179 15.7246 15.7248 -8.94988
611 1 1.57197 17.297 17.2973 -8.94984
612 1 3.14344 15.7248 15.7255 -8.95045
613 1 4.71574 17.298 17.2987 -8.94922
614 1 6.28595 15.7277 15.7295 -8.94903
615 1 7.86146 17.298 17.2983 -8.94912
616 1 9.43363 15.7274 15.728 -8.94759
617 1 11.007 17.2981 17.2982 -8.94933
618 1 12.5808 15.7277 15.7284 -8.94859
619 1 14.1527 17.2984 17.2983 -8.94958
620 1 15.7295 15.7294 15.7294 -8.94389
621 1 17.2985 17.2985 17.2983 -8.94802
622 1 18.8712 15.7256 15.7256 -8.94952
623 1 20.4421 17.2973 17.2972 -8.94951
624 1 22.0135 18.8696 15.7248 -8.94957
625 1 1.57184 20.4418 17.2972 -8.94918
626 1 3.14323 18.8704 15.7258 -8.94828
627 1 4.71671 20.442 17.2974 -8.94961
628 1 6.28866 18.8707 15.7259 -8.94967
629 1 7.86188 20.442 17.2974 -8.94946
630 1 9.43432 18.8707 15.7257 -8.94937
631 1 11.007 20.442 17.2974 -8.94949
632 1 12.5799 18.8708 15.7255 -8.94911
633 1 14.1521 20.4421 17.2973 -8.94947
634 1 15.7256 18.8712 15.7256 -8.94967
635 1 17.2973 20.4421 17.2972 -8.94954
636 1 18.8697 18.8699 15.7247 -8.94972
637 1 20.4416 20.4418 17.2969 -8.94953
638 1 1.5723 11.007 20.4415 -8.94957
639 1 4.71679 11.007 20.4415 -8.94964
640 1 7.86164 11.007 20.4415 -8.94921
641 1 11.0067 11.007 20.4415 -8.94882
642 1 14.1527 11.007 20.4415 -8.95048
643 1 17.2978 11.007 20.4415 -8.94947
644 1 20.442 11.007 20.4415 -8.94953
645 1 0.000196258 12.5795 18.8694 -8.94954
646 1 1.57231 14.1519 20.4415 -8.94953
647 1 3.14446 12.5794 18.8694 -8.94954
648 1 4.71685 14.1518 20.4415 -8.94952
649 1 6.28918 12.5793 18.8695 -8.94933
650 1 7.86171 14.1519 20.4415 -8.9505
651 1 9.43424 12.5794 18.8699 -8.94963
652 1 11.0066 14.1524 20.4415 -8.95023
653 1 12.5797 12.5797 18.8711 -8.95162
654 1 14.1524 14.1525 20.4415 -8.95083
655 1 15.7258 12.5799 18.8706 -8.9495
656 1 17.2977 14.1524 20.4415 -8.94942
657 1 18.8701 12.5796 18.8697 -8.94945
658 1 20.442 14.152 20.4415 -8.94951
659 1 22.0141 15.7244 18.8693 -8.9495
660 1 1.57228 17.2968 20.4415 -8.9497
661 1 3.14447 15.7243 18.8695 -8.94972
662 1 4.71665 17.2972 20.4415 -8.95002
663 1 6.28893 15.7248 18.8702 -8.95069
664 1 7.86171 17.2973 20.4415 -8.94951
665 1 9.43409 15.7252 18.8702 -8.9496
666 1 11.0069 17.2975 20.4415 -8.94953
667 1 12.5795 15.7253 18.8703 -8.94964
668 1 14.1521 17.2975 20.4415 -8.94957
669 1 15.7255 15.7256 18.8705 -8.95008
670 1 17.2975 17.2976 20.4415 -8.94953
671 1 18.87 15.7248 18.8696 -8.94945
672 1 20.4419 17.297 20.4415 -8.94952
673 1 2.00607e-05 18.8693 18.8693 -8.94955
674 1 1.57214 20.4417 20.4415 -8.94934
675 1 3.14422 18.8696 18.8697 -8.94941
676 1 4.71699 20.4417 20.4415 -8.94955
677 1 6.28929 18.8697 18.8696 -8.94949
678 1 7.86195 20.4418 20.4415 -8.94953
351 1 0.000196258 12.5795 22.0136 -8.94954
355 1 6.28918 12.5793 22.0134 -8.94933
357 1 9.43424 12.5794 22.0131 -8.94963
359 1 12.5797 12.5797 22.0119 -8.95162
361 1 15.7258 12.5799 22.0123 -8.9495
379 1 2.00607e-05 18.8693 22.0136 -8.94955
367 1 3.14447 15.7243 22.0135 -8.94972
377 1 18.87 15.7248 22.0134 -8.94945
375 1 15.7255 15.7256 22.0124 -8.95008
539 1 20.4414 20.4418 11.007 -8.94955
387 1 12.5795 18.8698 22.0134 -8.94945
522 1 11.0177 14.1577 11.0293 -8.96754
