ITEM: TIMESTEP
81
ITEM: NUMBER OF ATOMS
688
ITEM: BOX BOUNDS pp pp pp
0.0000000000000000e+00 2.2013900999999997e+01
0.0000000000000000e+00 2.2013900999999997e+01
0.0000000000000000e+00 2.2013900999999997e+01
ITEM: ATOMS id type x y z c_pot
1 1 22.0138 1.49292e-16 -0.000159445 -8.94928
2 1 1.57193 1.57211 1.57192 -8.9492
175 1 18.8695 9.43413 9.43453 -8.94618
4 1 4.71682 1.57199 1.57177 -8.94962
174 1 15.7191 9.43739 9.43453 -8.98627
6 1 7.86194 1.57197 1.57177 -8.94948
7 1 9.43449 4.1793e-16 -0.000293155 -8.94955
8 1 11.007 1.57195 1.57178 -8.94951
173 1 12.5906 9.39922 9.43453 -9.1251
10 1 14.1521 1.57193 1.57188 -8.94948
172 1 9.35162 9.22191 9.43453 -8.19255
12 1 17.2972 1.57187 1.57189 -8.94954
196 1 20.4417 7.86174 11.0069 -8.94986
14 1 20.4416 1.57217 1.57217 -8.94955
171 1 6.2808 9.42738 9.43453 -8.97369
16 1 1.57203 4.71695 1.57184 -8.94984
170 1 3.14216 9.43483 9.43453 -8.95125
18 1 4.71589 4.71602 1.57055 -8.94924
169 1 22.0134 9.43454 9.43453 -8.94928
20 1 7.86157 4.71608 1.5709 -8.94914
21 1 9.43442 3.14423 -0.000477878 -8.94952
22 1 11.007 4.71594 1.57095 -8.94935
195 1 17.2984 7.86164 11.006 -8.95138
24 1 14.1525 4.71575 1.5709 -8.94959
168 1 18.8698 6.28872 9.43453 -8.94925
26 1 17.2983 4.71559 1.57092 -8.94805
27 1 18.8696 3.14427 -0.00035847 -8.94914
28 1 20.442 4.71674 1.57191 -8.94952
167 1 15.7254 6.28798 9.43453 -8.9461
30 1 1.5722 7.86203 1.57191 -8.94942
166 1 12.5774 6.28262 9.43453 -8.95984
32 1 4.71665 7.86225 1.57156 -8.94961
33 1 6.28902 6.28919 -0.00110295 -8.95067
34 1 7.86134 7.8615 1.56976 -8.95255
35 1 9.43413 6.28883 -0.00104855 -8.94959
36 1 11.0067 7.86076 1.56933 -8.95041
165 1 9.42908 6.29296 9.43453 -8.99878
38 1 14.1539 7.86008 1.56804 -8.95183
194 1 14.1581 7.85779 11.009 -8.97766
40 1 17.2985 7.8611 1.5707 -8.94916
164 1 6.2785 6.27927 9.43453 -8.94143
42 1 20.4422 7.86179 1.57181 -8.94945
163 1 3.14012 6.28714 9.43453 -8.94906
44 1 3.14448 9.43452 -0.000345887 -8.94955
162 1 -0.00107758 6.28896 9.43453 -8.94995
161 1 18.8694 3.14425 9.43453 -8.94958
160 1 15.7251 3.14365 9.43453 -8.94907
159 1 12.5795 3.14282 9.43453 -8.95107
49 1 18.8699 9.43434 -0.000518607 -8.94948
50 1 -0.000247798 1.34285e-16 3.14461 -8.94957
51 1 1.57177 1.57202 4.71682 -8.94949
52 1 3.14414 3.72112e-17 3.14413 -8.94954
53 1 4.71618 1.57126 4.71619 -8.94998
54 1 6.28933 6.33056e-16 3.14409 -8.94958
55 1 7.86179 1.57123 4.71628 -8.94968
56 1 9.43454 6.59818e-16 3.14408 -8.94956
57 1 11.0072 1.57132 4.71636 -8.94965
58 1 12.5797 1.0606e-16 3.14419 -8.94953
59 1 14.1523 1.57132 4.71675 -8.95066
60 1 15.7247 1.03976e-15 3.14437 -8.95007
61 1 17.2971 1.57193 4.71704 -8.94965
62 1 18.8693 1.45728e-16 3.14464 -8.94964
63 1 20.4415 1.57219 4.71712 -8.94956
64 1 22.0135 3.14438 3.14438 -8.94957
65 1 1.57085 4.71626 4.71621 -8.94968
66 1 3.14339 3.14359 3.1434 -8.94828
67 1 4.71287 4.71314 4.71308 -8.94475
68 1 6.28881 3.14332 3.14337 -8.94967
69 1 7.86042 4.71314 4.71432 -8.94944
70 1 9.43437 3.14334 3.14349 -8.94937
71 1 11.0073 4.71348 4.71447 -8.94793
72 1 12.5798 3.14325 3.14364 -8.94911
73 1 14.1547 4.71215 4.71429 -8.9507
74 1 15.7255 3.14292 3.14358 -8.94966
75 1 17.2982 4.71564 4.7165 -8.94992
76 1 18.8696 3.14415 3.14442 -8.94971
77 1 20.4416 4.71672 4.71697 -8.94993
78 1 0.000120429 6.28936 3.1443 -8.94986
79 1 1.57166 7.86209 4.71664 -8.94994
80 1 3.14357 6.28924 3.14364 -8.95043
81 1 4.71444 7.8618 4.71546 -8.95191
82 1 6.28616 6.28642 3.13975 -8.94911
83 1 7.85391 7.85359 4.70552 -8.9499
84 1 9.4337 6.28677 3.14128 -8.94763
85 1 11.0076 7.8558 4.70767 -8.94976
86 1 12.5807 6.28644 3.14091 -8.94863
87 1 14.1666 7.84804 4.70221 -8.9281
88 1 15.7292 6.28474 3.13989 -8.94396
89 1 17.302 7.85934 4.71444 -8.95025
90 1 18.871 6.28841 3.14362 -8.94952
91 1 20.4427 7.86159 4.71662 -8.95027
92 1 22.0141 9.4344 3.14417 -8.94955
93 1 3.14398 9.43453 3.14387 -8.94899
94 1 6.28882 9.43508 3.14379 -8.9487
95 1 9.43439 9.43373 3.14205 -8.9522
96 1 12.583 9.43242 3.13526 -8.95906
97 1 15.7289 9.4328 3.14005 -8.9476
98 1 18.8711 9.43404 3.14347 -8.94926
99 1 22.0136 5.37856e-16 6.28953 -8.94955
100 1 1.5717 1.57198 7.86194 -8.94951
101 1 3.14399 1.35511e-15 6.28924 -8.94939
102 1 4.71595 1.57115 7.86166 -8.94938
103 1 6.28908 1.66558e-15 6.2891 -8.95062
104 1 7.86172 1.57067 7.86193 -8.95139
105 1 9.43459 1.19162e-15 6.28909 -8.95025
106 1 11.0069 1.57149 7.86203 -8.94937
107 1 12.5796 7.86698e-16 6.2895 -8.95033
108 1 14.1524 1.57157 7.86205 -8.94968
109 1 15.7247 7.53327e-16 6.28954 -8.94964
110 1 17.2972 1.57201 7.86206 -8.94945
111 1 18.8693 6.08981e-16 6.2896 -8.94952
112 1 20.4415 1.57216 7.86205 -8.94956
113 1 -0.000507418 3.1443 6.28941 -8.94945
114 1 1.57067 4.71611 7.86169 -8.94928
115 1 3.14322 3.14342 6.28882 -8.9492
116 1 4.71311 4.71333 7.86066 -8.94762
117 1 6.28766 3.14102 6.28795 -8.95148
118 1 7.85855 4.70885 7.86082 -8.95924
119 1 9.43435 3.14157 6.28831 -8.95051
120 1 11.0053 4.71452 7.86144 -8.94939
121 1 12.5797 3.14214 6.28924 -8.95239
122 1 14.1532 4.71443 7.86198 -8.94826
123 1 15.7252 3.14343 6.28945 -8.94952
124 1 17.2976 4.71626 7.86219 -8.94916
125 1 18.8694 3.14432 6.28961 -8.9495
126 1 20.4414 4.71662 7.86201 -8.94953
127 1 22.0131 6.28915 6.2893 -8.95023
128 1 1.56991 7.86168 7.86181 -8.95172
129 1 3.1404 6.28752 6.28759 -8.95079
130 1 4.70679 7.85806 7.85972 -8.95785
131 1 6.27661 6.27715 6.27803 -8.93088
132 1 7.82183 7.82542 7.83109 -8.85981
133 1 9.4329 6.27975 6.28446 -8.95259
134 1 11.0177 7.856 7.83994 -8.96692
135 1 12.5849 6.27824 6.28355 -8.95595
136 1 14.1581 7.85779 7.86011 -8.97766
137 1 15.7278 6.28648 6.28835 -8.95014
138 1 17.2984 7.86164 7.86308 -8.95138
139 1 18.8701 6.28901 6.28971 -8.95023
140 1 20.4417 7.86174 7.86218 -8.94986
141 1 0.000113151 9.43453 6.28933 -8.95007
142 1 3.14311 9.43515 6.28907 -8.94999
143 1 6.2852 9.43649 6.28903 -8.95502
144 1 9.41318 9.40488 6.27742 -8.9343
145 1 12.6257 9.3954 6.24834 -8.892
146 1 15.7374 9.43064 6.28352 -8.95646
147 1 18.8724 9.43405 6.28902 -8.95226
148 1 -0.0003004 1.26166e-15 9.43453 -8.94956
149 1 3.14393 1.57852e-15 9.43453 -8.94948
150 1 6.28877 1.40932e-15 9.43453 -8.95034
151 1 9.43461 1.72971e-15 9.43453 -8.94845
152 1 12.5797 1.75726e-15 9.43453 -8.94996
153 1 15.7248 8.09798e-16 9.43453 -8.94955
154 1 18.8693 4.02219e-16 9.43453 -8.94957
155 1 22.0134 3.14426 9.43453 -8.94952
156 1 3.14312 3.14336 9.43453 -8.94946
157 1 6.287 3.14076 9.43453 -8.9495
158 1 9.43412 3.14362 9.43453 -8.94613
183 1 1.57067 4.71611 11.0074 -8.94928
177 1 4.71595 1.57115 11.0074 -8.94938
181 1 17.2972 1.57201 11.007 -8.94945
184 1 4.71311 4.71333 11.0084 -8.94762
3 1 3.14458 1.78491e-16 -0.000260747 -8.9496
11 1 15.7244 1.08303e-15 -0.000231353 -8.94956
29 1 22.014 6.28953 -0.000234046 -8.94952
37 1 12.5795 6.28873 -0.0011524 -8.94963
176 1 1.5717 1.57198 11.0071 -8.94951
48 1 15.7255 9.43406 22.0125 -8.94949
178 1 7.86172 1.57067 11.0071 -8.95139
179 1 11.0069 1.57149 11.007 -8.94937
180 1 14.1524 1.57157 11.007 -8.94968
47 1 12.5796 9.43429 22.012 -8.95157
343 1 18.8699 9.43434 18.8696 -8.94948
342 1 15.7255 9.43406 18.8705 -8.94949
46 1 9.43425 9.43455 22.0131 -8.94961
185 1 7.85855 4.70885 11.0082 -8.95924
186 1 11.0053 4.71452 11.0076 -8.94939
187 1 14.1532 4.71443 11.0071 -8.94826
188 1 17.2976 4.71626 11.0069 -8.94916
189 1 20.4414 4.71662 11.0071 -8.94953
190 1 1.56991 7.86168 11.0072 -8.95172
191 1 4.70679 7.85806 11.0093 -8.95785
192 1 7.82183 7.82542 11.038 -8.85981
341 1 12.5796 9.43429 18.871 -8.95157
340 1 9.43425 9.43455 18.8698 -8.94961
339 1 6.28922 9.43464 18.8695 -8.94934
338 1 3.14448 9.43452 18.8694 -8.94955
197 1 22.0136 1.07436e-15 12.5795 -8.94955
198 1 1.57177 1.57202 14.1522 -8.94949
199 1 3.14399 1.46395e-15 12.5798 -8.94939
200 1 4.71618 1.57126 14.1529 -8.94998
201 1 6.28908 1.80152e-15 12.58 -8.95062
202 1 7.86179 1.57123 14.1528 -8.94968
203 1 9.43459 1.66786e-15 12.58 -8.95025
204 1 11.0072 1.57132 14.1527 -8.94965
205 1 12.5796 1.44722e-15 12.5796 -8.95033
206 1 14.1523 1.57132 14.1523 -8.95066
207 1 15.7247 6.68685e-16 12.5795 -8.94964
208 1 17.2971 1.57193 14.152 -8.94965
209 1 18.8693 4.90971e-16 12.5795 -8.94952
210 1 20.4415 1.57219 14.1519 -8.94956
211 1 -0.000507418 3.1443 12.5796 -8.94945
212 1 1.57085 4.71626 14.1528 -8.94968
213 1 3.14322 3.14342 12.5802 -8.9492
214 1 4.71287 4.71314 14.156 -8.94475
215 1 6.28766 3.14102 12.5811 -8.95148
216 1 7.86042 4.71314 14.1547 -8.94944
217 1 9.43435 3.14157 12.5807 -8.95051
218 1 11.0073 4.71348 14.1546 -8.94793
219 1 12.5797 3.14214 12.5798 -8.95239
220 1 14.1547 4.71215 14.1548 -8.9507
221 1 15.7252 3.14343 12.5796 -8.94952
222 1 17.2982 4.71564 14.1526 -8.94992
223 1 18.8694 3.14432 12.5794 -8.9495
224 1 20.4416 4.71672 14.1521 -8.94993
225 1 22.0131 6.28915 12.5798 -8.95023
226 1 1.57166 7.86209 14.1524 -8.94994
227 1 3.1404 6.28752 12.5815 -8.95079
228 1 4.71444 7.8618 14.1536 -8.95191
229 1 6.27661 6.27715 12.591 -8.93088
230 1 7.85391 7.85359 14.1635 -8.9499
231 1 9.4329 6.27975 12.5846 -8.95259
232 1 11.0076 7.8558 14.1614 -8.94976
233 1 12.5849 6.27824 12.5855 -8.95595
234 1 14.1666 7.84804 14.1669 -8.9281
235 1 15.7278 6.28648 12.5807 -8.95014
236 1 17.302 7.85934 14.1546 -8.95025
237 1 18.8701 6.28901 12.5794 -8.95023
238 1 20.4427 7.86159 14.1524 -8.95027
239 1 0.000113151 9.43453 12.5797 -8.95007
240 1 3.14311 9.43515 12.58 -8.94999
241 1 6.2852 9.43649 12.58 -8.95502
242 1 9.41318 9.40488 12.5916 -8.9343
243 1 12.6257 9.3954 12.6207 -8.892
244 1 15.7374 9.43064 12.5855 -8.95646
245 1 18.8724 9.43405 12.58 -8.95226
246 1 -0.000247798 1.73313e-15 15.7244 -8.94957
247 1 1.57193 1.57211 17.2971 -8.9492
248 1 3.14414 1.24379e-15 15.7249 -8.94954
249 1 4.71682 1.57199 17.2973 -8.94962
250 1 6.28933 1.16887e-15 15.725 -8.94958
251 1 7.86194 1.57197 17.2973 -8.94948
252 1 9.43454 1.29703e-15 15.725 -8.94956
253 1 11.007 1.57195 17.2973 -8.94951
254 1 12.5797 9.85402e-16 15.7249 -8.94953
255 1 14.1521 1.57193 17.2972 -8.94948
256 1 15.7247 8.45015e-16 15.7247 -8.95007
257 1 17.2972 1.57187 17.2972 -8.94954
258 1 18.8693 4.63185e-17 15.7244 -8.94964
259 1 20.4416 1.57217 17.2969 -8.94955
260 1 22.0135 3.14438 15.7247 -8.94957
261 1 1.57203 4.71695 17.2972 -8.94984
262 1 3.14339 3.14359 15.7257 -8.94828
263 1 4.71589 4.71602 17.2985 -8.94924
264 1 6.28881 3.14332 15.7257 -8.94967
265 1 7.86157 4.71608 17.2982 -8.94914
266 1 9.43437 3.14334 15.7256 -8.94937
267 1 11.007 4.71594 17.2981 -8.94935
268 1 12.5798 3.14325 15.7254 -8.94911
269 1 14.1525 4.71575 17.2982 -8.94959
270 1 15.7255 3.14292 15.7255 -8.94966
271 1 17.2983 4.71559 17.2981 -8.94805
272 1 18.8696 3.14415 15.7246 -8.94971
273 1 20.442 4.71674 17.2971 -8.94952
274 1 0.000120429 6.28936 15.7248 -8.94986
275 1 1.5722 7.86203 17.2971 -8.94942
276 1 3.14357 6.28924 15.7254 -8.95043
277 1 4.71665 7.86225 17.2975 -8.94961
278 1 6.28616 6.28642 15.7293 -8.94911
279 1 7.86134 7.8615 17.2993 -8.95255
280 1 9.4337 6.28677 15.7278 -8.94763
281 1 11.0067 7.86076 17.2997 -8.95041
282 1 12.5807 6.28644 15.7281 -8.94863
283 1 14.1539 7.86008 17.301 -8.95183
284 1 15.7292 6.28474 15.7292 -8.94396
285 1 17.2985 7.8611 17.2984 -8.94916
286 1 18.871 6.28841 15.7254 -8.94952
287 1 20.4422 7.86179 17.2972 -8.94945
288 1 22.0141 9.4344 15.7249 -8.94955
289 1 3.14398 9.43453 15.7252 -8.94899
290 1 6.28882 9.43508 15.7253 -8.9487
291 1 9.43439 9.43373 15.727 -8.9522
292 1 12.583 9.43242 15.7338 -8.95906
293 1 15.7289 9.4328 15.729 -8.9476
294 1 18.8711 9.43404 15.7256 -8.94926
295 1 22.0138 6.0681e-16 18.8692 -8.94928
296 1 1.57219 1.57221 20.4415 -8.94938
297 1 3.14458 1.64982e-15 18.8693 -8.9496
298 1 4.71706 1.57221 20.4415 -8.94957
299 1 6.28953 1.16368e-15 18.8693 -8.94953
300 1 7.86199 1.57216 20.4415 -8.94955
301 1 9.43449 8.54963e-16 18.8694 -8.94955
302 1 11.007 1.57214 20.4415 -8.94956
303 1 12.5795 7.70745e-16 18.8693 -8.94954
304 1 14.1519 1.57215 20.4415 -8.94953
305 1 15.7244 9.23998e-16 18.8693 -8.94956
306 1 17.2969 1.57215 20.4415 -8.94963
307 1 18.8693 1.01152e-15 18.8693 -8.94944
308 1 20.4417 1.57224 20.4415 -8.94928
309 1 1.67862e-05 3.14462 18.8693 -8.94957
310 1 1.5723 4.71716 20.4415 -8.94971
311 1 3.14431 3.14435 18.8696 -8.94942
312 1 4.71674 4.71682 20.4415 -8.95001
313 1 6.28938 3.14433 18.8695 -8.9495
314 1 7.86178 4.71666 20.4415 -8.94951
315 1 9.43442 3.14423 18.8695 -8.94952
316 1 11.0069 4.71654 20.4415 -8.94954
317 1 12.5795 3.14421 18.8695 -8.94947
318 1 14.152 4.71653 20.4415 -8.94957
319 1 15.7246 3.14419 18.8695 -8.94964
320 1 17.2974 4.71647 20.4415 -8.94955
321 1 18.8696 3.14427 18.8694 -8.94914
322 1 20.4418 4.717 20.4415 -8.94954
323 1 22.014 6.28953 18.8693 -8.94952
324 1 1.5723 7.86205 20.4415 -8.94954
325 1 3.14452 6.28964 18.8694 -8.94972
326 1 4.7169 7.86215 20.4415 -8.94952
327 1 6.28902 6.28919 18.8702 -8.95067
328 1 7.86176 7.86199 20.4415 -8.95048
329 1 9.43413 6.28883 18.8701 -8.94959
330 1 11.0066 7.86159 20.4415 -8.9502
331 1 12.5795 6.28873 18.8702 -8.94963
332 1 14.1523 7.86146 20.4415 -8.9508
333 1 15.7253 6.28849 18.8704 -8.95008
334 1 17.2975 7.86162 20.4415 -8.94943
335 1 18.8698 6.28918 18.8695 -8.94947
336 1 20.4419 7.86194 20.4415 -8.94954
337 1 0.000130627 9.43447 18.8693 -8.94955
45 1 6.28922 9.43464 22.0135 -8.94934
5 1 6.28953 4.6408e-16 22.0136 -8.94953
9 1 12.5795 2.26747e-16 22.0136 -8.94954
43 1 0.000130627 9.43447 22.0136 -8.94955
15 1 1.67862e-05 3.14462 22.0137 -8.94957
17 1 3.14431 3.14435 22.0134 -8.94942
19 1 6.28938 3.14433 22.0134 -8.9495
25 1 15.7246 3.14419 22.0135 -8.94964
41 1 18.8698 6.28918 22.0134 -8.94947
31 1 3.14452 6.28964 22.0135 -8.94972
13 1 18.8693 5.6718e-16 22.0137 -8.94944
23 1 12.5795 3.14421 22.0134 -8.94947
39 1 15.7253 6.28849 22.0126 -8.95008
182 1 20.4415 1.57216 11.007 -8.94956
193 1 11.0177 7.856 11.0291 -8.96692
344 1 1.5722 11.007 1.57186 -8.94956
345 1 4.71658 11.007 1.57156 -8.94963
346 1 7.86168 11.007 1.5719 -8.94836
347 1 11.007 11.007 1.57065 -8.94778
348 1 14.1544 11.007 1.56786 -8.9499
349 1 17.2985 11.007 1.57066 -8.94934
350 1 20.4422 11.007 1.57177 -8.9495
688 3 10.2969 11.007 9.43453 2.19155
352 1 1.5722 14.1519 1.57191 -8.94942
353 1 3.14448 12.5794 -0.000345887 -8.94955
354 1 4.71665 14.1517 1.57156 -8.94961
687 2 11.6641 11.007 9.43453 0.184786
356 1 7.86134 14.1524 1.56976 -8.95255
511 1 18.8694 18.8697 9.43453 -8.94958
358 1 11.0067 14.1531 1.56933 -8.95041
510 1 15.7251 18.8702 9.43453 -8.94907
360 1 14.1539 14.1538 1.56804 -8.95183
509 1 12.5795 18.8711 9.43453 -8.95107
362 1 17.2985 14.1528 1.5707 -8.94916
363 1 18.8699 12.5796 -0.000518607 -8.94948
364 1 20.4422 14.1521 1.57181 -8.94945
508 1 9.43412 18.8703 9.43453 -8.94613
366 1 1.57203 17.297 1.57184 -8.94984
507 1 6.287 18.8731 9.43453 -8.9495
368 1 4.71589 17.2979 1.57055 -8.94924
369 1 6.28902 15.7247 -0.00110295 -8.95067
370 1 7.86157 17.2978 1.5709 -8.94914
371 1 9.43413 15.7251 -0.00104855 -8.94959
372 1 11.007 17.298 1.57095 -8.94935
506 1 3.14312 18.8705 9.43453 -8.94946
374 1 14.1525 17.2982 1.5709 -8.94959
526 1 1.57067 17.2978 11.0074 -8.94928
376 1 17.2983 17.2983 1.57092 -8.94805
505 1 22.0134 18.8696 9.43453 -8.94952
378 1 20.442 17.2972 1.57191 -8.94952
504 1 18.8698 15.7252 9.43453 -8.94925
380 1 1.57193 20.4418 1.57192 -8.9492
503 1 15.7254 15.7259 9.43453 -8.9461
382 1 4.71682 20.4419 1.57177 -8.94962
502 1 12.5774 15.7313 9.43453 -8.95984
384 1 7.86194 20.4419 1.57177 -8.94948
385 1 9.43442 18.8697 -0.000477878 -8.94952
386 1 11.007 20.442 1.57178 -8.94951
525 1 20.4417 14.1522 11.0069 -8.94986
388 1 14.1521 20.442 1.57188 -8.94948
501 1 9.42908 15.7209 9.43453 -8.99878
390 1 17.2972 20.442 1.57189 -8.94954
391 1 18.8696 18.8696 -0.00035847 -8.94914
392 1 20.4416 20.4417 1.57217 -8.94955
393 1 1.57179 11.007 4.71638 -8.94959
394 1 4.71537 11.007 4.71544 -8.94663
395 1 7.86288 11.007 4.71824 -8.94481
396 1 11.012 11.007 4.71545 -9.01433
397 1 14.1639 11.007 4.70441 -8.94383
398 1 17.3021 11.007 4.71412 -8.94857
399 1 20.4429 11.007 4.71644 -8.94993
400 1 22.0141 12.5795 3.14417 -8.94955
401 1 1.57166 14.1518 4.71664 -8.94994
402 1 3.14398 12.5794 3.14387 -8.94899
403 1 4.71444 14.1521 4.71546 -8.95191
404 1 6.28882 12.5788 3.14379 -8.9487
405 1 7.85391 14.1603 4.70552 -8.9499
406 1 9.43439 12.5802 3.14205 -8.9522
407 1 11.0076 14.1581 4.70767 -8.94976
408 1 12.583 12.5815 3.13526 -8.95906
409 1 14.1666 14.1659 4.70221 -8.9281
410 1 15.7289 12.5811 3.14005 -8.9476
411 1 17.302 14.1546 4.71444 -8.95025
412 1 18.8711 12.5799 3.14347 -8.94926
413 1 20.4427 14.1523 4.71662 -8.95027
414 1 0.000120429 15.7245 3.1443 -8.94986
415 1 1.57085 17.2976 4.71621 -8.94968
416 1 3.14357 15.7247 3.14364 -8.95043
417 1 4.71287 17.3008 4.71308 -8.94475
418 1 6.28616 15.7275 3.13975 -8.94911
419 1 7.86042 17.3008 4.71432 -8.94944
420 1 9.4337 15.7271 3.14128 -8.94763
421 1 11.0073 17.3004 4.71447 -8.94793
422 1 12.5807 15.7275 3.14091 -8.94863
423 1 14.1547 17.3017 4.71429 -8.9507
424 1 15.7292 15.7292 3.13989 -8.94396
425 1 17.2982 17.2983 4.7165 -8.94992
426 1 18.871 15.7255 3.14362 -8.94952
427 1 20.4416 17.2972 4.71697 -8.94993
428 1 22.0135 18.8695 3.14438 -8.94957
429 1 1.57177 20.4419 4.71682 -8.94949
430 1 3.14339 18.8703 3.1434 -8.94828
431 1 4.71618 20.4426 4.71619 -8.94998
432 1 6.28881 18.8706 3.14337 -8.94967
433 1 7.86179 20.4427 4.71628 -8.94968
434 1 9.43437 18.8706 3.14349 -8.94937
435 1 11.0072 20.4426 4.71636 -8.94965
436 1 12.5798 18.8707 3.14364 -8.94911
437 1 14.1523 20.4426 4.71675 -8.95066
438 1 15.7255 18.871 3.14358 -8.94966
439 1 17.2971 20.442 4.71704 -8.94965
440 1 18.8696 18.8697 3.14442 -8.94971
441 1 20.4415 20.4417 4.71712 -8.94956
442 1 1.57195 11.007 7.86181 -8.94778
443 1 4.71899 11.007 7.8625 -8.93933
444 1 7.88386 11.007 7.87073 -8.96972
445 1 11.0742 11.007 7.58069 -8.31423
446 1 14.1685 11.007 7.84502 -9.0167
447 1 17.3008 11.007 7.86214 -8.95371
448 1 20.4424 11.007 7.86223 -8.94987
449 1 0.000113151 12.5794 6.28933 -8.95007
450 1 1.56991 14.1522 7.86181 -8.95172
451 1 3.14311 12.5787 6.28907 -8.94999
452 1 4.70679 14.1558 7.85972 -8.95785
453 1 6.2852 12.5774 6.28903 -8.95502
454 1 7.82183 14.1885 7.83109 -8.85981
455 1 9.41318 12.609 6.27742 -8.9343
456 1 11.0177 14.1579 7.83994 -8.96692
457 1 12.6257 12.6185 6.24834 -8.892
458 1 14.1581 14.1561 7.86011 -8.97766
459 1 15.7374 12.5833 6.28352 -8.95646
460 1 17.2984 14.1523 7.86308 -8.95138
461 1 18.8724 12.5799 6.28902 -8.95226
462 1 20.4417 14.1522 7.86218 -8.94986
463 1 22.0131 15.7247 6.2893 -8.95023
464 1 1.57067 17.2978 7.86169 -8.94928
465 1 3.1404 15.7264 6.28759 -8.95079
466 1 4.71311 17.3006 7.86066 -8.94762
467 1 6.27661 15.7368 6.27803 -8.93088
468 1 7.85855 17.305 7.86082 -8.95924
469 1 9.4329 15.7342 6.28446 -8.95259
470 1 11.0053 17.2994 7.86144 -8.94939
471 1 12.5849 15.7357 6.28355 -8.95595
472 1 14.1532 17.2995 7.86198 -8.94826
473 1 15.7278 15.7274 6.28835 -8.95014
474 1 17.2976 17.2976 7.86219 -8.94916
475 1 18.8701 15.7249 6.28971 -8.95023
476 1 20.4414 17.2973 7.86201 -8.94953
477 1 -0.000507418 18.8696 6.28941 -8.94945
478 1 1.5717 20.4419 7.86194 -8.94951
479 1 3.14322 18.8705 6.28882 -8.9492
480 1 4.71595 20.4427 7.86166 -8.94938
481 1 6.28766 18.8729 6.28795 -8.95148
482 1 7.86172 20.4432 7.86193 -8.95139
483 1 9.43435 18.8723 6.28831 -8.95051
484 1 11.0069 20.4424 7.86203 -8.94937
485 1 12.5797 18.8718 6.28924 -8.95239
486 1 14.1524 20.4423 7.86205 -8.94968
487 1 15.7252 18.8705 6.28945 -8.94952
488 1 17.2972 20.4419 7.86206 -8.94945
489 1 18.8694 18.8696 6.28961 -8.9495
490 1 20.4415 20.4417 7.86205 -8.94956
491 1 22.0134 12.5794 9.43453 -8.94928
492 1 3.14216 12.5791 9.43453 -8.95125
493 1 6.2808 12.5865 9.43453 -8.97369
494 1 9.35162 12.792 9.43453 -8.19255
495 1 12.5906 12.6147 9.43453 -9.1251
496 1 15.7191 12.5765 9.43453 -8.98627
497 1 18.8695 12.5798 9.43453 -8.94618
498 1 -0.00107758 15.7249 9.43453 -8.94995
499 1 3.14012 15.7268 9.43453 -8.94906
500 1 6.2785 15.7346 9.43453 -8.94143
517 1 17.3008 11.007 11.0069 -8.95371
518 1 20.4424 11.007 11.0068 -8.94987
524 1 17.2984 14.1523 11.006 -8.95138
523 1 14.1581 14.1561 11.009 -8.97766
527 1 4.71311 17.3006 11.0084 -8.94762
534 1 4.71595 20.4427 11.0074 -8.94938
538 1 17.2972 20.4419 11.007 -8.94945
365 1 22.014 15.7244 -0.000234046 -8.94952
373 1 12.5795 15.7252 -0.0011524 -8.94963
512 1 1.57195 11.007 11.0072 -8.94778
513 1 4.71899 11.007 11.0066 -8.93933
514 1 7.88386 11.007 10.9983 -8.96972
515 1 11.0742 11.007 11.2884 -8.31423
516 1 14.1685 11.007 11.024 -9.0167
686 1 20.4417 20.4417 20.4415 -8.94928
685 1 18.8696 18.8696 18.8694 -8.94914
519 1 1.56991 14.1522 11.0072 -8.95172
520 1 4.70679 14.1558 11.0093 -8.95785
521 1 7.82183 14.1885 11.038 -8.85981
684 1 17.2969 20.4417 20.4415 -8.94963
683 1 15.7246 18.8697 18.8695 -8.94964
682 1 14.1519 20.4417 20.4415 -8.94953
681 1 12.5795 18.8697 18.8695 -8.94947
680 1 11.007 20.4418 20.4415 -8.94956
389 1 15.7246 18.8697 22.0135 -8.94964
528 1 7.85855 17.305 11.0082 -8.95924
529 1 11.0053 17.2994 11.0076 -8.94939
530 1 14.1532 17.2995 11.0071 -8.94826
531 1 17.2976 17.2976 11.0069 -8.94916
532 1 20.4414 17.2973 11.0071 -8.94953
533 1 1.5717 20.4419 11.0071 -8.94951
383 1 6.28938 18.8696 22.0134 -8.9495
535 1 7.86172 20.4432 11.0071 -8.95139
536 1 11.0069 20.4424 11.007 -8.94937
537 1 14.1524 20.4423 11.007 -8.94968
381 1 3.14431 18.8696 22.0134 -8.94942
679 1 9.43442 18.8697 18.8695 -8.94952
540 1 1.57179 11.007 14.1527 -8.94959
541 1 4.71537 11.007 14.1536 -8.94663
542 1 7.86288 11.007 14.1508 -8.94481
543 1 11.012 11.007 14.1536 -9.01433
544 1 14.1639 11.007 14.1646 -8.94383
545 1 17.3021 11.007 14.1549 -8.94857
546 1 20.4429 11.007 14.1526 -8.94993
547 1 0.000113151 12.5794 12.5797 -8.95007
548 1 1.57166 14.1518 14.1524 -8.94994
549 1 3.14311 12.5787 12.58 -8.94999
550 1 4.71444 14.1521 14.1536 -8.95191
551 1 6.2852 12.5774 12.58 -8.95502
552 1 7.85391 14.1603 14.1635 -8.9499
553 1 9.41318 12.609 12.5916 -8.9343
554 1 11.0076 14.1581 14.1614 -8.94976
555 1 12.6257 12.6185 12.6207 -8.892
556 1 14.1666 14.1659 14.1669 -8.9281
557 1 15.7374 12.5833 12.5855 -8.95646
558 1 17.302 14.1546 14.1546 -8.95025
559 1 18.8724 12.5799 12.58 -8.95226
560 1 20.4427 14.1523 14.1524 -8.95027
561 1 22.0131 15.7247 12.5798 -8.95023
562 1 1.57085 17.2976 14.1528 -8.94968
563 1 3.1404 15.7264 12.5815 -8.95079
564 1 4.71287 17.3008 14.156 -8.94475
565 1 6.27661 15.7368 12.591 -8.93088
566 1 7.86042 17.3008 14.1547 -8.94944
567 1 9.4329 15.7342 12.5846 -8.95259
568 1 11.0073 17.3004 14.1546 -8.94793
569 1 12.5849 15.7357 12.5855 -8.95595
570 1 14.1547 17.3017 14.1548 -8.9507
571 1 15.7278 15.7274 12.5807 -8.95014
572 1 17.2982 17.2983 14.1526 -8.94992
573 1 18.8701 15.7249 12.5794 -8.95023
574 1 20.4416 17.2972 14.1521 -8.94993
575 1 -0.000507418 18.8696 12.5796 -8.94945
576 1 1.57177 20.4419 14.1522 -8.94949
577 1 3.14322 18.8705 12.5802 -8.9492
578 1 4.71618 20.4426 14.1529 -8.94998
579 1 6.28766 18.8729 12.5811 -8.95148
580 1 7.86179 20.4427 14.1528 -8.94968
581 1 9.43435 18.8723 12.5807 -8.95051
582 1 11.0072 20.4426 14.1527 -8.94965
583 1 12.5797 18.8718 12.5798 -8.95239
584 1 14.1523 20.4426 14.1523 -8.95066
585 1 15.7252 18.8705 12.5796 -8.94952
586 1 17.2971 20.442 14.152 -8.94965
587 1 18.8694 18.8696 12.5794 -8.9495
588 1 20.4415 20.4417 14.1519 -8.94956
589 1 1.5722 11.007 17.2972 -8.94956
590 1 4.71658 11.007 17.2975 -8.94963
591 1 7.86168 11.007 17.2972 -8.94836
592 1 11.007 11.007 17.2984 -8.94778
593 1 14.1544 11.007 17.3012 -8.9499
594 1 17.2985 11.007 17.2984 -8.94934
595 1 20.4422 11.007 17.2973 -8.9495
596 1 22.0141 12.5795 15.7249 -8.94955
597 1 1.5722 14.1519 17.2971 -8.94942
598 1 3.14398 12.5794 15.7252 -8.94899
599 1 4.71665 14.1517 17.2975 -8.94961
600 1 6.28882 12.5788 15.7253 -8.9487
601 1 7.86134 14.1524 17.2993 -8.95255
602 1 9.43439 12.5802 15.727 -8.9522
603 1 11.0067 14.1531 17.2997 -8.95041
604 1 12.583 12.5815 15.7338 -8.95906
605 1 14.1539 14.1538 17.301 -8.95183
606 1 15.7289 12.5811 15.729 -8.9476
607 1 17.2985 14.1528 17.2984 -8.94916
608 1 18.8711 12.5799 15.7256 -8.94926
609 1 20.4422 14.1521 17.2972 -8.94945
610 1 0.000120429 15.7245 15.7248 -8.94986
611 1 1.57203 17.297 17.2972 -8.94984
612 1 3.14357 15.7247 15.7254 -8.95043
613 1 4.71589 17.2979 17.2985 -8.94924
614 1 6.28616 15.7275 15.7293 -8.94911
615 1 7.86157 17.2978 17.2982 -8.94914
616 1 9.4337 15.7271 15.7278 -8.94763
617 1 11.007 17.298 17.2981 -8.94935
618 1 12.5807 15.7275 15.7281 -8.94863
619 1 14.1525 17.2982 17.2982 -8.94959
620 1 15.7292 15.7292 15.7292 -8.94396
621 1 17.2983 17.2983 17.2981 -8.94805
622 1 18.871 15.7255 15.7254 -8.94952
623 1 20.442 17.2972 17.2971 -8.94952
624 1 22.0135 18.8695 15.7247 -8.94957
625 1 1.57193 20.4418 17.2971 -8.9492
626 1 3.14339 18.8703 15.7257 -8.94828
627 1 4.71682 20.4419 17.2973 -8.94962
628 1 6.28881 18.8706 15.7257 -8.94967
629 1 7.86194 20.4419 17.2973 -8.94948
630 1 9.43437 18.8706 15.7256 -8.94937
631 1 11.007 20.442 17.2973 -8.94951
632 1 12.5798 18.8707 15.7254 -8.94911
633 1 14.1521 20.442 17.2972 -8.94948
634 1 15.7255 18.871 15.7255 -8.94966
635 1 17.2972 20.442 17.2972 -8.94954
636 1 18.8696 18.8697 15.7246 -8.94971
637 1 20.4416 20.4417 17.2969 -8.94955
638 1 1.57228 11.007 20.4415 -8.94958
639 1 4.71683 11.007 20.4415 -8.94965
640 1 7.86167 11.007 20.4415 -8.94922
641 1 11.0066 11.007 20.4415 -8.9488
642 1 14.1526 11.007 20.4415 -8.95045
643 1 17.2976 11.007 20.4415 -8.94948
644 1 20.4419 11.007 20.4415 -8.94955
645 1 0.000130627 12.5794 18.8693 -8.94955
646 1 1.5723 14.1519 20.4415 -8.94954
647 1 3.14448 12.5794 18.8694 -8.94955
648 1 4.7169 14.1517 20.4415 -8.94952
649 1 6.28922 12.5793 18.8695 -8.94934
650 1 7.86176 14.1519 20.4415 -8.95048
651 1 9.43425 12.5794 18.8698 -8.94961
652 1 11.0066 14.1523 20.4415 -8.9502
653 1 12.5796 12.5796 18.871 -8.95157
654 1 14.1523 14.1524 20.4415 -8.9508
655 1 15.7255 12.5798 18.8705 -8.94949
656 1 17.2975 14.1523 20.4415 -8.94943
657 1 18.8699 12.5796 18.8696 -8.94948
658 1 20.4419 14.152 20.4415 -8.94954
659 1 22.014 15.7244 18.8693 -8.94952
660 1 1.5723 17.2967 20.4415 -8.94971
661 1 3.14452 15.7243 18.8694 -8.94972
662 1 4.71674 17.2971 20.4415 -8.95001
663 1 6.28902 15.7247 18.8702 -8.95067
664 1 7.86178 17.2972 20.4415 -8.94951
665 1 9.43413 15.7251 18.8701 -8.94959
666 1 11.0069 17.2974 20.4415 -8.94954
667 1 12.5795 15.7252 18.8702 -8.94963
668 1 14.152 17.2974 20.4415 -8.94957
669 1 15.7253 15.7254 18.8704 -8.95008
670 1 17.2974 17.2974 20.4415 -8.94955
671 1 18.8698 15.7247 18.8695 -8.94947
672 1 20.4418 17.2969 20.4415 -8.94954
673 1 1.67862e-05 18.8693 18.8693 -8.94957
674 1 1.57219 20.4417 20.4415 -8.94938
675 1 3.14431 18.8696 18.8696 -8.94942
676 1 4.71706 20.4417 20.4415 -8.94957
677 1 6.28938 18.8696 18.8695 -8.9495
678 1 7.86199 20.4417 20.4415 -8.94955
351 1 0.000130627 12.5794 22.0136 -8.94955
355 1 6.28922 12.5793 22.0135 -8.94934
357 1 9.43425 12.5794 22.0131 -8.94961
359 1 12.5796 12.5796 22.012 -8.95157
361 1 15.7255 12.5798 22.0125 -8.94949
379 1 1.67862e-05 18.8693 22.0137 -8.94957
367 1 3.14452 15.7243 22.0135 -8.94972
377 1 18.8698 15.7247 22.0134 -8.94947
375 1 15.7253 15.7254 22.0126 -8.95008
539 1 20.4415 20.4417 11.007 -8.94956
387 1 12.5795 18.8697 22.0134 -8.94947
522 1 11.0177 14.1579 11.0291 -8.96692
