ITEM: TIMESTEP
93
ITEM: NUMBER OF ATOMS
688
ITEM: BOX BOUNDS pp pp pp
0.0000000000000000e+00 2.2013900999999997e+01
0.0000000000000000e+00 2.2013900999999997e+01
0.0000000000000000e+00 2.2013900999999997e+01
ITEM: ATOMS id type x y z c_pot
1 1 22.0138 2.01421e-16 -0.000205138 -8.94923
2 1 1.57183 1.57206 1.57182 -8.94918
175 1 18.8694 9.43414 9.43453 -8.94607
4 1 4.7167 1.57191 1.57164 -8.94961
174 1 15.7187 9.43759 9.43453 -8.98584
6 1 7.86187 1.5719 1.57165 -8.94946
7 1 9.43447 6.91339e-16 -0.00035249 -8.94953
8 1 11.007 1.57187 1.57168 -8.94949
173 1 12.5907 9.39993 9.43453 -9.12293
10 1 14.1522 1.57184 1.57178 -8.94947
172 1 9.35217 9.22391 9.43453 -8.1943
12 1 17.2973 1.57179 1.5718 -8.94954
196 1 20.4416 7.86171 11.0069 -8.94984
14 1 20.4416 1.57212 1.57211 -8.94953
171 1 6.28093 9.42732 9.43453 -8.97364
16 1 1.57197 4.71686 1.57172 -8.94984
170 1 3.1422 9.43475 9.43453 -8.95121
18 1 4.71573 4.71588 1.57038 -8.94922
169 1 22.0134 9.43452 9.43453 -8.94922
20 1 7.86145 4.71592 1.57074 -8.94912
21 1 9.43438 3.14413 -0.000546452 -8.9495
22 1 11.007 4.71576 1.5708 -8.94933
195 1 17.2983 7.86167 11.006 -8.95138
24 1 14.1527 4.71553 1.57071 -8.94958
168 1 18.8698 6.28869 9.43453 -8.94925
26 1 17.2985 4.71538 1.57077 -8.94802
27 1 18.8698 3.14415 -0.00041936 -8.9491
28 1 20.4421 4.71663 1.57182 -8.9495
167 1 15.7253 6.28805 9.43453 -8.94613
30 1 1.5722 7.862 1.57183 -8.94941
166 1 12.5773 6.28288 9.43453 -8.95973
32 1 4.71656 7.8622 1.57147 -8.9496
33 1 6.28892 6.28911 -0.00118863 -8.95069
34 1 7.86125 7.86138 1.56964 -8.95256
35 1 9.43408 6.28872 -0.00113157 -8.9496
36 1 11.0067 7.86061 1.56915 -8.95042
165 1 9.42908 6.29298 9.43453 -8.99835
38 1 14.1541 7.85987 1.56777 -8.95183
194 1 14.1579 7.85798 11.009 -8.97738
40 1 17.2988 7.86093 1.5705 -8.94913
164 1 6.27828 6.27907 9.43453 -8.94144
42 1 20.4423 7.86172 1.57171 -8.94944
163 1 3.13987 6.28694 9.43453 -8.94905
44 1 3.14446 9.43452 -0.00038013 -8.94954
162 1 -0.00120191 6.28887 9.43453 -8.94996
161 1 18.8694 3.14418 9.43453 -8.94956
160 1 15.7251 3.14364 9.43453 -8.94905
159 1 12.5794 3.1429 9.43453 -8.95102
49 1 18.8701 9.43428 -0.000602489 -8.94945
50 1 -0.00031828 4.6117e-17 3.14453 -8.94954
51 1 1.57163 1.57195 4.71671 -8.94946
52 1 3.14399 7.72282e-16 3.14399 -8.94952
53 1 4.71601 1.57116 4.71604 -8.94998
54 1 6.28923 1.17315e-15 3.14395 -8.94958
55 1 7.8617 1.57113 4.71616 -8.94972
56 1 9.43452 1.32492e-15 3.14396 -8.94956
57 1 11.0072 1.57124 4.71627 -8.94968
58 1 12.5797 1.14741e-15 3.1441 -8.94954
59 1 14.1524 1.57123 4.7167 -8.9507
60 1 15.7248 9.61355e-16 3.14429 -8.9501
61 1 17.2972 1.57186 4.717 -8.94966
62 1 18.8693 8.02475e-17 3.14459 -8.94964
63 1 20.4414 1.57214 4.71706 -8.94954
64 1 22.0135 3.1443 3.14428 -8.94957
65 1 1.5707 4.71615 4.71609 -8.94968
66 1 3.14322 3.14347 3.14324 -8.94828
67 1 4.71263 4.71295 4.71291 -8.9448
68 1 6.28864 3.14315 3.14319 -8.94968
69 1 7.86022 4.71287 4.71415 -8.94948
70 1 9.43431 3.14317 3.14335 -8.94937
71 1 11.0074 4.71325 4.71427 -8.94794
72 1 12.5799 3.14307 3.1435 -8.94911
73 1 14.1549 4.71191 4.7141 -8.95073
74 1 15.7257 3.14272 3.14344 -8.94967
75 1 17.2984 4.71548 4.71641 -8.94996
76 1 18.8697 3.14403 3.14434 -8.94972
77 1 20.4416 4.71662 4.7169 -8.94995
78 1 0.000138954 6.28928 3.1442 -8.94988
79 1 1.5716 7.86204 4.71657 -8.94997
80 1 3.14342 6.28914 3.1435 -8.95045
81 1 4.71425 7.86163 4.71535 -8.95194
82 1 6.28593 6.28618 3.13954 -8.94903
83 1 7.85364 7.85321 4.70529 -8.94959
84 1 9.43362 6.28651 3.14106 -8.94759
85 1 11.0077 7.85547 4.70726 -8.94959
86 1 12.5809 6.28616 3.14062 -8.94859
87 1 14.167 7.84773 4.70176 -8.9279
88 1 15.7295 6.28444 3.13961 -8.94388
89 1 17.3023 7.85917 4.71422 -8.95025
90 1 18.8712 6.28825 3.14348 -8.94952
91 1 20.4429 7.86153 4.71654 -8.9503
92 1 22.0142 9.43438 3.14408 -8.94956
93 1 3.14394 9.43451 3.14381 -8.94899
94 1 6.28873 9.43499 3.14372 -8.94865
95 1 9.43438 9.43356 3.14182 -8.95226
96 1 12.5833 9.43226 3.13483 -8.95907
97 1 15.7293 9.43265 3.13969 -8.94757
98 1 18.8714 9.43397 3.1433 -8.94926
99 1 22.0135 3.36681e-16 6.28947 -8.94952
100 1 1.57153 1.5719 7.86189 -8.94948
101 1 3.14381 1.58383e-15 6.28913 -8.94938
102 1 4.71574 1.57105 7.86159 -8.94938
103 1 6.28895 8.56989e-15 6.28901 -8.95063
104 1 7.8616 1.57063 7.8619 -8.95139
105 1 9.43455 2.80501e-15 6.28904 -8.95027
106 1 11.0068 1.5715 7.86203 -8.94934
107 1 12.5796 3.08122e-15 6.28949 -8.95035
108 1 14.1524 1.57156 7.86206 -8.94967
109 1 15.7248 -1.0718e-15 6.28953 -8.94964
110 1 17.2972 1.57198 7.86206 -8.94943
111 1 18.8693 3.45878e-16 6.28958 -8.9495
112 1 20.4414 1.57211 7.86203 -8.94954
113 1 -0.000614556 3.14421 6.28935 -8.94944
114 1 1.57046 4.71596 7.86164 -8.94928
115 1 3.14299 3.14326 6.28869 -8.94918
116 1 4.7128 4.71309 7.86058 -8.94763
117 1 6.28745 3.14085 6.28784 -8.95147
118 1 7.85834 4.70875 7.86078 -8.9592
119 1 9.43426 3.14146 6.28823 -8.95056
120 1 11.0053 4.71458 7.86136 -8.94931
121 1 12.5797 3.14205 6.28917 -8.95243
122 1 14.1531 4.71445 7.86195 -8.94822
123 1 15.7252 3.14334 6.28942 -8.94953
124 1 17.2976 4.71621 7.86218 -8.94916
125 1 18.8694 3.14424 6.28959 -8.94949
126 1 20.4414 4.71653 7.86199 -8.94953
127 1 22.013 6.28908 6.28926 -8.95024
128 1 1.56983 7.8616 7.8618 -8.95171
129 1 3.14019 6.28737 6.2875 -8.95078
130 1 4.70669 7.85786 7.85971 -8.95778
131 1 6.27644 6.27697 6.278 -8.9311
132 1 7.82208 7.82549 7.83137 -8.86087
133 1 9.43278 6.27953 6.28429 -8.95273
134 1 11.0177 7.85626 7.83978 -8.96762
135 1 12.585 6.27808 6.28329 -8.95605
136 1 14.1579 7.85798 7.86002 -8.97738
137 1 15.7279 6.28639 6.28826 -8.95023
138 1 17.2983 7.86167 7.86307 -8.95138
139 1 18.8702 6.28895 6.28968 -8.95026
140 1 20.4416 7.86171 7.86218 -8.94984
141 1 0.000149609 9.43452 6.28931 -8.95009
142 1 3.14308 9.4351 6.28906 -8.95003
143 1 6.2851 9.43628 6.28897 -8.95511
144 1 9.41288 9.40445 6.27673 -8.93381
145 1 12.626 9.39513 6.24756 -8.89127
146 1 15.7377 9.43055 6.28319 -8.95649
147 1 18.8725 9.43402 6.28893 -8.95231
148 1 -0.000400442 6.68301e-16 9.43453 -8.94954
149 1 3.14374 1.09201e-15 9.43453 -8.94946
150 1 6.28862 2.05608e-15 9.43453 -8.95036
151 1 9.43454 -9.55641e-16 9.43453 -8.94841
152 1 12.5797 -2.49126e-15 9.43453 -8.94992
153 1 15.7248 -7.36403e-16 9.43453 -8.94953
154 1 18.8693 6.10882e-16 9.43453 -8.94955
155 1 22.0132 3.14416 9.43453 -8.94951
156 1 3.14287 3.14319 9.43453 -8.94945
157 1 6.28675 3.1406 9.43453 -8.9495
158 1 9.434 3.14365 9.43453 -8.94613
183 1 1.57046 4.71596 11.0074 -8.94928
177 1 4.71574 1.57105 11.0075 -8.94938
181 1 17.2972 1.57198 11.007 -8.94943
184 1 4.7128 4.71309 11.0085 -8.94763
3 1 3.14449 -3.82909e-17 -0.000329571 -8.94957
11 1 15.7245 1.08557e-15 -0.000285712 -8.94954
29 1 22.0141 6.28948 -0.000289269 -8.9495
37 1 12.5796 6.28859 -0.00126587 -8.94964
176 1 1.57153 1.5719 11.0072 -8.94948
48 1 15.7258 9.43397 22.0123 -8.9495
178 1 7.8616 1.57063 11.0072 -8.95139
179 1 11.0068 1.5715 11.007 -8.94934
180 1 14.1524 1.57156 11.007 -8.94967
47 1 12.5797 9.43423 22.0119 -8.95163
343 1 18.8701 9.43428 18.8697 -8.94945
342 1 15.7258 9.43397 18.8707 -8.9495
46 1 9.43424 9.43452 22.0131 -8.94963
185 1 7.85834 4.70875 11.0083 -8.9592
186 1 11.0053 4.71458 11.0077 -8.94931
187 1 14.1531 4.71445 11.0071 -8.94822
188 1 17.2976 4.71621 11.0069 -8.94916
189 1 20.4414 4.71653 11.0071 -8.94953
190 1 1.56983 7.8616 11.0073 -8.95171
191 1 4.70669 7.85786 11.0094 -8.95778
192 1 7.82208 7.82549 11.0377 -8.86087
341 1 12.5797 9.43423 18.8711 -8.95163
340 1 9.43424 9.43452 18.8699 -8.94963
339 1 6.28918 9.43463 18.8695 -8.94933
338 1 3.14446 9.43452 18.8694 -8.94954
197 1 22.0135 7.05531e-16 12.5796 -8.94952
198 1 1.57163 1.57195 14.1524 -8.94946
199 1 3.14381 2.0378e-15 12.5799 -8.94938
200 1 4.71601 1.57116 14.153 -8.94998
201 1 6.28895 9.57434e-15 12.58 -8.95063
202 1 7.8617 1.57113 14.1529 -8.94972
203 1 9.43455 4.12108e-15 12.58 -8.95027
204 1 11.0072 1.57124 14.1528 -8.94968
205 1 12.5796 3.1332e-15 12.5796 -8.95035
206 1 14.1524 1.57123 14.1524 -8.9507
207 1 15.7248 -7.71121e-16 12.5795 -8.94964
208 1 17.2972 1.57186 14.1521 -8.94966
209 1 18.8693 4.48212e-16 12.5795 -8.9495
210 1 20.4414 1.57214 14.152 -8.94954
211 1 -0.000614556 3.14421 12.5797 -8.94944
212 1 1.5707 4.71615 14.153 -8.94968
213 1 3.14299 3.14326 12.5804 -8.94918
214 1 4.71263 4.71295 14.1561 -8.9448
215 1 6.28745 3.14085 12.5812 -8.95147
216 1 7.86022 4.71287 14.1549 -8.94948
217 1 9.43426 3.14146 12.5808 -8.95056
218 1 11.0074 4.71325 14.1548 -8.94794
219 1 12.5797 3.14205 12.5799 -8.95243
220 1 14.1549 4.71191 14.155 -8.95073
221 1 15.7252 3.14334 12.5796 -8.94953
222 1 17.2984 4.71548 14.1527 -8.94996
223 1 18.8694 3.14424 12.5795 -8.94949
224 1 20.4416 4.71662 14.1522 -8.94995
225 1 22.013 6.28908 12.5798 -8.95024
226 1 1.5716 7.86204 14.1525 -8.94997
227 1 3.14019 6.28737 12.5816 -8.95078
228 1 4.71425 7.86163 14.1537 -8.95194
229 1 6.27644 6.27697 12.5911 -8.9311
230 1 7.85364 7.85321 14.1638 -8.94959
231 1 9.43278 6.27953 12.5848 -8.95273
232 1 11.0077 7.85547 14.1618 -8.94959
233 1 12.585 6.27808 12.5858 -8.95605
234 1 14.167 7.84773 14.1673 -8.9279
235 1 15.7279 6.28639 12.5808 -8.95023
236 1 17.3023 7.85917 14.1548 -8.95025
237 1 18.8702 6.28895 12.5794 -8.95026
238 1 20.4429 7.86153 14.1525 -8.9503
239 1 0.000149609 9.43452 12.5797 -8.95009
240 1 3.14308 9.4351 12.58 -8.95003
241 1 6.2851 9.43628 12.5801 -8.95511
242 1 9.41288 9.40445 12.5923 -8.93381
243 1 12.626 9.39513 12.6215 -8.89127
244 1 15.7377 9.43055 12.5859 -8.95649
245 1 18.8725 9.43402 12.5801 -8.95231
246 1 -0.00031828 1.31389e-15 15.7245 -8.94954
247 1 1.57183 1.57206 17.2972 -8.94918
248 1 3.14399 2.02748e-15 15.7251 -8.94952
249 1 4.7167 1.57191 17.2974 -8.94961
250 1 6.28923 2.1493e-15 15.7251 -8.94958
251 1 7.86187 1.5719 17.2974 -8.94946
252 1 9.43452 1.83509e-15 15.7251 -8.94956
253 1 11.007 1.57187 17.2974 -8.94949
254 1 12.5797 1.67118e-15 15.725 -8.94954
255 1 14.1522 1.57184 17.2973 -8.94947
256 1 15.7248 9.32407e-16 15.7248 -8.9501
257 1 17.2973 1.57179 17.2973 -8.94954
258 1 18.8693 -2.81386e-16 15.7245 -8.94964
259 1 20.4416 1.57212 17.297 -8.94953
260 1 22.0135 3.1443 15.7248 -8.94957
261 1 1.57197 4.71686 17.2973 -8.94984
262 1 3.14322 3.14347 15.7258 -8.94828
263 1 4.71573 4.71588 17.2987 -8.94922
264 1 6.28864 3.14315 15.7259 -8.94968
265 1 7.86145 4.71592 17.2983 -8.94912
266 1 9.43431 3.14317 15.7257 -8.94937
267 1 11.007 4.71576 17.2983 -8.94933
268 1 12.5799 3.14307 15.7256 -8.94911
269 1 14.1527 4.71553 17.2983 -8.94958
270 1 15.7257 3.14272 15.7256 -8.94967
271 1 17.2985 4.71538 17.2983 -8.94802
272 1 18.8697 3.14403 15.7247 -8.94972
273 1 20.4421 4.71663 17.2972 -8.9495
274 1 0.000138954 6.28928 15.7249 -8.94988
275 1 1.5722 7.862 17.2972 -8.94941
276 1 3.14342 6.28914 15.7256 -8.95045
277 1 4.71656 7.8622 17.2976 -8.9496
278 1 6.28593 6.28618 15.7295 -8.94903
279 1 7.86125 7.86138 17.2994 -8.95256
280 1 9.43362 6.28651 15.728 -8.94759
281 1 11.0067 7.86061 17.2999 -8.95042
282 1 12.5809 6.28616 15.7284 -8.94859
283 1 14.1541 7.85987 17.3013 -8.95183
284 1 15.7295 6.28444 15.7294 -8.94388
285 1 17.2988 7.86093 17.2986 -8.94913
286 1 18.8712 6.28825 15.7256 -8.94952
287 1 20.4423 7.86172 17.2974 -8.94944
288 1 22.0142 9.43438 15.725 -8.94956
289 1 3.14394 9.43451 15.7252 -8.94899
290 1 6.28873 9.43499 15.7253 -8.94865
291 1 9.43438 9.43356 15.7272 -8.95226
292 1 12.5833 9.43226 15.7342 -8.95907
293 1 15.7293 9.43265 15.7294 -8.94757
294 1 18.8714 9.43397 15.7258 -8.94926
295 1 22.0138 5.5812e-16 18.8693 -8.94923
296 1 1.57213 1.57216 20.4415 -8.94934
297 1 3.14449 1.36418e-15 18.8694 -8.94957
298 1 4.71698 1.57215 20.4415 -8.94955
299 1 6.28946 1.35539e-15 18.8694 -8.94951
300 1 7.86195 1.57211 20.4415 -8.94953
301 1 9.43447 7.80915e-16 18.8694 -8.94953
302 1 11.007 1.57208 20.4415 -8.94954
303 1 12.5795 6.34696e-16 18.8694 -8.94952
304 1 14.152 1.57208 20.4415 -8.94951
305 1 15.7245 9.74506e-16 18.8693 -8.94954
306 1 17.297 1.57208 20.4415 -8.9496
307 1 18.8694 2.57293e-16 18.8693 -8.94941
308 1 20.4417 1.57219 20.4415 -8.94923
309 1 2.05095e-05 3.14454 18.8694 -8.94955
310 1 1.57228 4.71711 20.4415 -8.9497
311 1 3.14421 3.14427 18.8697 -8.9494
312 1 4.71664 4.71674 20.4415 -8.95002
313 1 6.28928 3.14423 18.8696 -8.94949
314 1 7.86171 4.71656 20.4415 -8.94951
315 1 9.43438 3.14413 18.8696 -8.9495
316 1 11.0069 4.71642 20.4415 -8.94953
317 1 12.5795 3.14408 18.8696 -8.94945
318 1 14.1521 4.71637 20.4415 -8.94957
319 1 15.7247 3.14404 18.8696 -8.94962
320 1 17.2976 4.71631 20.4415 -8.94953
321 1 18.8698 3.14415 18.8695 -8.9491
322 1 20.4419 4.71691 20.4415 -8.94952
323 1 22.0141 6.28948 18.8693 -8.9495
324 1 1.57231 7.86203 20.4415 -8.94953
325 1 3.14446 6.2896 18.8695 -8.94973
326 1 4.71684 7.86214 20.4415 -8.94952
327 1 6.28892 6.28911 18.8702 -8.95069
328 1 7.86171 7.86195 20.4415 -8.95051
329 1 9.43408 6.28872 18.8702 -8.9496
330 1 11.0066 7.86152 20.4415 -8.95023
331 1 12.5796 6.28859 18.8703 -8.94964
332 1 14.1524 7.86135 20.4415 -8.95083
333 1 15.7255 6.2883 18.8705 -8.95008
334 1 17.2977 7.8615 20.4415 -8.94942
335 1 18.87 6.28905 18.8696 -8.94944
336 1 20.442 7.86187 20.4415 -8.94951
337 1 0.000203536 9.43444 18.8694 -8.94954
45 1 6.28918 9.43463 22.0134 -8.94933
5 1 6.28946 6.47617e-16 22.0136 -8.94951
9 1 12.5795 4.47854e-16 22.0136 -8.94952
43 1 0.000203536 9.43444 22.0136 -8.94954
15 1 2.05095e-05 3.14454 22.0136 -8.94955
17 1 3.14421 3.14427 22.0133 -8.9494
19 1 6.28928 3.14423 22.0133 -8.94949
25 1 15.7247 3.14404 22.0134 -8.94962
41 1 18.87 6.28905 22.0133 -8.94944
31 1 3.14446 6.2896 22.0135 -8.94973
13 1 18.8694 -1.27041e-16 22.0136 -8.94941
23 1 12.5795 3.14408 22.0134 -8.94945
39 1 15.7255 6.2883 22.0124 -8.95008
182 1 20.4414 1.57211 11.007 -8.94954
193 1 11.0177 7.85626 11.0293 -8.96762
344 1 1.57222 11.007 1.57179 -8.94954
345 1 4.71655 11.007 1.57153 -8.94961
346 1 7.86165 11.007 1.57186 -8.94837
347 1 11.0071 11.007 1.57049 -8.94789
348 1 14.1547 11.007 1.56757 -8.94992
349 1 17.2988 11.007 1.57046 -8.94932
350 1 20.4423 11.007 1.57166 -8.94948
688 3 10.3013 11.007 9.43453 2.19182
352 1 1.5722 14.1519 1.57183 -8.94941
353 1 3.14446 12.5794 -0.00038013 -8.94954
354 1 4.71656 14.1517 1.57147 -8.9496
687 2 11.6578 11.007 9.43453 0.178392
356 1 7.86125 14.1525 1.56964 -8.95256
511 1 18.8694 18.8697 9.43453 -8.94956
358 1 11.0067 14.1533 1.56915 -8.95042
510 1 15.7251 18.8703 9.43453 -8.94905
360 1 14.1541 14.154 1.56777 -8.95183
509 1 12.5794 18.871 9.43453 -8.95102
362 1 17.2988 14.153 1.5705 -8.94913
363 1 18.8701 12.5796 -0.000602489 -8.94945
364 1 20.4423 14.1522 1.57171 -8.94944
508 1 9.434 18.8702 9.43453 -8.94613
366 1 1.57197 17.297 1.57172 -8.94984
507 1 6.28675 18.8733 9.43453 -8.9495
368 1 4.71573 17.298 1.57038 -8.94922
369 1 6.28892 15.7248 -0.00118863 -8.95069
370 1 7.86145 17.298 1.57074 -8.94912
371 1 9.43408 15.7252 -0.00113157 -8.9496
372 1 11.007 17.2981 1.5708 -8.94933
506 1 3.14287 18.8707 9.43453 -8.94945
374 1 14.1527 17.2984 1.57071 -8.94958
526 1 1.57046 17.2979 11.0074 -8.94928
376 1 17.2985 17.2985 1.57077 -8.94802
505 1 22.0132 18.8697 9.43453 -8.94951
378 1 20.4421 17.2973 1.57182 -8.9495
504 1 18.8698 15.7252 9.43453 -8.94925
380 1 1.57183 20.4418 1.57182 -8.94918
503 1 15.7253 15.7258 9.43453 -8.94613
382 1 4.7167 20.442 1.57164 -8.94961
502 1 12.5773 15.731 9.43453 -8.95973
384 1 7.86187 20.442 1.57165 -8.94946
385 1 9.43438 18.8698 -0.000546452 -8.9495
386 1 11.007 20.442 1.57168 -8.94949
525 1 20.4416 14.1522 11.0069 -8.94984
388 1 14.1522 20.4421 1.57178 -8.94947
501 1 9.42908 15.7209 9.43453 -8.99835
390 1 17.2973 20.4421 1.5718 -8.94954
391 1 18.8698 18.8697 -0.00041936 -8.9491
392 1 20.4416 20.4418 1.57211 -8.94953
393 1 1.57182 11.007 4.71633 -8.94961
394 1 4.71533 11.007 4.71542 -8.94666
395 1 7.86276 11.007 4.71801 -8.94475
396 1 11.0122 11.007 4.71479 -9.01452
397 1 14.1643 11.007 4.70383 -8.94379
398 1 17.3024 11.007 4.71386 -8.94856
399 1 20.4431 11.007 4.71635 -8.94995
400 1 22.0142 12.5795 3.14408 -8.94956
401 1 1.5716 14.1519 4.71657 -8.94997
402 1 3.14394 12.5794 3.14381 -8.94899
403 1 4.71425 14.1523 4.71535 -8.95194
404 1 6.28873 12.5789 3.14372 -8.94865
405 1 7.85364 14.1607 4.70529 -8.94959
406 1 9.43438 12.5803 3.14182 -8.95226
407 1 11.0077 14.1584 4.70726 -8.94959
408 1 12.5833 12.5816 3.13483 -8.95907
409 1 14.167 14.1662 4.70176 -8.9279
410 1 15.7293 12.5812 3.13969 -8.94757
411 1 17.3023 14.1547 4.71422 -8.95025
412 1 18.8714 12.5799 3.1433 -8.94926
413 1 20.4429 14.1524 4.71654 -8.9503
414 1 0.000138954 15.7246 3.1442 -8.94988
415 1 1.5707 17.2978 4.71609 -8.94968
416 1 3.14342 15.7248 3.1435 -8.95045
417 1 4.71263 17.301 4.71291 -8.9448
418 1 6.28593 15.7277 3.13954 -8.94903
419 1 7.86022 17.301 4.71415 -8.94948
420 1 9.43362 15.7274 3.14106 -8.94759
421 1 11.0074 17.3007 4.71427 -8.94794
422 1 12.5809 15.7277 3.14062 -8.94859
423 1 14.1549 17.302 4.7141 -8.95073
424 1 15.7295 15.7295 3.13961 -8.94388
425 1 17.2984 17.2984 4.71641 -8.94996
426 1 18.8712 15.7257 3.14348 -8.94952
427 1 20.4416 17.2973 4.7169 -8.94995
428 1 22.0135 18.8696 3.14428 -8.94957
429 1 1.57163 20.4419 4.71671 -8.94946
430 1 3.14322 18.8704 3.14324 -8.94828
431 1 4.71601 20.4427 4.71604 -8.94998
432 1 6.28864 18.8708 3.14319 -8.94968
433 1 7.8617 20.4428 4.71616 -8.94972
434 1 9.43431 18.8707 3.14335 -8.94937
435 1 11.0072 20.4427 4.71627 -8.94968
436 1 12.5799 18.8708 3.1435 -8.94911
437 1 14.1524 20.4427 4.7167 -8.9507
438 1 15.7257 18.8712 3.14344 -8.94967
439 1 17.2972 20.442 4.717 -8.94966
440 1 18.8697 18.8699 3.14434 -8.94972
441 1 20.4414 20.4418 4.71706 -8.94954
442 1 1.57199 11.007 7.86183 -8.94776
443 1 4.71908 11.007 7.86251 -8.9394
444 1 7.8837 11.007 7.87026 -8.97062
445 1 11.074 11.007 7.5787 -8.31299
446 1 14.1683 11.007 7.84444 -9.017
447 1 17.3007 11.007 7.86205 -8.95373
448 1 20.4424 11.007 7.86222 -8.94985
449 1 0.000149609 12.5794 6.28931 -8.95009
450 1 1.56983 14.1523 7.8618 -8.95171
451 1 3.14308 12.5788 6.28906 -8.95003
452 1 4.70669 14.156 7.85971 -8.95778
453 1 6.2851 12.5776 6.28897 -8.95511
454 1 7.82208 14.1884 7.83137 -8.86087
455 1 9.41288 12.6094 6.27673 -8.93381
456 1 11.0177 14.1576 7.83978 -8.96762
457 1 12.626 12.6188 6.24756 -8.89127
458 1 14.1579 14.1559 7.86002 -8.97738
459 1 15.7377 12.5833 6.28319 -8.95649
460 1 17.2983 14.1522 7.86307 -8.95138
461 1 18.8725 12.5799 6.28893 -8.95231
462 1 20.4416 14.1522 7.86218 -8.94984
463 1 22.013 15.7248 6.28926 -8.95024
464 1 1.57046 17.2979 7.86164 -8.94928
465 1 3.14019 15.7265 6.2875 -8.95078
466 1 4.7128 17.3008 7.86058 -8.94763
467 1 6.27644 15.7369 6.278 -8.9311
468 1 7.85834 17.3052 7.86078 -8.9592
469 1 9.43278 15.7344 6.28429 -8.95273
470 1 11.0053 17.2993 7.86136 -8.94931
471 1 12.585 15.7358 6.28329 -8.95605
472 1 14.1531 17.2995 7.86195 -8.94822
473 1 15.7279 15.7275 6.28826 -8.95023
474 1 17.2976 17.2977 7.86218 -8.94916
475 1 18.8702 15.725 6.28968 -8.95026
476 1 20.4414 17.2974 7.86199 -8.94953
477 1 -0.000614556 18.8697 6.28935 -8.94944
478 1 1.57153 20.442 7.86189 -8.94948
479 1 3.14299 18.8706 6.28869 -8.94918
480 1 4.71574 20.4429 7.86159 -8.94938
481 1 6.28745 18.873 6.28784 -8.95147
482 1 7.8616 20.4433 7.8619 -8.95139
483 1 9.43426 18.8724 6.28823 -8.95056
484 1 11.0068 20.4424 7.86203 -8.94934
485 1 12.5797 18.8718 6.28917 -8.95243
486 1 14.1524 20.4423 7.86206 -8.94967
487 1 15.7252 18.8706 6.28942 -8.94953
488 1 17.2972 20.4419 7.86206 -8.94943
489 1 18.8694 18.8697 6.28959 -8.94949
490 1 20.4414 20.4418 7.86203 -8.94954
491 1 22.0134 12.5794 9.43453 -8.94922
492 1 3.1422 12.5792 9.43453 -8.95121
493 1 6.28093 12.5866 9.43453 -8.97364
494 1 9.35217 12.79 9.43453 -8.1943
495 1 12.5907 12.614 9.43453 -9.12293
496 1 15.7187 12.5763 9.43453 -8.98584
497 1 18.8694 12.5798 9.43453 -8.94607
498 1 -0.00120191 15.725 9.43453 -8.94996
499 1 3.13987 15.727 9.43453 -8.94905
500 1 6.27828 15.7348 9.43453 -8.94144
517 1 17.3007 11.007 11.007 -8.95373
518 1 20.4424 11.007 11.0068 -8.94985
524 1 17.2983 14.1522 11.006 -8.95138
523 1 14.1579 14.1559 11.009 -8.97738
527 1 4.7128 17.3008 11.0085 -8.94763
534 1 4.71574 20.4429 11.0075 -8.94938
538 1 17.2972 20.4419 11.007 -8.94943
365 1 22.0141 15.7244 -0.000289269 -8.9495
373 1 12.5796 15.7253 -0.00126587 -8.94964
512 1 1.57199 11.007 11.0072 -8.94776
513 1 4.71908 11.007 11.0065 -8.9394
514 1 7.8837 11.007 10.9988 -8.97062
515 1 11.074 11.007 11.2904 -8.31299
516 1 14.1683 11.007 11.0246 -9.017
686 1 20.4417 20.4417 20.4415 -8.94923
685 1 18.8698 18.8697 18.8695 -8.9491
519 1 1.56983 14.1523 11.0073 -8.95171
520 1 4.70669 14.156 11.0094 -8.95778
521 1 7.82208 14.1884 11.0377 -8.86087
684 1 17.297 20.4418 20.4415 -8.9496
683 1 15.7247 18.8699 18.8696 -8.94962
682 1 14.152 20.4418 20.4415 -8.94951
681 1 12.5795 18.8698 18.8696 -8.94945
680 1 11.007 20.4418 20.4415 -8.94954
389 1 15.7247 18.8699 22.0134 -8.94962
528 1 7.85834 17.3052 11.0083 -8.9592
529 1 11.0053 17.2993 11.0077 -8.94931
530 1 14.1531 17.2995 11.0071 -8.94822
531 1 17.2976 17.2977 11.0069 -8.94916
532 1 20.4414 17.2974 11.0071 -8.94953
533 1 1.57153 20.442 11.0072 -8.94948
383 1 6.28928 18.8697 22.0133 -8.94949
535 1 7.8616 20.4433 11.0072 -8.95139
536 1 11.0068 20.4424 11.007 -8.94934
537 1 14.1524 20.4423 11.007 -8.94967
381 1 3.14421 18.8696 22.0133 -8.9494
679 1 9.43438 18.8698 18.8696 -8.9495
540 1 1.57182 11.007 14.1527 -8.94961
541 1 4.71533 11.007 14.1536 -8.94666
542 1 7.86276 11.007 14.151 -8.94475
543 1 11.0122 11.007 14.1543 -9.01452
544 1 14.1643 11.007 14.1652 -8.94379
545 1 17.3024 11.007 14.1552 -8.94856
546 1 20.4431 11.007 14.1527 -8.94995
547 1 0.000149609 12.5794 12.5797 -8.95009
548 1 1.5716 14.1519 14.1525 -8.94997
549 1 3.14308 12.5788 12.58 -8.95003
550 1 4.71425 14.1523 14.1537 -8.95194
551 1 6.2851 12.5776 12.5801 -8.95511
552 1 7.85364 14.1607 14.1638 -8.94959
553 1 9.41288 12.6094 12.5923 -8.93381
554 1 11.0077 14.1584 14.1618 -8.94959
555 1 12.626 12.6188 12.6215 -8.89127
556 1 14.167 14.1662 14.1673 -8.9279
557 1 15.7377 12.5833 12.5859 -8.95649
558 1 17.3023 14.1547 14.1548 -8.95025
559 1 18.8725 12.5799 12.5801 -8.95231
560 1 20.4429 14.1524 14.1525 -8.9503
561 1 22.013 15.7248 12.5798 -8.95024
562 1 1.5707 17.2978 14.153 -8.94968
563 1 3.14019 15.7265 12.5816 -8.95078
564 1 4.71263 17.301 14.1561 -8.9448
565 1 6.27644 15.7369 12.5911 -8.9311
566 1 7.86022 17.301 14.1549 -8.94948
567 1 9.43278 15.7344 12.5848 -8.95273
568 1 11.0074 17.3007 14.1548 -8.94794
569 1 12.585 15.7358 12.5858 -8.95605
570 1 14.1549 17.302 14.155 -8.95073
571 1 15.7279 15.7275 12.5808 -8.95023
572 1 17.2984 17.2984 14.1527 -8.94996
573 1 18.8702 15.725 12.5794 -8.95026
574 1 20.4416 17.2973 14.1522 -8.94995
575 1 -0.000614556 18.8697 12.5797 -8.94944
576 1 1.57163 20.4419 14.1524 -8.94946
577 1 3.14299 18.8706 12.5804 -8.94918
578 1 4.71601 20.4427 14.153 -8.94998
579 1 6.28745 18.873 12.5812 -8.95147
580 1 7.8617 20.4428 14.1529 -8.94972
581 1 9.43426 18.8724 12.5808 -8.95056
582 1 11.0072 20.4427 14.1528 -8.94968
583 1 12.5797 18.8718 12.5799 -8.95243
584 1 14.1524 20.4427 14.1524 -8.9507
585 1 15.7252 18.8706 12.5796 -8.94953
586 1 17.2972 20.442 14.1521 -8.94966
587 1 18.8694 18.8697 12.5795 -8.94949
588 1 20.4414 20.4418 14.152 -8.94954
589 1 1.57222 11.007 17.2973 -8.94954
590 1 4.71655 11.007 17.2975 -8.94961
591 1 7.86165 11.007 17.2972 -8.94837
592 1 11.0071 11.007 17.2986 -8.94789
593 1 14.1547 11.007 17.3015 -8.94992
594 1 17.2988 11.007 17.2986 -8.94932
595 1 20.4423 11.007 17.2974 -8.94948
596 1 22.0142 12.5795 15.725 -8.94956
597 1 1.5722 14.1519 17.2972 -8.94941
598 1 3.14394 12.5794 15.7252 -8.94899
599 1 4.71656 14.1517 17.2976 -8.9496
600 1 6.28873 12.5789 15.7253 -8.94865
601 1 7.86125 14.1525 17.2994 -8.95256
602 1 9.43438 12.5803 15.7272 -8.95226
603 1 11.0067 14.1533 17.2999 -8.95042
604 1 12.5833 12.5816 15.7342 -8.95907
605 1 14.1541 14.154 17.3013 -8.95183
606 1 15.7293 12.5812 15.7294 -8.94757
607 1 17.2988 14.153 17.2986 -8.94913
608 1 18.8714 12.5799 15.7258 -8.94926
609 1 20.4423 14.1522 17.2974 -8.94944
610 1 0.000138954 15.7246 15.7249 -8.94988
611 1 1.57197 17.297 17.2973 -8.94984
612 1 3.14342 15.7248 15.7256 -8.95045
613 1 4.71573 17.298 17.2987 -8.94922
614 1 6.28593 15.7277 15.7295 -8.94903
615 1 7.86145 17.298 17.2983 -8.94912
616 1 9.43362 15.7274 15.728 -8.94759
617 1 11.007 17.2981 17.2983 -8.94933
618 1 12.5809 15.7277 15.7284 -8.94859
619 1 14.1527 17.2984 17.2983 -8.94958
620 1 15.7295 15.7295 15.7294 -8.94388
621 1 17.2985 17.2985 17.2983 -8.94802
622 1 18.8712 15.7257 15.7256 -8.94952
623 1 20.4421 17.2973 17.2972 -8.9495
624 1 22.0135 18.8696 15.7248 -8.94957
625 1 1.57183 20.4418 17.2972 -8.94918
626 1 3.14322 18.8704 15.7258 -8.94828
627 1 4.7167 20.442 17.2974 -8.94961
628 1 6.28864 18.8708 15.7259 -8.94968
629 1 7.86187 20.442 17.2974 -8.94946
630 1 9.43431 18.8707 15.7257 -8.94937
631 1 11.007 20.442 17.2974 -8.94949
632 1 12.5799 18.8708 15.7256 -8.94911
633 1 14.1522 20.4421 17.2973 -8.94947
634 1 15.7257 18.8712 15.7256 -8.94967
635 1 17.2973 20.4421 17.2973 -8.94954
636 1 18.8697 18.8699 15.7247 -8.94972
637 1 20.4416 20.4418 17.297 -8.94953
638 1 1.5723 11.007 20.4415 -8.94957
639 1 4.71679 11.007 20.4415 -8.94963
640 1 7.86164 11.007 20.4415 -8.94921
641 1 11.0067 11.007 20.4415 -8.94882
642 1 14.1528 11.007 20.4415 -8.95049
643 1 17.2978 11.007 20.4415 -8.94947
644 1 20.442 11.007 20.4415 -8.94953
645 1 0.000203536 12.5795 18.8694 -8.94954
646 1 1.57231 14.1519 20.4415 -8.94953
647 1 3.14446 12.5794 18.8694 -8.94954
648 1 4.71684 14.1518 20.4415 -8.94952
649 1 6.28918 12.5793 18.8695 -8.94933
650 1 7.86171 14.1519 20.4415 -8.95051
651 1 9.43424 12.5794 18.8699 -8.94963
652 1 11.0066 14.1524 20.4415 -8.95023
653 1 12.5797 12.5797 18.8711 -8.95163
654 1 14.1524 14.1526 20.4415 -8.95083
655 1 15.7258 12.5799 18.8707 -8.9495
656 1 17.2977 14.1524 20.4415 -8.94942
657 1 18.8701 12.5796 18.8697 -8.94945
658 1 20.442 14.152 20.4415 -8.94951
659 1 22.0141 15.7244 18.8693 -8.9495
660 1 1.57228 17.2968 20.4415 -8.9497
661 1 3.14446 15.7243 18.8695 -8.94973
662 1 4.71664 17.2972 20.4415 -8.95002
663 1 6.28892 15.7248 18.8702 -8.95069
664 1 7.86171 17.2973 20.4415 -8.94951
665 1 9.43408 15.7252 18.8702 -8.9496
666 1 11.0069 17.2975 20.4415 -8.94953
667 1 12.5796 15.7253 18.8703 -8.94964
668 1 14.1521 17.2975 20.4415 -8.94957
669 1 15.7255 15.7256 18.8705 -8.95008
670 1 17.2976 17.2976 20.4415 -8.94953
671 1 18.87 15.7249 18.8696 -8.94944
672 1 20.4419 17.297 20.4415 -8.94952
673 1 2.05095e-05 18.8694 18.8694 -8.94955
674 1 1.57213 20.4417 20.4415 -8.94934
675 1 3.14421 18.8696 18.8697 -8.9494
676 1 4.71698 20.4417 20.4415 -8.94955
677 1 6.28928 18.8697 18.8696 -8.94949
678 1 7.86195 20.4418 20.4415 -8.94953
351 1 0.000203536 12.5795 22.0136 -8.94954
355 1 6.28918 12.5793 22.0134 -8.94933
357 1 9.43424 12.5794 22.0131 -8.94963
359 1 12.5797 12.5797 22.0119 -8.95163
361 1 15.7258 12.5799 22.0123 -8.9495
379 1 2.05095e-05 18.8694 22.0136 -8.94955
367 1 3.14446 15.7243 22.0135 -8.94973
377 1 18.87 15.7249 22.0133 -8.94944
375 1 15.7255 15.7256 22.0124 -8.95008
539 1 20.4414 20.4418 11.007 -8.94954
387 1 12.5795 18.8698 22.0134 -8.94945
522 1 11.0177 14.1576 11.0293 -8.96762
