ITEM: TIMESTEP
79
ITEM: NUMBER OF ATOMS
688
ITEM: BOX BOUNDS pp pp pp
0.0000000000000000e+00 2.2013900999999997e+01
0.0000000000000000e+00 2.2013900999999997e+01
0.0000000000000000e+00 2.2013900999999997e+01
ITEM: ATOMS id type x y z c_pot
1 1 22.0138 1.91101e-16 -0.000150789 -8.94929
2 1 1.57195 1.57213 1.57194 -8.9492
175 1 18.8695 9.43413 9.43453 -8.9462
4 1 4.71684 1.572 1.5718 -8.94963
174 1 15.7192 9.43735 9.43453 -8.98638
6 1 7.86195 1.57199 1.57179 -8.94948
7 1 9.43449 4.01923e-16 -0.000281199 -8.94956
8 1 11.007 1.57196 1.5718 -8.94951
173 1 12.5907 9.39902 9.43453 -9.12537
10 1 14.1521 1.57194 1.5719 -8.94948
172 1 9.35146 9.22149 9.43453 -8.19213
12 1 17.2972 1.57189 1.57191 -8.94955
196 1 20.4417 7.86174 11.0069 -8.94986
14 1 20.4416 1.57219 1.57219 -8.94955
171 1 6.28077 9.4274 9.43453 -8.97371
16 1 1.57205 4.71696 1.57186 -8.94984
170 1 3.14215 9.43484 9.43453 -8.95125
18 1 4.71593 4.71605 1.57059 -8.94924
169 1 22.0134 9.43454 9.43453 -8.94929
20 1 7.86159 4.71611 1.57093 -8.94914
21 1 9.43442 3.14425 -0.000463921 -8.94952
22 1 11.007 4.71597 1.57098 -8.94935
195 1 17.2984 7.86163 11.006 -8.95137
24 1 14.1525 4.71579 1.57094 -8.9496
168 1 18.8698 6.28873 9.43453 -8.94924
26 1 17.2982 4.71563 1.57095 -8.94806
27 1 18.8696 3.1443 -0.000346232 -8.94914
28 1 20.442 4.71677 1.57193 -8.94952
167 1 15.7254 6.28797 9.43453 -8.9461
30 1 1.5722 7.86203 1.57193 -8.94942
166 1 12.5774 6.28257 9.43453 -8.95988
32 1 4.71666 7.86226 1.57158 -8.94961
33 1 6.28904 6.2892 -0.00108475 -8.95066
34 1 7.86135 7.86152 1.56978 -8.95255
35 1 9.43414 6.28885 -0.00103145 -8.94959
36 1 11.0067 7.86079 1.56937 -8.9504
165 1 9.42908 6.29294 9.43453 -8.99887
38 1 14.1538 7.86012 1.5681 -8.95183
194 1 14.1581 7.85776 11.0089 -8.97769
40 1 17.2984 7.86113 1.57074 -8.94916
164 1 6.27856 6.27932 9.43453 -8.94143
42 1 20.4421 7.86181 1.57183 -8.94946
163 1 3.14018 6.28718 9.43453 -8.94906
44 1 3.14448 9.43452 -0.000338369 -8.94955
162 1 -0.00105302 6.28898 9.43453 -8.94995
161 1 18.8694 3.14426 9.43453 -8.94958
160 1 15.7251 3.14366 9.43453 -8.94908
159 1 12.5795 3.14281 9.43453 -8.95108
49 1 18.8699 9.43435 -0.000501814 -8.94948
50 1 -0.000234555 1.00147e-16 3.14462 -8.94957
51 1 1.5718 1.57203 4.71684 -8.9495
52 1 3.14416 1.59262e-16 3.14416 -8.94954
53 1 4.71621 1.57128 4.71622 -8.94998
54 1 6.28935 6.8187e-16 3.14412 -8.94957
55 1 7.86181 1.57125 4.7163 -8.94968
56 1 9.43454 5.96656e-16 3.1441 -8.94956
57 1 11.0072 1.57134 4.71637 -8.94965
58 1 12.5797 1.15825e-16 3.14421 -8.94953
59 1 14.1523 1.57134 4.71676 -8.95066
60 1 15.7247 1.09747e-15 3.14438 -8.95006
61 1 17.2971 1.57195 4.71705 -8.94965
62 1 18.8693 7.43091e-17 3.14465 -8.94964
63 1 20.4415 1.5722 4.71713 -8.94956
64 1 22.0135 3.1444 3.1444 -8.94957
65 1 1.57088 4.71629 4.71624 -8.94968
66 1 3.14342 3.14362 3.14343 -8.94828
67 1 4.71292 4.71319 4.71311 -8.94474
68 1 6.28884 3.14336 3.14341 -8.94967
69 1 7.86047 4.71319 4.71436 -8.94943
70 1 9.43438 3.14337 3.14352 -8.94937
71 1 11.0073 4.71353 4.71451 -8.94793
72 1 12.5798 3.14328 3.14367 -8.94911
73 1 14.1547 4.7122 4.71434 -8.9507
74 1 15.7255 3.14296 3.1436 -8.94966
75 1 17.2982 4.71568 4.71652 -8.94991
76 1 18.8696 3.14418 3.14444 -8.94971
77 1 20.4416 4.71673 4.71698 -8.94993
78 1 0.000117194 6.28937 3.14432 -8.94985
79 1 1.57167 7.8621 4.71665 -8.94993
80 1 3.1436 6.28926 3.14367 -8.95043
81 1 4.71448 7.86183 4.71548 -8.9519
82 1 6.28621 6.28647 3.1398 -8.94912
83 1 7.85397 7.85367 4.70557 -8.94997
84 1 9.43372 6.28683 3.14133 -8.94764
85 1 11.0076 7.85587 4.70775 -8.94979
86 1 12.5806 6.2865 3.14097 -8.94864
87 1 14.1665 7.84811 4.7023 -8.92814
88 1 15.7291 6.2848 3.13995 -8.94398
89 1 17.3019 7.85938 4.71448 -8.95025
90 1 18.8709 6.28844 3.14365 -8.94952
91 1 20.4427 7.8616 4.71664 -8.95026
92 1 22.0141 9.4344 3.14419 -8.94955
93 1 3.14399 9.43454 3.14389 -8.94899
94 1 6.28883 9.43509 3.1438 -8.94871
95 1 9.43439 9.43376 3.14208 -8.95219
96 1 12.5829 9.43245 3.13534 -8.95906
97 1 15.7288 9.43283 3.14013 -8.94761
98 1 18.8711 9.43405 3.1435 -8.94926
99 1 22.0136 6.26018e-16 6.28954 -8.94955
100 1 1.57173 1.57199 7.86195 -8.94951
101 1 3.14402 1.49742e-15 6.28926 -8.9494
102 1 4.71599 1.57117 7.86167 -8.94938
103 1 6.2891 1.84499e-15 6.28911 -8.95062
104 1 7.86174 1.57068 7.86194 -8.95139
105 1 9.4346 1.21971e-15 6.2891 -8.95025
106 1 11.0069 1.57149 7.86203 -8.94938
107 1 12.5796 7.25776e-16 6.2895 -8.95032
108 1 14.1524 1.57158 7.86205 -8.94968
109 1 15.7247 6.60329e-16 6.28954 -8.94964
110 1 17.2971 1.57202 7.86206 -8.94945
111 1 18.8693 5.00463e-16 6.28961 -8.94952
112 1 20.4415 1.57217 7.86205 -8.94957
113 1 -0.00048738 3.14432 6.28943 -8.94946
114 1 1.57071 4.71614 7.8617 -8.94928
115 1 3.14327 3.14345 6.28885 -8.9492
116 1 4.71317 4.71338 7.86068 -8.94762
117 1 6.2877 3.14106 6.28798 -8.95148
118 1 7.8586 4.70888 7.86083 -8.95924
119 1 9.43436 3.14159 6.28833 -8.9505
120 1 11.0054 4.71451 7.86145 -8.9494
121 1 12.5797 3.14216 6.28925 -8.95238
122 1 14.1532 4.71444 7.86199 -8.94827
123 1 15.7251 3.14345 6.28946 -8.94952
124 1 17.2976 4.71628 7.86219 -8.94916
125 1 18.8694 3.14434 6.28962 -8.9495
126 1 20.4415 4.71663 7.86201 -8.94953
127 1 22.0131 6.28917 6.28931 -8.95023
128 1 1.56993 7.86169 7.86182 -8.95172
129 1 3.14045 6.28756 6.28761 -8.9508
130 1 4.70681 7.8581 7.85972 -8.95786
131 1 6.27665 6.27719 6.27804 -8.93084
132 1 7.8218 7.82542 7.83104 -8.85957
133 1 9.43292 6.2798 6.2845 -8.95256
134 1 11.0177 7.85596 7.83999 -8.9668
135 1 12.5848 6.27829 6.2836 -8.95594
136 1 14.1581 7.85776 7.86012 -8.97769
137 1 15.7278 6.2865 6.28837 -8.95012
138 1 17.2984 7.86163 7.86308 -8.95137
139 1 18.8701 6.28903 6.28971 -8.95022
140 1 20.4417 7.86174 7.86218 -8.94986
141 1 0.00010625 9.43453 6.28934 -8.95007
142 1 3.14311 9.43516 6.28907 -8.94998
143 1 6.28522 9.43652 6.28904 -8.955
144 1 9.41324 9.40497 6.27756 -8.9344
145 1 12.6256 9.39545 6.24849 -8.89215
146 1 15.7374 9.43066 6.28359 -8.95645
147 1 18.8723 9.43406 6.28903 -8.95224
148 1 -0.000282977 1.35673e-15 9.43453 -8.94956
149 1 3.14397 1.71015e-15 9.43453 -8.94948
150 1 6.2888 1.46131e-15 9.43453 -8.95033
151 1 9.43462 1.76987e-15 9.43453 -8.94846
152 1 12.5797 1.77337e-15 9.43453 -8.94997
153 1 15.7248 7.88596e-16 9.43453 -8.94955
154 1 18.8693 3.5215e-16 9.43453 -8.94957
155 1 22.0134 3.14428 9.43453 -8.94952
156 1 3.14317 3.1434 9.43453 -8.94946
157 1 6.28705 3.1408 9.43453 -8.9495
158 1 9.43414 3.14361 9.43453 -8.94613
183 1 1.57071 4.71614 11.0074 -8.94928
177 1 4.71599 1.57117 11.0074 -8.94938
181 1 17.2971 1.57202 11.007 -8.94945
184 1 4.71317 4.71338 11.0084 -8.94762
3 1 3.1446 2.23421e-16 -0.000247446 -8.94961
11 1 15.7244 1.2533e-15 -0.000220537 -8.94956
29 1 22.014 6.28954 -0.000223219 -8.94952
37 1 12.5795 6.28876 -0.00112929 -8.94962
176 1 1.57173 1.57199 11.0071 -8.94951
48 1 15.7255 9.43407 22.0125 -8.94949
178 1 7.86174 1.57068 11.0071 -8.95139
179 1 11.0069 1.57149 11.007 -8.94938
180 1 14.1524 1.57158 11.007 -8.94968
47 1 12.5796 9.4343 22.012 -8.95156
343 1 18.8699 9.43435 18.8696 -8.94948
342 1 15.7255 9.43407 18.8705 -8.94949
46 1 9.43425 9.43456 22.0131 -8.94961
185 1 7.8586 4.70888 11.0082 -8.95924
186 1 11.0054 4.71451 11.0076 -8.9494
187 1 14.1532 4.71444 11.0071 -8.94827
188 1 17.2976 4.71628 11.0069 -8.94916
189 1 20.4415 4.71663 11.007 -8.94953
190 1 1.56993 7.86169 11.0072 -8.95172
191 1 4.70681 7.8581 11.0093 -8.95786
192 1 7.8218 7.82542 11.038 -8.85957
341 1 12.5796 9.4343 18.871 -8.95156
340 1 9.43425 9.43456 18.8698 -8.94961
339 1 6.28923 9.43464 18.8695 -8.94934
338 1 3.14448 9.43452 18.8694 -8.94955
197 1 22.0136 1.16338e-15 12.5795 -8.94955
198 1 1.5718 1.57203 14.1522 -8.9495
199 1 3.14402 1.57442e-15 12.5798 -8.9494
200 1 4.71621 1.57128 14.1528 -8.94998
201 1 6.2891 1.75777e-15 12.5799 -8.95062
202 1 7.86181 1.57125 14.1528 -8.94968
203 1 9.4346 1.7135e-15 12.58 -8.95025
204 1 11.0072 1.57134 14.1527 -8.94965
205 1 12.5796 1.46952e-15 12.5796 -8.95032
206 1 14.1523 1.57134 14.1523 -8.95066
207 1 15.7247 6.08742e-16 12.5795 -8.94964
208 1 17.2971 1.57195 14.152 -8.94965
209 1 18.8693 3.44883e-16 12.5795 -8.94952
210 1 20.4415 1.5722 14.1519 -8.94956
211 1 -0.00048738 3.14432 12.5796 -8.94946
212 1 1.57088 4.71629 14.1528 -8.94968
213 1 3.14327 3.14345 12.5802 -8.9492
214 1 4.71292 4.71319 14.1559 -8.94474
215 1 6.2877 3.14106 12.5811 -8.95148
216 1 7.86047 4.71319 14.1547 -8.94943
217 1 9.43436 3.14159 12.5807 -8.9505
218 1 11.0073 4.71353 14.1545 -8.94793
219 1 12.5797 3.14216 12.5798 -8.95238
220 1 14.1547 4.7122 14.1547 -8.9507
221 1 15.7251 3.14345 12.5796 -8.94952
222 1 17.2982 4.71568 14.1525 -8.94991
223 1 18.8694 3.14434 12.5794 -8.9495
224 1 20.4416 4.71673 14.1521 -8.94993
225 1 22.0131 6.28917 12.5798 -8.95023
226 1 1.57167 7.8621 14.1524 -8.94993
227 1 3.14045 6.28756 12.5814 -8.9508
228 1 4.71448 7.86183 14.1536 -8.9519
229 1 6.27665 6.27719 12.591 -8.93084
230 1 7.85397 7.85367 14.1635 -8.94997
231 1 9.43292 6.2798 12.5846 -8.95256
232 1 11.0076 7.85587 14.1613 -8.94979
233 1 12.5848 6.27829 12.5855 -8.95594
234 1 14.1665 7.84811 14.1668 -8.92814
235 1 15.7278 6.2865 12.5807 -8.95012
236 1 17.3019 7.85938 14.1546 -8.95025
237 1 18.8701 6.28903 12.5793 -8.95022
238 1 20.4427 7.8616 14.1524 -8.95026
239 1 0.00010625 9.43453 12.5797 -8.95007
240 1 3.14311 9.43516 12.58 -8.94998
241 1 6.28522 9.43652 12.58 -8.955
242 1 9.41324 9.40497 12.5915 -8.9344
243 1 12.6256 9.39545 12.6206 -8.89215
244 1 15.7374 9.43066 12.5855 -8.95645
245 1 18.8723 9.43406 12.58 -8.95224
246 1 -0.000234555 1.66277e-15 15.7244 -8.94957
247 1 1.57195 1.57213 17.2971 -8.9492
248 1 3.14416 1.29642e-15 15.7249 -8.94954
249 1 4.71684 1.572 17.2973 -8.94963
250 1 6.28935 1.22861e-15 15.7249 -8.94957
251 1 7.86195 1.57199 17.2973 -8.94948
252 1 9.43454 1.3268e-15 15.725 -8.94956
253 1 11.007 1.57196 17.2973 -8.94951
254 1 12.5797 1.08597e-15 15.7248 -8.94953
255 1 14.1521 1.57194 17.2972 -8.94948
256 1 15.7247 9.45516e-16 15.7247 -8.95006
257 1 17.2972 1.57189 17.2971 -8.94955
258 1 18.8693 -8.37752e-17 15.7244 -8.94964
259 1 20.4416 1.57219 17.2969 -8.94955
260 1 22.0135 3.1444 15.7247 -8.94957
261 1 1.57205 4.71696 17.2972 -8.94984
262 1 3.14342 3.14362 15.7256 -8.94828
263 1 4.71593 4.71605 17.2985 -8.94924
264 1 6.28884 3.14336 15.7257 -8.94967
265 1 7.86159 4.71611 17.2981 -8.94914
266 1 9.43438 3.14337 15.7255 -8.94937
267 1 11.007 4.71597 17.2981 -8.94935
268 1 12.5798 3.14328 15.7254 -8.94911
269 1 14.1525 4.71579 17.2981 -8.9496
270 1 15.7255 3.14296 15.7255 -8.94966
271 1 17.2982 4.71563 17.2981 -8.94806
272 1 18.8696 3.14418 15.7246 -8.94971
273 1 20.442 4.71677 17.2971 -8.94952
274 1 0.000117194 6.28937 15.7247 -8.94985
275 1 1.5722 7.86203 17.2971 -8.94942
276 1 3.1436 6.28926 15.7254 -8.95043
277 1 4.71666 7.86226 17.2975 -8.94961
278 1 6.28621 6.28647 15.7293 -8.94912
279 1 7.86135 7.86152 17.2993 -8.95255
280 1 9.43372 6.28683 15.7277 -8.94764
281 1 11.0067 7.86079 17.2997 -8.9504
282 1 12.5806 6.2865 15.7281 -8.94864
283 1 14.1538 7.86012 17.301 -8.95183
284 1 15.7291 6.2848 15.7291 -8.94398
285 1 17.2984 7.86113 17.2983 -8.94916
286 1 18.8709 6.28844 15.7254 -8.94952
287 1 20.4421 7.86181 17.2972 -8.94946
288 1 22.0141 9.4344 15.7249 -8.94955
289 1 3.14399 9.43454 15.7252 -8.94899
290 1 6.28883 9.43509 15.7253 -8.94871
291 1 9.43439 9.43376 15.727 -8.95219
292 1 12.5829 9.43245 15.7337 -8.95906
293 1 15.7288 9.43283 15.7289 -8.94761
294 1 18.8711 9.43405 15.7256 -8.94926
295 1 22.0138 6.803e-16 18.8692 -8.94929
296 1 1.5722 1.57222 20.4415 -8.94939
297 1 3.1446 1.65289e-15 18.8693 -8.94961
298 1 4.71708 1.57222 20.4415 -8.94957
299 1 6.28954 1.22712e-15 18.8693 -8.94954
300 1 7.862 1.57218 20.4415 -8.94955
301 1 9.43449 8.09668e-16 18.8693 -8.94956
302 1 11.007 1.57215 20.4415 -8.94956
303 1 12.5795 9.5042e-16 18.8693 -8.94955
304 1 14.1519 1.57216 20.4415 -8.94954
305 1 15.7244 1.13357e-15 18.8693 -8.94956
306 1 17.2969 1.57217 20.4415 -8.94963
307 1 18.8693 1.13511e-15 18.8693 -8.94945
308 1 20.4417 1.57225 20.4415 -8.94929
309 1 1.6332e-05 3.14463 18.8693 -8.94958
310 1 1.57231 4.71717 20.4415 -8.94971
311 1 3.14433 3.14437 18.8696 -8.94943
312 1 4.71676 4.71684 20.4415 -8.95
313 1 6.2894 3.14435 18.8695 -8.9495
314 1 7.8618 4.71668 20.4415 -8.94951
315 1 9.43442 3.14425 18.8695 -8.94952
316 1 11.0069 4.71657 20.4415 -8.94954
317 1 12.5795 3.14423 18.8695 -8.94948
318 1 14.152 4.71656 20.4415 -8.94957
319 1 15.7246 3.14421 18.8695 -8.94964
320 1 17.2974 4.71651 20.4415 -8.94956
321 1 18.8696 3.1443 18.8694 -8.94914
322 1 20.4418 4.71702 20.4415 -8.94955
323 1 22.014 6.28954 18.8693 -8.94952
324 1 1.5723 7.86205 20.4415 -8.94955
325 1 3.14454 6.28965 18.8694 -8.94972
326 1 4.71691 7.86215 20.4415 -8.94952
327 1 6.28904 6.2892 18.8701 -8.95066
328 1 7.86177 7.86199 20.4415 -8.95048
329 1 9.43414 6.28885 18.8701 -8.94959
330 1 11.0066 7.86161 20.4415 -8.9502
331 1 12.5795 6.28876 18.8702 -8.94962
332 1 14.1523 7.86149 20.4415 -8.95079
333 1 15.7253 6.28852 18.8704 -8.95008
334 1 17.2975 7.86165 20.4415 -8.94944
335 1 18.8698 6.28921 18.8695 -8.94948
336 1 20.4418 7.86195 20.4415 -8.94954
337 1 0.000118806 9.43447 18.8693 -8.94956
45 1 6.28923 9.43464 22.0135 -8.94934
5 1 6.28954 5.49615e-16 22.0136 -8.94954
9 1 12.5795 3.99644e-16 22.0136 -8.94955
43 1 0.000118806 9.43447 22.0136 -8.94956
15 1 1.6332e-05 3.14463 22.0137 -8.94958
17 1 3.14433 3.14437 22.0134 -8.94943
19 1 6.2894 3.14435 22.0134 -8.9495
25 1 15.7246 3.14421 22.0135 -8.94964
41 1 18.8698 6.28921 22.0134 -8.94948
31 1 3.14454 6.28965 22.0136 -8.94972
13 1 18.8693 6.78459e-16 22.0137 -8.94945
23 1 12.5795 3.14423 22.0135 -8.94948
39 1 15.7253 6.28852 22.0126 -8.95008
182 1 20.4415 1.57217 11.007 -8.94957
193 1 11.0177 7.85596 11.0291 -8.9668
344 1 1.5722 11.007 1.57188 -8.94956
345 1 4.71659 11.007 1.57157 -8.94963
346 1 7.86168 11.007 1.5719 -8.94836
347 1 11.007 11.007 1.57067 -8.94776
348 1 14.1543 11.007 1.56792 -8.9499
349 1 17.2985 11.007 1.57071 -8.94935
350 1 20.4421 11.007 1.57179 -8.9495
688 3 10.296 11.007 9.43453 2.19131
352 1 1.5722 14.1519 1.57193 -8.94942
353 1 3.14448 12.5794 -0.000338369 -8.94955
354 1 4.71666 14.1516 1.57158 -8.94961
687 2 11.6654 11.007 9.43453 0.185732
356 1 7.86135 14.1524 1.56978 -8.95255
511 1 18.8694 18.8696 9.43453 -8.94958
358 1 11.0067 14.1531 1.56937 -8.9504
510 1 15.7251 18.8702 9.43453 -8.94908
360 1 14.1538 14.1538 1.5681 -8.95183
509 1 12.5795 18.8711 9.43453 -8.95108
362 1 17.2984 14.1528 1.57074 -8.94916
363 1 18.8699 12.5796 -0.000501814 -8.94948
364 1 20.4421 14.1521 1.57183 -8.94946
508 1 9.43414 18.8703 9.43453 -8.94613
366 1 1.57205 17.2969 1.57186 -8.94984
507 1 6.28705 18.8731 9.43453 -8.9495
368 1 4.71593 17.2979 1.57059 -8.94924
369 1 6.28904 15.7247 -0.00108475 -8.95066
370 1 7.86159 17.2978 1.57093 -8.94914
371 1 9.43414 15.725 -0.00103145 -8.94959
372 1 11.007 17.2979 1.57098 -8.94935
506 1 3.14317 18.8705 9.43453 -8.94946
374 1 14.1525 17.2981 1.57094 -8.9496
526 1 1.57071 17.2978 11.0074 -8.94928
376 1 17.2982 17.2983 1.57095 -8.94806
505 1 22.0134 18.8696 9.43453 -8.94952
378 1 20.442 17.2971 1.57193 -8.94952
504 1 18.8698 15.7252 9.43453 -8.94924
380 1 1.57195 20.4418 1.57194 -8.9492
503 1 15.7254 15.7259 9.43453 -8.9461
382 1 4.71684 20.4419 1.5718 -8.94963
502 1 12.5774 15.7313 9.43453 -8.95988
384 1 7.86195 20.4419 1.57179 -8.94948
385 1 9.43442 18.8696 -0.000463921 -8.94952
386 1 11.007 20.4419 1.5718 -8.94951
525 1 20.4417 14.1522 11.0069 -8.94986
388 1 14.1521 20.442 1.5719 -8.94948
501 1 9.42908 15.721 9.43453 -8.99887
390 1 17.2972 20.442 1.57191 -8.94955
391 1 18.8696 18.8696 -0.000346232 -8.94914
392 1 20.4416 20.4417 1.57219 -8.94955
393 1 1.57179 11.007 4.71639 -8.94959
394 1 4.71537 11.007 4.71545 -8.94663
395 1 7.8629 11.007 4.71827 -8.94483
396 1 11.012 11.007 4.71557 -9.01429
397 1 14.1638 11.007 4.70453 -8.94384
398 1 17.302 11.007 4.71417 -8.94857
399 1 20.4429 11.007 4.71646 -8.94993
400 1 22.0141 12.5795 3.14419 -8.94955
401 1 1.57167 14.1518 4.71665 -8.94993
402 1 3.14399 12.5794 3.14389 -8.94899
403 1 4.71448 14.1521 4.71548 -8.9519
404 1 6.28883 12.5788 3.1438 -8.94871
405 1 7.85397 14.1602 4.70557 -8.94997
406 1 9.43439 12.5801 3.14208 -8.95219
407 1 11.0076 14.158 4.70775 -8.94979
408 1 12.5829 12.5814 3.13534 -8.95906
409 1 14.1665 14.1658 4.7023 -8.92814
410 1 15.7288 12.5811 3.14013 -8.94761
411 1 17.3019 14.1545 4.71448 -8.95025
412 1 18.8711 12.5798 3.1435 -8.94926
413 1 20.4427 14.1523 4.71664 -8.95026
414 1 0.000117194 15.7245 3.14432 -8.94985
415 1 1.57088 17.2976 4.71624 -8.94968
416 1 3.1436 15.7246 3.14367 -8.95043
417 1 4.71292 17.3007 4.71311 -8.94474
418 1 6.28621 15.7274 3.1398 -8.94912
419 1 7.86047 17.3007 4.71436 -8.94943
420 1 9.43372 15.7271 3.14133 -8.94764
421 1 11.0073 17.3004 4.71451 -8.94793
422 1 12.5806 15.7274 3.14097 -8.94864
423 1 14.1547 17.3017 4.71434 -8.9507
424 1 15.7291 15.7291 3.13995 -8.94398
425 1 17.2982 17.2982 4.71652 -8.94991
426 1 18.8709 15.7255 3.14365 -8.94952
427 1 20.4416 17.2972 4.71698 -8.94993
428 1 22.0135 18.8695 3.1444 -8.94957
429 1 1.5718 20.4419 4.71684 -8.9495
430 1 3.14342 18.8703 3.14343 -8.94828
431 1 4.71621 20.4426 4.71622 -8.94998
432 1 6.28884 18.8705 3.14341 -8.94967
433 1 7.86181 20.4426 4.7163 -8.94968
434 1 9.43438 18.8705 3.14352 -8.94937
435 1 11.0072 20.4426 4.71637 -8.94965
436 1 12.5798 18.8706 3.14367 -8.94911
437 1 14.1523 20.4426 4.71676 -8.95066
438 1 15.7255 18.8709 3.1436 -8.94966
439 1 17.2971 20.442 4.71705 -8.94965
440 1 18.8696 18.8697 3.14444 -8.94971
441 1 20.4415 20.4417 4.71713 -8.94956
442 1 1.57194 11.007 7.86181 -8.94778
443 1 4.71897 11.007 7.8625 -8.93933
444 1 7.88385 11.007 7.87081 -8.96954
445 1 11.0742 11.007 7.58109 -8.31443
446 1 14.1685 11.007 7.84514 -9.01664
447 1 17.3008 11.007 7.86216 -8.95371
448 1 20.4424 11.007 7.86223 -8.94988
449 1 0.00010625 12.5794 6.28934 -8.95007
450 1 1.56993 14.1522 7.86182 -8.95172
451 1 3.14311 12.5787 6.28907 -8.94998
452 1 4.70681 14.1558 7.85972 -8.95786
453 1 6.28522 12.5774 6.28904 -8.955
454 1 7.8218 14.1885 7.83104 -8.85957
455 1 9.41324 12.6089 6.27756 -8.9344
456 1 11.0177 14.1579 7.83999 -8.9668
457 1 12.6256 12.6184 6.24849 -8.89215
458 1 14.1581 14.1561 7.86012 -8.97769
459 1 15.7374 12.5832 6.28359 -8.95645
460 1 17.2984 14.1523 7.86308 -8.95137
461 1 18.8723 12.5798 6.28903 -8.95224
462 1 20.4417 14.1522 7.86218 -8.94986
463 1 22.0131 15.7247 6.28931 -8.95023
464 1 1.57071 17.2978 7.8617 -8.94928
465 1 3.14045 15.7263 6.28761 -8.9508
466 1 4.71317 17.3005 7.86068 -8.94762
467 1 6.27665 15.7367 6.27804 -8.93084
468 1 7.8586 17.305 7.86083 -8.95924
469 1 9.43292 15.7341 6.2845 -8.95256
470 1 11.0054 17.2994 7.86145 -8.9494
471 1 12.5848 15.7356 6.2836 -8.95594
472 1 14.1532 17.2995 7.86199 -8.94827
473 1 15.7278 15.7274 6.28837 -8.95012
474 1 17.2976 17.2976 7.86219 -8.94916
475 1 18.8701 15.7249 6.28971 -8.95022
476 1 20.4415 17.2973 7.86201 -8.94953
477 1 -0.00048738 18.8696 6.28943 -8.94946
478 1 1.57173 20.4419 7.86195 -8.94951
479 1 3.14327 18.8704 6.28885 -8.9492
480 1 4.71599 20.4427 7.86167 -8.94938
481 1 6.2877 18.8728 6.28798 -8.95148
482 1 7.86174 20.4432 7.86194 -8.95139
483 1 9.43436 18.8723 6.28833 -8.9505
484 1 11.0069 20.4424 7.86203 -8.94938
485 1 12.5797 18.8717 6.28925 -8.95238
486 1 14.1524 20.4423 7.86205 -8.94968
487 1 15.7251 18.8705 6.28946 -8.94952
488 1 17.2971 20.4419 7.86206 -8.94945
489 1 18.8694 18.8696 6.28962 -8.9495
490 1 20.4415 20.4417 7.86205 -8.94957
491 1 22.0134 12.5794 9.43453 -8.94929
492 1 3.14215 12.5791 9.43453 -8.95125
493 1 6.28077 12.5865 9.43453 -8.97371
494 1 9.35146 12.7924 9.43453 -8.19213
495 1 12.5907 12.6149 9.43453 -9.12537
496 1 15.7192 12.5766 9.43453 -8.98638
497 1 18.8695 12.5798 9.43453 -8.9462
498 1 -0.00105302 15.7249 9.43453 -8.94995
499 1 3.14018 15.7267 9.43453 -8.94906
500 1 6.27856 15.7346 9.43453 -8.94143
517 1 17.3008 11.007 11.0069 -8.95371
518 1 20.4424 11.007 11.0068 -8.94988
524 1 17.2984 14.1523 11.006 -8.95137
523 1 14.1581 14.1561 11.0089 -8.97769
527 1 4.71317 17.3005 11.0084 -8.94762
534 1 4.71599 20.4427 11.0074 -8.94938
538 1 17.2971 20.4419 11.007 -8.94945
365 1 22.014 15.7244 -0.000223219 -8.94952
373 1 12.5795 15.7251 -0.00112929 -8.94962
512 1 1.57194 11.007 11.0072 -8.94778
513 1 4.71897 11.007 11.0066 -8.93933
514 1 7.88385 11.007 10.9983 -8.96954
515 1 11.0742 11.007 11.288 -8.31443
516 1 14.1685 11.007 11.0239 -9.01664
686 1 20.4417 20.4416 20.4415 -8.94929
685 1 18.8696 18.8696 18.8694 -8.94914
519 1 1.56993 14.1522 11.0072 -8.95172
520 1 4.70681 14.1558 11.0093 -8.95786
521 1 7.8218 14.1885 11.038 -8.85957
684 1 17.2969 20.4417 20.4415 -8.94963
683 1 15.7246 18.8697 18.8695 -8.94964
682 1 14.1519 20.4417 20.4415 -8.94954
681 1 12.5795 18.8697 18.8695 -8.94948
680 1 11.007 20.4417 20.4415 -8.94956
389 1 15.7246 18.8697 22.0135 -8.94964
528 1 7.8586 17.305 11.0082 -8.95924
529 1 11.0054 17.2994 11.0076 -8.9494
530 1 14.1532 17.2995 11.0071 -8.94827
531 1 17.2976 17.2976 11.0069 -8.94916
532 1 20.4415 17.2973 11.007 -8.94953
533 1 1.57173 20.4419 11.0071 -8.94951
383 1 6.2894 18.8696 22.0134 -8.9495
535 1 7.86174 20.4432 11.0071 -8.95139
536 1 11.0069 20.4424 11.007 -8.94938
537 1 14.1524 20.4423 11.007 -8.94968
381 1 3.14433 18.8695 22.0134 -8.94943
679 1 9.43442 18.8696 18.8695 -8.94952
540 1 1.57179 11.007 14.1527 -8.94959
541 1 4.71537 11.007 14.1536 -8.94663
542 1 7.8629 11.007 14.1508 -8.94483
543 1 11.012 11.007 14.1535 -9.01429
544 1 14.1638 11.007 14.1645 -8.94384
545 1 17.302 11.007 14.1549 -8.94857
546 1 20.4429 11.007 14.1526 -8.94993
547 1 0.00010625 12.5794 12.5797 -8.95007
548 1 1.57167 14.1518 14.1524 -8.94993
549 1 3.14311 12.5787 12.58 -8.94998
550 1 4.71448 14.1521 14.1536 -8.9519
551 1 6.28522 12.5774 12.58 -8.955
552 1 7.85397 14.1602 14.1635 -8.94997
553 1 9.41324 12.6089 12.5915 -8.9344
554 1 11.0076 14.158 14.1613 -8.94979
555 1 12.6256 12.6184 12.6206 -8.89215
556 1 14.1665 14.1658 14.1668 -8.92814
557 1 15.7374 12.5832 12.5855 -8.95645
558 1 17.3019 14.1545 14.1546 -8.95025
559 1 18.8723 12.5798 12.58 -8.95224
560 1 20.4427 14.1523 14.1524 -8.95026
561 1 22.0131 15.7247 12.5798 -8.95023
562 1 1.57088 17.2976 14.1528 -8.94968
563 1 3.14045 15.7263 12.5814 -8.9508
564 1 4.71292 17.3007 14.1559 -8.94474
565 1 6.27665 15.7367 12.591 -8.93084
566 1 7.86047 17.3007 14.1547 -8.94943
567 1 9.43292 15.7341 12.5846 -8.95256
568 1 11.0073 17.3004 14.1545 -8.94793
569 1 12.5848 15.7356 12.5855 -8.95594
570 1 14.1547 17.3017 14.1547 -8.9507
571 1 15.7278 15.7274 12.5807 -8.95012
572 1 17.2982 17.2982 14.1525 -8.94991
573 1 18.8701 15.7249 12.5793 -8.95022
574 1 20.4416 17.2972 14.1521 -8.94993
575 1 -0.00048738 18.8696 12.5796 -8.94946
576 1 1.5718 20.4419 14.1522 -8.9495
577 1 3.14327 18.8704 12.5802 -8.9492
578 1 4.71621 20.4426 14.1528 -8.94998
579 1 6.2877 18.8728 12.5811 -8.95148
580 1 7.86181 20.4426 14.1528 -8.94968
581 1 9.43436 18.8723 12.5807 -8.9505
582 1 11.0072 20.4426 14.1527 -8.94965
583 1 12.5797 18.8717 12.5798 -8.95238
584 1 14.1523 20.4426 14.1523 -8.95066
585 1 15.7251 18.8705 12.5796 -8.94952
586 1 17.2971 20.442 14.152 -8.94965
587 1 18.8694 18.8696 12.5794 -8.9495
588 1 20.4415 20.4417 14.1519 -8.94956
589 1 1.5722 11.007 17.2972 -8.94956
590 1 4.71659 11.007 17.2975 -8.94963
591 1 7.86168 11.007 17.2972 -8.94836
592 1 11.007 11.007 17.2984 -8.94776
593 1 14.1543 11.007 17.3011 -8.9499
594 1 17.2985 11.007 17.2984 -8.94935
595 1 20.4421 11.007 17.2973 -8.9495
596 1 22.0141 12.5795 15.7249 -8.94955
597 1 1.5722 14.1519 17.2971 -8.94942
598 1 3.14399 12.5794 15.7252 -8.94899
599 1 4.71666 14.1516 17.2975 -8.94961
600 1 6.28883 12.5788 15.7253 -8.94871
601 1 7.86135 14.1524 17.2993 -8.95255
602 1 9.43439 12.5801 15.727 -8.95219
603 1 11.0067 14.1531 17.2997 -8.9504
604 1 12.5829 12.5814 15.7337 -8.95906
605 1 14.1538 14.1538 17.301 -8.95183
606 1 15.7288 12.5811 15.7289 -8.94761
607 1 17.2984 14.1528 17.2983 -8.94916
608 1 18.8711 12.5798 15.7256 -8.94926
609 1 20.4421 14.1521 17.2972 -8.94946
610 1 0.000117194 15.7245 15.7247 -8.94985
611 1 1.57205 17.2969 17.2972 -8.94984
612 1 3.1436 15.7246 15.7254 -8.95043
613 1 4.71593 17.2979 17.2985 -8.94924
614 1 6.28621 15.7274 15.7293 -8.94912
615 1 7.86159 17.2978 17.2981 -8.94914
616 1 9.43372 15.7271 15.7277 -8.94764
617 1 11.007 17.2979 17.2981 -8.94935
618 1 12.5806 15.7274 15.7281 -8.94864
619 1 14.1525 17.2981 17.2981 -8.9496
620 1 15.7291 15.7291 15.7291 -8.94398
621 1 17.2982 17.2983 17.2981 -8.94806
622 1 18.8709 15.7255 15.7254 -8.94952
623 1 20.442 17.2971 17.2971 -8.94952
624 1 22.0135 18.8695 15.7247 -8.94957
625 1 1.57195 20.4418 17.2971 -8.9492
626 1 3.14342 18.8703 15.7256 -8.94828
627 1 4.71684 20.4419 17.2973 -8.94963
628 1 6.28884 18.8705 15.7257 -8.94967
629 1 7.86195 20.4419 17.2973 -8.94948
630 1 9.43438 18.8705 15.7255 -8.94937
631 1 11.007 20.4419 17.2973 -8.94951
632 1 12.5798 18.8706 15.7254 -8.94911
633 1 14.1521 20.442 17.2972 -8.94948
634 1 15.7255 18.8709 15.7255 -8.94966
635 1 17.2972 20.442 17.2971 -8.94955
636 1 18.8696 18.8697 15.7246 -8.94971
637 1 20.4416 20.4417 17.2969 -8.94955
638 1 1.57228 11.007 20.4415 -8.94959
639 1 4.71683 11.007 20.4415 -8.94965
640 1 7.86167 11.007 20.4415 -8.94922
641 1 11.0066 11.007 20.4415 -8.9488
642 1 14.1526 11.007 20.4415 -8.95044
643 1 17.2976 11.007 20.4415 -8.94949
644 1 20.4419 11.007 20.4415 -8.94955
645 1 0.000118806 12.5794 18.8693 -8.94956
646 1 1.5723 14.1518 20.4415 -8.94955
647 1 3.14448 12.5794 18.8694 -8.94955
648 1 4.71691 14.1517 20.4415 -8.94952
649 1 6.28923 12.5793 18.8695 -8.94934
650 1 7.86177 14.1519 20.4415 -8.95048
651 1 9.43425 12.5793 18.8698 -8.94961
652 1 11.0066 14.1523 20.4415 -8.9502
653 1 12.5796 12.5796 18.871 -8.95156
654 1 14.1523 14.1524 20.4415 -8.95079
655 1 15.7255 12.5798 18.8705 -8.94949
656 1 17.2975 14.1523 20.4415 -8.94944
657 1 18.8699 12.5796 18.8696 -8.94948
658 1 20.4418 14.152 20.4415 -8.94954
659 1 22.014 15.7244 18.8693 -8.94952
660 1 1.57231 17.2967 20.4415 -8.94971
661 1 3.14454 15.7243 18.8694 -8.94972
662 1 4.71676 17.2971 20.4415 -8.95
663 1 6.28904 15.7247 18.8701 -8.95066
664 1 7.8618 17.2972 20.4415 -8.94951
665 1 9.43414 15.725 18.8701 -8.94959
666 1 11.0069 17.2973 20.4415 -8.94954
667 1 12.5795 15.7251 18.8702 -8.94962
668 1 14.152 17.2973 20.4415 -8.94957
669 1 15.7253 15.7254 18.8704 -8.95008
670 1 17.2974 17.2974 20.4415 -8.94956
671 1 18.8698 15.7247 18.8695 -8.94948
672 1 20.4418 17.2969 20.4415 -8.94955
673 1 1.6332e-05 18.8693 18.8693 -8.94958
674 1 1.5722 20.4417 20.4415 -8.94939
675 1 3.14433 18.8695 18.8696 -8.94943
676 1 4.71708 20.4417 20.4415 -8.94957
677 1 6.2894 18.8696 18.8695 -8.9495
678 1 7.862 20.4417 20.4415 -8.94955
351 1 0.000118806 12.5794 22.0136 -8.94956
355 1 6.28923 12.5793 22.0135 -8.94934
357 1 9.43425 12.5793 22.0131 -8.94961
359 1 12.5796 12.5796 22.012 -8.95156
361 1 15.7255 12.5798 22.0125 -8.94949
379 1 1.6332e-05 18.8693 22.0137 -8.94958
367 1 3.14454 15.7243 22.0136 -8.94972
377 1 18.8698 15.7247 22.0134 -8.94948
375 1 15.7253 15.7254 22.0126 -8.95008
539 1 20.4415 20.4417 11.007 -8.94957
387 1 12.5795 18.8697 22.0135 -8.94948
522 1 11.0177 14.1579 11.0291 -8.9668
