ITEM: TIMESTEP
101
ITEM: NUMBER OF ATOMS
688
ITEM: BOX BOUNDS pp pp pp
0.0000000000000000e+00 2.2013900999999997e+01
0.0000000000000000e+00 2.2013900999999997e+01
0.0000000000000000e+00 2.2013900999999997e+01
ITEM: ATOMS id type x y z c_pot
1 1 22.0137 2.4696e-15 -0.000233293 -8.94921
2 1 1.57177 1.57203 1.57176 -8.94917
175 1 18.8693 9.43415 9.43453 -8.94602
4 1 4.71662 1.57187 1.57156 -8.9496
174 1 15.7184 9.43772 9.43453 -8.98556
6 1 7.86183 1.57186 1.57158 -8.94945
7 1 9.43446 1.47596e-15 -0.000386546 -8.94952
8 1 11.007 1.57183 1.57162 -8.94948
173 1 12.5907 9.40048 9.43453 -9.12183
10 1 14.1522 1.57178 1.57173 -8.94947
172 1 9.35232 9.22496 9.43453 -8.19518
12 1 17.2974 1.57173 1.57175 -8.94954
196 1 20.4416 7.8617 11.0069 -8.94983
14 1 20.4416 1.57208 1.57206 -8.94952
171 1 6.28099 9.42732 9.43453 -8.97368
16 1 1.57193 4.71681 1.57166 -8.94984
170 1 3.14222 9.4347 9.43453 -8.9512
18 1 4.71563 4.7158 1.57029 -8.9492
169 1 22.0134 9.43451 9.43453 -8.9492
20 1 7.86138 4.71582 1.57066 -8.94911
21 1 9.43436 3.14407 -0.000585573 -8.94949
22 1 11.007 4.71566 1.57071 -8.94933
195 1 17.2983 7.8617 11.006 -8.95139
24 1 14.1528 4.71539 1.57061 -8.94957
168 1 18.8697 6.28868 9.43453 -8.94926
26 1 17.2986 4.71525 1.57068 -8.948
27 1 18.8698 3.14408 -0.000454333 -8.94908
28 1 20.4422 4.71656 1.57176 -8.9495
167 1 15.7252 6.28812 9.43453 -8.94615
30 1 1.5722 7.86198 1.57179 -8.94941
166 1 12.5772 6.28305 9.43453 -8.95967
32 1 4.71651 7.86216 1.57142 -8.9496
33 1 6.28886 6.28906 -0.00123478 -8.9507
34 1 7.8612 7.8613 1.56957 -8.95255
35 1 9.43406 6.28865 -0.00117879 -8.9496
36 1 11.0068 7.86051 1.56903 -8.95043
165 1 9.42909 6.29297 9.43453 -8.99812
38 1 14.1543 7.85975 1.56761 -8.95183
194 1 14.1578 7.8581 11.0091 -8.97726
40 1 17.2989 7.86082 1.57038 -8.94912
164 1 6.27819 6.27898 9.43453 -8.94145
42 1 20.4424 7.86167 1.57165 -8.94943
163 1 3.13975 6.28683 9.43453 -8.94905
44 1 3.14445 9.43451 -0.000397282 -8.94954
162 1 -0.00127709 6.28883 9.43453 -8.94996
161 1 18.8694 3.14415 9.43453 -8.94956
160 1 15.7251 3.14364 9.43453 -8.94903
159 1 12.5794 3.14295 9.43453 -8.95099
49 1 18.8702 9.43425 -0.000651513 -8.94943
50 1 -0.000363084 8.73667e-17 3.14447 -8.94953
51 1 1.57153 1.57192 4.71664 -8.94945
52 1 3.1439 8.98264e-14 3.14391 -8.94952
53 1 4.71591 1.57111 4.71596 -8.94998
54 1 6.28915 3.81055e-14 3.14386 -8.94959
55 1 7.86164 1.57108 4.7161 -8.94974
56 1 9.4345 3.5749e-14 3.14389 -8.94956
57 1 11.0072 1.5712 4.71622 -8.9497
58 1 12.5797 5.79502e-14 3.14405 -8.94955
59 1 14.1524 1.57119 4.71666 -8.95072
60 1 15.7248 1.97846e-14 3.14425 -8.95012
61 1 17.2972 1.57183 4.71697 -8.94967
62 1 18.8694 9.67128e-17 3.14455 -8.94964
63 1 20.4414 1.57211 4.71703 -8.94953
64 1 22.0134 3.14424 3.14422 -8.94957
65 1 1.57061 4.71608 4.71603 -8.94968
66 1 3.14312 3.1434 3.14315 -8.94829
67 1 4.71251 4.71285 4.71283 -8.94484
68 1 6.28854 3.14305 3.14309 -8.94968
69 1 7.86011 4.71272 4.71405 -8.9495
70 1 9.43428 3.14308 3.14326 -8.94937
71 1 11.0074 4.71313 4.71415 -8.94794
72 1 12.5799 3.14297 3.14342 -8.94912
73 1 14.155 4.71178 4.71399 -8.95075
74 1 15.7257 3.14262 3.14337 -8.94968
75 1 17.2985 4.71539 4.71635 -8.94999
76 1 18.8698 3.14396 3.14429 -8.94973
77 1 20.4416 4.71656 4.71687 -8.94996
78 1 0.000152237 6.28923 3.14415 -8.94989
79 1 1.57158 7.862 4.71654 -8.94999
80 1 3.14334 6.28907 3.14342 -8.95046
81 1 4.71415 7.86153 4.7153 -8.95195
82 1 6.2858 6.28604 3.13943 -8.94898
83 1 7.8535 7.85299 4.70516 -8.94941
84 1 9.43358 6.28636 3.14094 -8.94756
85 1 11.0078 7.8553 4.70702 -8.94948
86 1 12.581 6.286 3.14045 -8.94856
87 1 14.1672 7.84756 4.7015 -8.92779
88 1 15.7297 6.28428 3.13945 -8.94384
89 1 17.3025 7.85907 4.71409 -8.95025
90 1 18.8713 6.28815 3.1434 -8.94952
91 1 20.4429 7.86149 4.7165 -8.95032
92 1 22.0143 9.43436 3.14403 -8.94956
93 1 3.14392 9.43449 3.14378 -8.949
94 1 6.28867 9.43493 3.14367 -8.94863
95 1 9.43438 9.43346 3.14166 -8.95229
96 1 12.5834 9.43216 3.13456 -8.95907
97 1 15.7295 9.43257 3.13948 -8.94755
98 1 18.8716 9.43393 3.14321 -8.94926
99 1 22.0135 -3.37976e-15 6.28943 -8.94951
100 1 1.57142 1.57186 7.86186 -8.94947
101 1 3.1437 1.68056e-13 6.28907 -8.94937
102 1 4.71562 1.57099 7.86156 -8.94939
103 1 6.28887 1.28105e-12 6.28896 -8.95064
104 1 7.86152 1.57061 7.86188 -8.95139
105 1 9.43452 6.74069e-13 6.28902 -8.95028
106 1 11.0068 1.57151 7.86203 -8.94933
107 1 12.5796 4.04325e-13 6.28949 -8.95036
108 1 14.1524 1.57156 7.86206 -8.94966
109 1 15.7248 2.11785e-15 6.28953 -8.94965
110 1 17.2972 1.57196 7.86206 -8.94943
111 1 18.8693 -1.43808e-16 6.28957 -8.94949
112 1 20.4414 1.57209 7.86201 -8.94953
113 1 -0.000683966 3.14416 6.28931 -8.94943
114 1 1.57034 4.71588 7.86161 -8.94927
115 1 3.14286 3.14317 6.28862 -8.94917
116 1 4.71264 4.71296 7.86054 -8.94764
117 1 6.28732 3.14076 6.28778 -8.95146
118 1 7.85822 4.7087 7.86076 -8.95917
119 1 9.4342 3.14141 6.28819 -8.95058
120 1 11.0053 4.71463 7.86131 -8.94924
121 1 12.5797 3.14201 6.28913 -8.95244
122 1 14.1531 4.71448 7.86193 -8.94821
123 1 15.7252 3.1433 6.28941 -8.94953
124 1 17.2976 4.71619 7.86218 -8.94916
125 1 18.8694 3.1442 6.28957 -8.94949
126 1 20.4413 4.71649 7.86198 -8.94953
127 1 22.0129 6.28903 6.28923 -8.95025
128 1 1.56978 7.86156 7.8618 -8.9517
129 1 3.14009 6.28728 6.28746 -8.95077
130 1 4.70666 7.85775 7.8597 -8.95773
131 1 6.27637 6.27689 6.278 -8.93122
132 1 7.82225 7.82556 7.83155 -8.86139
133 1 9.43273 6.27943 6.2842 -8.95282
134 1 11.0176 7.85647 7.83972 -8.96807
135 1 12.585 6.27801 6.28315 -8.95613
136 1 14.1578 7.8581 7.85996 -8.97726
137 1 15.728 6.28635 6.28821 -8.95027
138 1 17.2983 7.8617 7.86306 -8.95139
139 1 18.8702 6.28891 6.28966 -8.95028
140 1 20.4416 7.8617 7.86218 -8.94983
141 1 0.000171756 9.43451 6.2893 -8.9501
142 1 3.14307 9.43507 6.28905 -8.95005
143 1 6.28505 9.43617 6.28893 -8.95526
144 1 9.41271 9.40424 6.27629 -8.93352
145 1 12.6262 9.39498 6.24711 -8.89088
146 1 15.7378 9.43051 6.28299 -8.9565
147 1 18.8726 9.434 6.28888 -8.95233
148 1 -0.000471571 1.23491e-15 9.43453 -8.94953
149 1 3.14362 1.02047e-13 9.43453 -8.94946
150 1 6.28852 2.46649e-12 9.43453 -8.95037
151 1 9.43449 3.83295e-12 9.43453 -8.9484
152 1 12.5797 6.07836e-14 9.43453 -8.94989
153 1 15.7249 -1.28612e-15 9.43453 -8.94952
154 1 18.8693 1.31755e-16 9.43453 -8.94955
155 1 22.0132 3.14411 9.43453 -8.9495
156 1 3.14272 3.1431 9.43453 -8.94945
157 1 6.28661 3.14053 9.43453 -8.9495
158 1 9.43393 3.14367 9.43453 -8.94614
183 1 1.57034 4.71588 11.0074 -8.94927
177 1 4.71562 1.57099 11.0075 -8.94939
181 1 17.2972 1.57196 11.007 -8.94943
184 1 4.71264 4.71296 11.0085 -8.94764
3 1 3.14443 -2.65767e-15 -0.000371009 -8.94956
11 1 15.7245 2.07185e-15 -0.000317003 -8.94954
29 1 22.0141 6.28944 -0.000321765 -8.94949
37 1 12.5796 6.28849 -0.00133165 -8.94965
176 1 1.57142 1.57186 11.0072 -8.94947
48 1 15.7259 9.43392 22.0122 -8.9495
178 1 7.86152 1.57061 11.0072 -8.95139
179 1 11.0068 1.57151 11.007 -8.94933
180 1 14.1524 1.57156 11.007 -8.94966
47 1 12.5798 9.43418 22.0118 -8.95166
343 1 18.8702 9.43425 18.8697 -8.94943
342 1 15.7259 9.43392 18.8707 -8.9495
46 1 9.43425 9.43449 22.013 -8.94965
185 1 7.85822 4.7087 11.0083 -8.95917
186 1 11.0053 4.71463 11.0077 -8.94924
187 1 14.1531 4.71448 11.0071 -8.94821
188 1 17.2976 4.71619 11.0069 -8.94916
189 1 20.4413 4.71649 11.0071 -8.94953
190 1 1.56978 7.86156 11.0073 -8.9517
191 1 4.70666 7.85775 11.0094 -8.95773
192 1 7.82225 7.82556 11.0375 -8.86139
341 1 12.5798 9.43418 18.8712 -8.95166
340 1 9.43425 9.43449 18.8699 -8.94965
339 1 6.28915 9.43462 18.8695 -8.94933
338 1 3.14445 9.43451 18.8695 -8.94954
197 1 22.0135 -2.73728e-15 12.5796 -8.94951
198 1 1.57153 1.57192 14.1524 -8.94945
199 1 3.1437 1.68223e-13 12.58 -8.94937
200 1 4.71591 1.57111 14.1531 -8.94998
201 1 6.28887 1.2822e-12 12.5801 -8.95064
202 1 7.86164 1.57108 14.153 -8.94974
203 1 9.43452 6.75285e-13 12.58 -8.95028
204 1 11.0072 1.5712 14.1528 -8.9497
205 1 12.5796 4.04411e-13 12.5796 -8.95036
206 1 14.1524 1.57119 14.1524 -8.95072
207 1 15.7248 2.22288e-15 12.5795 -8.94965
208 1 17.2972 1.57183 14.1521 -8.94967
209 1 18.8693 -2.20512e-17 12.5795 -8.94949
210 1 20.4414 1.57211 14.152 -8.94953
211 1 -0.000683966 3.14416 12.5797 -8.94943
212 1 1.57061 4.71608 14.153 -8.94968
213 1 3.14286 3.14317 12.5804 -8.94917
214 1 4.71251 4.71285 14.1562 -8.94484
215 1 6.28732 3.14076 12.5813 -8.95146
216 1 7.86011 4.71272 14.155 -8.9495
217 1 9.4342 3.14141 12.5809 -8.95058
218 1 11.0074 4.71313 14.1549 -8.94794
219 1 12.5797 3.14201 12.5799 -8.95244
220 1 14.155 4.71178 14.1551 -8.95075
221 1 15.7252 3.1433 12.5797 -8.94953
222 1 17.2985 4.71539 14.1527 -8.94999
223 1 18.8694 3.1442 12.5795 -8.94949
224 1 20.4416 4.71656 14.1522 -8.94996
225 1 22.0129 6.28903 12.5798 -8.95025
226 1 1.57158 7.862 14.1525 -8.94999
227 1 3.14009 6.28728 12.5816 -8.95077
228 1 4.71415 7.86153 14.1538 -8.95195
229 1 6.27637 6.27689 12.5911 -8.93122
230 1 7.8535 7.85299 14.1639 -8.94941
231 1 9.43273 6.27943 12.5849 -8.95282
232 1 11.0078 7.8553 14.162 -8.94948
233 1 12.585 6.27801 12.5859 -8.95613
234 1 14.1672 7.84756 14.1676 -8.92779
235 1 15.728 6.28635 12.5808 -8.95027
236 1 17.3025 7.85907 14.155 -8.95025
237 1 18.8702 6.28891 12.5794 -8.95028
238 1 20.4429 7.86149 14.1526 -8.95032
239 1 0.000171756 9.43451 12.5798 -8.9501
240 1 3.14307 9.43507 12.58 -8.95005
241 1 6.28505 9.43617 12.5801 -8.95526
242 1 9.41271 9.40424 12.5928 -8.93352
243 1 12.6262 9.39498 12.622 -8.89088
244 1 15.7378 9.43051 12.5861 -8.9565
245 1 18.8726 9.434 12.5802 -8.95233
246 1 -0.000363084 1.0547e-15 15.7246 -8.94953
247 1 1.57177 1.57203 17.2973 -8.94917
248 1 3.1439 9.11139e-14 15.7251 -8.94952
249 1 4.71662 1.57187 17.2975 -8.9496
250 1 6.28915 3.8976e-14 15.7252 -8.94959
251 1 7.86183 1.57186 17.2975 -8.94945
252 1 9.4345 3.60555e-14 15.7252 -8.94956
253 1 11.007 1.57183 17.2974 -8.94948
254 1 12.5797 5.83244e-14 15.725 -8.94955
255 1 14.1522 1.57178 17.2973 -8.94947
256 1 15.7248 1.9815e-14 15.7248 -8.95012
257 1 17.2974 1.57173 17.2973 -8.94954
258 1 18.8694 -9.96691e-16 15.7245 -8.94964
259 1 20.4416 1.57208 17.297 -8.94952
260 1 22.0134 3.14424 15.7248 -8.94957
261 1 1.57193 4.71681 17.2974 -8.94984
262 1 3.14312 3.1434 15.7259 -8.94829
263 1 4.71563 4.7158 17.2988 -8.9492
264 1 6.28854 3.14305 15.726 -8.94968
265 1 7.86138 4.71582 17.2984 -8.94911
266 1 9.43428 3.14308 15.7258 -8.94937
267 1 11.007 4.71566 17.2983 -8.94933
268 1 12.5799 3.14297 15.7256 -8.94912
269 1 14.1528 4.71539 17.2985 -8.94957
270 1 15.7257 3.14262 15.7257 -8.94968
271 1 17.2986 4.71525 17.2984 -8.948
272 1 18.8698 3.14396 15.7248 -8.94973
273 1 20.4422 4.71656 17.2973 -8.9495
274 1 0.000152237 6.28923 15.7249 -8.94989
275 1 1.5722 7.86198 17.2973 -8.94941
276 1 3.14334 6.28907 15.7256 -8.95046
277 1 4.71651 7.86216 17.2976 -8.9496
278 1 6.2858 6.28604 15.7296 -8.94898
279 1 7.8612 7.8613 17.2995 -8.95255
280 1 9.43358 6.28636 15.7281 -8.94756
281 1 11.0068 7.86051 17.3 -8.95043
282 1 12.581 6.286 15.7286 -8.94856
283 1 14.1543 7.85975 17.3014 -8.95183
284 1 15.7297 6.28428 15.7296 -8.94384
285 1 17.2989 7.86082 17.2987 -8.94912
286 1 18.8713 6.28815 15.7257 -8.94952
287 1 20.4424 7.86167 17.2974 -8.94943
288 1 22.0143 9.43436 15.725 -8.94956
289 1 3.14392 9.43449 15.7253 -8.949
290 1 6.28867 9.43493 15.7254 -8.94863
291 1 9.43438 9.43346 15.7274 -8.95229
292 1 12.5834 9.43216 15.7345 -8.95907
293 1 15.7295 9.43257 15.7296 -8.94755
294 1 18.8716 9.43393 15.7259 -8.94926
295 1 22.0137 2.84504e-15 18.8693 -8.94921
296 1 1.57209 1.57213 20.4415 -8.94932
297 1 3.14443 -1.22548e-15 18.8694 -8.94956
298 1 4.71692 1.57212 20.4415 -8.94954
299 1 6.28941 3.36981e-16 18.8694 -8.9495
300 1 7.86191 1.57208 20.4415 -8.94952
301 1 9.43446 2.00773e-15 18.8694 -8.94952
302 1 11.007 1.57205 20.4415 -8.94952
303 1 12.5795 1.87716e-15 18.8694 -8.94951
304 1 14.152 1.57204 20.4415 -8.9495
305 1 15.7245 1.95218e-15 18.8694 -8.94954
306 1 17.2971 1.57203 20.4415 -8.94959
307 1 18.8694 5.1358e-16 18.8694 -8.94939
308 1 20.4418 1.57216 20.4415 -8.9492
309 1 2.45389e-05 3.1445 18.8694 -8.94954
310 1 1.57226 4.71707 20.4415 -8.9497
311 1 3.14415 3.14422 18.8697 -8.94939
312 1 4.71658 4.7167 20.4415 -8.95003
313 1 6.28922 3.14418 18.8697 -8.94949
314 1 7.86166 4.7165 20.4415 -8.94951
315 1 9.43436 3.14407 18.8696 -8.94949
316 1 11.0069 4.71634 20.4415 -8.94953
317 1 12.5796 3.14401 18.8696 -8.94944
318 1 14.1522 4.71627 20.4415 -8.94957
319 1 15.7248 3.14394 18.8696 -8.94961
320 1 17.2977 4.7162 20.4415 -8.94952
321 1 18.8698 3.14408 18.8695 -8.94908
322 1 20.442 4.71685 20.4415 -8.9495
323 1 22.0141 6.28944 18.8694 -8.94949
324 1 1.57232 7.86202 20.4415 -8.94952
325 1 3.14443 6.28957 18.8695 -8.94973
326 1 4.71681 7.86213 20.4415 -8.94952
327 1 6.28886 6.28906 18.8703 -8.9507
328 1 7.86168 7.86193 20.4415 -8.95052
329 1 9.43406 6.28865 18.8702 -8.9496
330 1 11.0067 7.86147 20.4415 -8.95025
331 1 12.5796 6.28849 18.8704 -8.94965
332 1 14.1525 7.86127 20.4415 -8.95084
333 1 15.7257 6.28818 18.8706 -8.95007
334 1 17.2979 7.86142 20.4415 -8.94941
335 1 18.8701 6.28896 18.8697 -8.94943
336 1 20.4421 7.86183 20.4415 -8.9495
337 1 0.000259582 9.43443 18.8694 -8.94952
45 1 6.28915 9.43462 22.0134 -8.94933
5 1 6.28941 -1.12901e-16 22.0135 -8.9495
9 1 12.5795 1.46237e-15 22.0135 -8.94951
43 1 0.000259582 9.43443 22.0136 -8.94952
15 1 2.45389e-05 3.1445 22.0136 -8.94954
17 1 3.14415 3.14422 22.0133 -8.94939
19 1 6.28922 3.14418 22.0133 -8.94949
25 1 15.7248 3.14394 22.0133 -8.94961
41 1 18.8701 6.28896 22.0133 -8.94943
31 1 3.14443 6.28957 22.0134 -8.94973
13 1 18.8694 2.68428e-16 22.0136 -8.94939
23 1 12.5796 3.14401 22.0133 -8.94944
39 1 15.7257 6.28818 22.0124 -8.95007
182 1 20.4414 1.57209 11.007 -8.94953
193 1 11.0176 7.85647 11.0293 -8.96807
344 1 1.57225 11.007 1.57176 -8.94954
345 1 4.71654 11.007 1.57152 -8.9496
346 1 7.86164 11.007 1.57183 -8.94838
347 1 11.0072 11.007 1.57037 -8.94795
348 1 14.1549 11.007 1.56739 -8.94993
349 1 17.299 11.007 1.57033 -8.94931
350 1 20.4424 11.007 1.5716 -8.94947
688 3 10.3039 11.007 9.43453 2.19209
352 1 1.5722 14.1519 1.57179 -8.94941
353 1 3.14445 12.5794 -0.000397282 -8.94954
354 1 4.71651 14.1517 1.57142 -8.9496
687 2 11.6541 11.007 9.43453 0.17542
356 1 7.8612 14.1526 1.56957 -8.95255
511 1 18.8694 18.8697 9.43453 -8.94956
358 1 11.0068 14.1534 1.56903 -8.95043
510 1 15.7251 18.8703 9.43453 -8.94903
360 1 14.1543 14.1541 1.56761 -8.95183
509 1 12.5794 18.871 9.43453 -8.95099
362 1 17.2989 14.1531 1.57038 -8.94912
363 1 18.8702 12.5797 -0.000651513 -8.94943
364 1 20.4424 14.1522 1.57165 -8.94943
508 1 9.43393 18.8702 9.43453 -8.94614
366 1 1.57193 17.2971 1.57166 -8.94984
507 1 6.28661 18.8734 9.43453 -8.9495
368 1 4.71563 17.2981 1.57029 -8.9492
369 1 6.28886 15.7248 -0.00123478 -8.9507
370 1 7.86138 17.2981 1.57066 -8.94911
371 1 9.43406 15.7252 -0.00117879 -8.9496
372 1 11.007 17.2982 1.57071 -8.94933
506 1 3.14272 18.8708 9.43453 -8.94945
374 1 14.1528 17.2985 1.57061 -8.94957
526 1 1.57034 17.298 11.0074 -8.94927
376 1 17.2986 17.2986 1.57068 -8.948
505 1 22.0132 18.8698 9.43453 -8.9495
378 1 20.4422 17.2973 1.57176 -8.9495
504 1 18.8697 15.7252 9.43453 -8.94926
380 1 1.57177 20.4419 1.57176 -8.94917
503 1 15.7252 15.7258 9.43453 -8.94615
382 1 4.71662 20.442 1.57156 -8.9496
502 1 12.5772 15.7308 9.43453 -8.95967
384 1 7.86183 20.442 1.57158 -8.94945
385 1 9.43436 18.8698 -0.000585573 -8.94949
386 1 11.007 20.4421 1.57162 -8.94948
525 1 20.4416 14.1522 11.0069 -8.94983
388 1 14.1522 20.4421 1.57173 -8.94947
501 1 9.42909 15.7209 9.43453 -8.99811
390 1 17.2974 20.4422 1.57175 -8.94954
391 1 18.8698 18.8698 -0.000454333 -8.94908
392 1 20.4416 20.4418 1.57206 -8.94952
393 1 1.57184 11.007 4.71631 -8.94962
394 1 4.71531 11.007 4.71541 -8.94668
395 1 7.86269 11.007 4.71784 -8.94464
396 1 11.0123 11.007 4.71435 -9.01462
397 1 14.1646 11.007 4.70349 -8.94376
398 1 17.3026 11.007 4.7137 -8.94855
399 1 20.4432 11.007 4.7163 -8.94997
400 1 22.0143 12.5795 3.14403 -8.94956
401 1 1.57158 14.1519 4.71654 -8.94999
402 1 3.14392 12.5794 3.14378 -8.949
403 1 4.71415 14.1524 4.7153 -8.95195
404 1 6.28867 12.579 3.14367 -8.94863
405 1 7.8535 14.1609 4.70516 -8.94941
406 1 9.43438 12.5804 3.14166 -8.95229
407 1 11.0078 14.1586 4.70702 -8.94948
408 1 12.5834 12.5817 3.13456 -8.95907
409 1 14.1672 14.1663 4.7015 -8.92779
410 1 15.7295 12.5813 3.13948 -8.94755
411 1 17.3025 14.1548 4.71409 -8.95025
412 1 18.8716 12.58 3.14321 -8.94926
413 1 20.4429 14.1524 4.7165 -8.95032
414 1 0.000152237 15.7247 3.14415 -8.94989
415 1 1.57061 17.2978 4.71603 -8.94968
416 1 3.14334 15.7248 3.14342 -8.95046
417 1 4.71251 17.3011 4.71283 -8.94484
418 1 6.2858 15.7279 3.13943 -8.94898
419 1 7.86011 17.3012 4.71405 -8.9495
420 1 9.43358 15.7275 3.14094 -8.94756
421 1 11.0074 17.3008 4.71415 -8.94794
422 1 12.581 15.7279 3.14045 -8.94856
423 1 14.155 17.3021 4.71399 -8.95075
424 1 15.7297 15.7296 3.13945 -8.94384
425 1 17.2985 17.2985 4.71635 -8.94999
426 1 18.8713 15.7257 3.1434 -8.94952
427 1 20.4416 17.2973 4.71687 -8.94996
428 1 22.0134 18.8697 3.14422 -8.94957
429 1 1.57153 20.442 4.71664 -8.94945
430 1 3.14312 18.8705 3.14315 -8.94829
431 1 4.71591 20.4428 4.71596 -8.94998
432 1 6.28854 18.8709 3.14309 -8.94968
433 1 7.86164 20.4428 4.7161 -8.94974
434 1 9.43428 18.8708 3.14326 -8.94937
435 1 11.0072 20.4427 4.71622 -8.9497
436 1 12.5799 18.8709 3.14342 -8.94912
437 1 14.1524 20.4427 4.71666 -8.95072
438 1 15.7257 18.8713 3.14337 -8.94968
439 1 17.2972 20.4421 4.71697 -8.94967
440 1 18.8698 18.8699 3.14429 -8.94973
441 1 20.4414 20.4418 4.71703 -8.94953
442 1 1.57202 11.007 7.86184 -8.94775
443 1 4.71912 11.007 7.8625 -8.93931
444 1 7.88403 11.007 7.87023 -8.97115
445 1 11.0739 11.007 7.57761 -8.31253
446 1 14.1682 11.007 7.84411 -9.01719
447 1 17.3007 11.007 7.862 -8.95373
448 1 20.4424 11.007 7.86222 -8.94984
449 1 0.000171756 12.5794 6.2893 -8.9501
450 1 1.56978 14.1523 7.8618 -8.9517
451 1 3.14307 12.5788 6.28905 -8.95005
452 1 4.70666 14.1561 7.8597 -8.95773
453 1 6.28505 12.5777 6.28893 -8.95526
454 1 7.82225 14.1883 7.83155 -8.86141
455 1 9.41271 12.6097 6.27629 -8.93352
456 1 11.0176 14.1574 7.83972 -8.96807
457 1 12.6262 12.6189 6.24711 -8.89088
458 1 14.1578 14.1558 7.85996 -8.97726
459 1 15.7378 12.5834 6.28299 -8.9565
460 1 17.2983 14.1522 7.86306 -8.95139
461 1 18.8726 12.5799 6.28888 -8.95233
462 1 20.4416 14.1522 7.86218 -8.94983
463 1 22.0129 15.7249 6.28923 -8.95025
464 1 1.57034 17.298 7.86161 -8.94927
465 1 3.14009 15.7266 6.28746 -8.95077
466 1 4.71264 17.3009 7.86054 -8.94764
467 1 6.27637 15.737 6.278 -8.93122
468 1 7.85822 17.3052 7.86076 -8.95917
469 1 9.43273 15.7345 6.2842 -8.95282
470 1 11.0053 17.2993 7.86131 -8.94924
471 1 12.585 15.7359 6.28315 -8.95613
472 1 14.1531 17.2994 7.86193 -8.94821
473 1 15.728 15.7276 6.28821 -8.95027
474 1 17.2976 17.2977 7.86218 -8.94916
475 1 18.8702 15.725 6.28966 -8.95028
476 1 20.4413 17.2974 7.86198 -8.94953
477 1 -0.000683966 18.8697 6.28931 -8.94943
478 1 1.57142 20.442 7.86186 -8.94947
479 1 3.14286 18.8707 6.28862 -8.94917
480 1 4.71562 20.4429 7.86156 -8.94939
481 1 6.28732 18.8731 6.28778 -8.95146
482 1 7.86152 20.4433 7.86188 -8.95139
483 1 9.4342 18.8725 6.28819 -8.95058
484 1 11.0068 20.4424 7.86203 -8.94933
485 1 12.5797 18.8719 6.28913 -8.95244
486 1 14.1524 20.4423 7.86206 -8.94966
487 1 15.7252 18.8706 6.28941 -8.94953
488 1 17.2972 20.4419 7.86206 -8.94943
489 1 18.8694 18.8697 6.28957 -8.94949
490 1 20.4414 20.4418 7.86201 -8.94953
491 1 22.0134 12.5794 9.43453 -8.9492
492 1 3.14222 12.5792 9.43453 -8.9512
493 1 6.28099 12.5866 9.43453 -8.97368
494 1 9.35234 12.7889 9.43453 -8.19511
495 1 12.5907 12.6134 9.43453 -9.12182
496 1 15.7184 12.5762 9.43453 -8.98556
497 1 18.8693 12.5797 9.43453 -8.94602
498 1 -0.00127709 15.7251 9.43453 -8.94996
499 1 3.13975 15.7271 9.43453 -8.94905
500 1 6.27819 15.7349 9.43453 -8.94145
517 1 17.3007 11.007 11.0071 -8.95373
518 1 20.4424 11.007 11.0068 -8.94984
524 1 17.2983 14.1522 11.006 -8.95139
523 1 14.1578 14.1558 11.0091 -8.97726
527 1 4.71264 17.3009 11.0085 -8.94764
534 1 4.71562 20.4429 11.0075 -8.94939
538 1 17.2972 20.4419 11.007 -8.94943
365 1 22.0141 15.7245 -0.000321765 -8.94949
373 1 12.5796 15.7254 -0.00133165 -8.94965
512 1 1.57202 11.007 11.0072 -8.94775
513 1 4.71912 11.007 11.0066 -8.93931
514 1 7.88403 11.007 10.9988 -8.97115
515 1 11.0739 11.007 11.2914 -8.31253
516 1 14.1682 11.007 11.0249 -9.01719
686 1 20.4418 20.4417 20.4415 -8.9492
685 1 18.8698 18.8698 18.8695 -8.94908
519 1 1.56978 14.1523 11.0073 -8.9517
520 1 4.70666 14.1561 11.0094 -8.95773
521 1 7.82225 14.1883 11.0375 -8.86141
684 1 17.2971 20.4419 20.4415 -8.94959
683 1 15.7248 18.87 18.8696 -8.94961
682 1 14.152 20.4419 20.4415 -8.9495
681 1 12.5796 18.8699 18.8696 -8.94944
680 1 11.007 20.4419 20.4415 -8.94952
389 1 15.7248 18.87 22.0133 -8.94961
528 1 7.85822 17.3052 11.0083 -8.95917
529 1 11.0053 17.2993 11.0077 -8.94924
530 1 14.1531 17.2994 11.0071 -8.94821
531 1 17.2976 17.2977 11.0069 -8.94916
532 1 20.4413 17.2974 11.0071 -8.94953
533 1 1.57142 20.442 11.0072 -8.94947
383 1 6.28922 18.8697 22.0133 -8.94949
535 1 7.86152 20.4433 11.0072 -8.95139
536 1 11.0068 20.4424 11.007 -8.94933
537 1 14.1524 20.4423 11.007 -8.94966
381 1 3.14415 18.8697 22.0133 -8.94939
679 1 9.43436 18.8698 18.8696 -8.94949
540 1 1.57184 11.007 14.1527 -8.94962
541 1 4.71531 11.007 14.1536 -8.94668
542 1 7.86269 11.007 14.1512 -8.94464
543 1 11.0123 11.007 14.1547 -9.01462
544 1 14.1646 11.007 14.1656 -8.94376
545 1 17.3026 11.007 14.1554 -8.94855
546 1 20.4432 11.007 14.1528 -8.94997
547 1 0.000171756 12.5794 12.5798 -8.9501
548 1 1.57158 14.1519 14.1525 -8.94999
549 1 3.14307 12.5788 12.58 -8.95005
550 1 4.71415 14.1524 14.1538 -8.95195
551 1 6.28505 12.5777 12.5801 -8.95526
552 1 7.8535 14.1609 14.1639 -8.94941
553 1 9.41271 12.6097 12.5928 -8.93352
554 1 11.0078 14.1586 14.162 -8.94948
555 1 12.6262 12.6189 12.622 -8.89088
556 1 14.1672 14.1663 14.1676 -8.92779
557 1 15.7378 12.5834 12.5861 -8.9565
558 1 17.3025 14.1548 14.155 -8.95025
559 1 18.8726 12.5799 12.5802 -8.95233
560 1 20.4429 14.1524 14.1526 -8.95032
561 1 22.0129 15.7249 12.5798 -8.95025
562 1 1.57061 17.2978 14.153 -8.94968
563 1 3.14009 15.7266 12.5816 -8.95077
564 1 4.71251 17.3011 14.1562 -8.94484
565 1 6.27637 15.737 12.5911 -8.93122
566 1 7.86011 17.3012 14.155 -8.9495
567 1 9.43273 15.7345 12.5849 -8.95282
568 1 11.0074 17.3008 14.1549 -8.94794
569 1 12.585 15.7359 12.5859 -8.95613
570 1 14.155 17.3021 14.1551 -8.95075
571 1 15.728 15.7276 12.5808 -8.95027
572 1 17.2985 17.2985 14.1527 -8.94999
573 1 18.8702 15.725 12.5794 -8.95028
574 1 20.4416 17.2973 14.1522 -8.94996
575 1 -0.000683966 18.8697 12.5797 -8.94943
576 1 1.57153 20.442 14.1524 -8.94945
577 1 3.14286 18.8707 12.5804 -8.94917
578 1 4.71591 20.4428 14.1531 -8.94998
579 1 6.28732 18.8731 12.5813 -8.95146
580 1 7.86164 20.4428 14.153 -8.94974
581 1 9.4342 18.8725 12.5809 -8.95058
582 1 11.0072 20.4427 14.1528 -8.9497
583 1 12.5797 18.8719 12.5799 -8.95244
584 1 14.1524 20.4427 14.1524 -8.95072
585 1 15.7252 18.8706 12.5797 -8.94953
586 1 17.2972 20.4421 14.1521 -8.94967
587 1 18.8694 18.8697 12.5795 -8.94949
588 1 20.4414 20.4418 14.152 -8.94953
589 1 1.57225 11.007 17.2973 -8.94954
590 1 4.71654 11.007 17.2975 -8.9496
591 1 7.86164 11.007 17.2972 -8.94838
592 1 11.0072 11.007 17.2987 -8.94795
593 1 14.1549 11.007 17.3017 -8.94993
594 1 17.299 11.007 17.2987 -8.94931
595 1 20.4424 11.007 17.2975 -8.94947
596 1 22.0143 12.5795 15.725 -8.94956
597 1 1.5722 14.1519 17.2973 -8.94941
598 1 3.14392 12.5794 15.7253 -8.949
599 1 4.71651 14.1517 17.2976 -8.9496
600 1 6.28867 12.579 15.7254 -8.94863
601 1 7.8612 14.1526 17.2995 -8.95255
602 1 9.43438 12.5804 15.7274 -8.95229
603 1 11.0068 14.1534 17.3 -8.95043
604 1 12.5834 12.5817 15.7345 -8.95907
605 1 14.1543 14.1541 17.3014 -8.95183
606 1 15.7295 12.5813 15.7296 -8.94755
607 1 17.2989 14.1531 17.2987 -8.94912
608 1 18.8716 12.58 15.7259 -8.94926
609 1 20.4424 14.1522 17.2974 -8.94943
610 1 0.000152237 15.7247 15.7249 -8.94989
611 1 1.57193 17.2971 17.2974 -8.94984
612 1 3.14334 15.7248 15.7256 -8.95046
613 1 4.71563 17.2981 17.2988 -8.9492
614 1 6.2858 15.7279 15.7296 -8.94898
615 1 7.86138 17.2981 17.2984 -8.94911
616 1 9.43358 15.7275 15.7281 -8.94756
617 1 11.007 17.2982 17.2983 -8.94933
618 1 12.581 15.7279 15.7286 -8.94856
619 1 14.1528 17.2985 17.2985 -8.94957
620 1 15.7297 15.7296 15.7296 -8.94384
621 1 17.2986 17.2986 17.2984 -8.948
622 1 18.8713 15.7257 15.7257 -8.94952
623 1 20.4422 17.2973 17.2973 -8.9495
624 1 22.0134 18.8697 15.7248 -8.94957
625 1 1.57177 20.4419 17.2973 -8.94917
626 1 3.14312 18.8705 15.7259 -8.94829
627 1 4.71662 20.442 17.2975 -8.9496
628 1 6.28854 18.8709 15.726 -8.94968
629 1 7.86183 20.442 17.2975 -8.94945
630 1 9.43428 18.8708 15.7258 -8.94937
631 1 11.007 20.4421 17.2974 -8.94948
632 1 12.5799 18.8709 15.7256 -8.94912
633 1 14.1522 20.4421 17.2973 -8.94947
634 1 15.7257 18.8713 15.7257 -8.94968
635 1 17.2974 20.4422 17.2973 -8.94954
636 1 18.8698 18.8699 15.7248 -8.94973
637 1 20.4416 20.4418 17.297 -8.94952
638 1 1.57232 11.007 20.4415 -8.94956
639 1 4.71678 11.007 20.4415 -8.94963
640 1 7.86163 11.007 20.4415 -8.94921
641 1 11.0067 11.007 20.4415 -8.94885
642 1 14.1529 11.007 20.4415 -8.95051
643 1 17.298 11.007 20.4415 -8.94946
644 1 20.4421 11.007 20.4415 -8.94951
645 1 0.000259582 12.5795 18.8694 -8.94952
646 1 1.57232 14.1519 20.4415 -8.94952
647 1 3.14445 12.5794 18.8695 -8.94954
648 1 4.71681 14.1518 20.4415 -8.94952
649 1 6.28915 12.5793 18.8695 -8.94933
650 1 7.86168 14.152 20.4415 -8.95052
651 1 9.43425 12.5794 18.8699 -8.94965
652 1 11.0067 14.1524 20.4415 -8.95025
653 1 12.5798 12.5797 18.8712 -8.95166
654 1 14.1525 14.1526 20.4415 -8.95084
655 1 15.7259 12.58 18.8707 -8.9495
656 1 17.2979 14.1525 20.4415 -8.94941
657 1 18.8702 12.5797 18.8697 -8.94943
658 1 20.4421 14.1521 20.4415 -8.9495
659 1 22.0141 15.7245 18.8694 -8.94949
660 1 1.57226 17.2968 20.4415 -8.9497
661 1 3.14443 15.7243 18.8695 -8.94973
662 1 4.71658 17.2972 20.4415 -8.95003
663 1 6.28886 15.7248 18.8703 -8.9507
664 1 7.86166 17.2974 20.4415 -8.94951
665 1 9.43406 15.7252 18.8702 -8.9496
666 1 11.0069 17.2976 20.4415 -8.94953
667 1 12.5796 15.7254 18.8704 -8.94965
668 1 14.1522 17.2976 20.4415 -8.94957
669 1 15.7257 15.7257 18.8706 -8.95007
670 1 17.2977 17.2977 20.4415 -8.94952
671 1 18.8701 15.7249 18.8697 -8.94943
672 1 20.442 17.2971 20.4415 -8.9495
673 1 2.45389e-05 18.8694 18.8694 -8.94954
674 1 1.57209 20.4418 20.4415 -8.94932
675 1 3.14415 18.8697 18.8697 -8.94939
676 1 4.71692 20.4418 20.4415 -8.94954
677 1 6.28922 18.8697 18.8697 -8.94949
678 1 7.86191 20.4418 20.4415 -8.94952
351 1 0.000259582 12.5795 22.0136 -8.94952
355 1 6.28915 12.5793 22.0134 -8.94933
357 1 9.43425 12.5794 22.013 -8.94965
359 1 12.5798 12.5797 22.0118 -8.95166
361 1 15.7259 12.58 22.0122 -8.9495
379 1 2.45389e-05 18.8694 22.0136 -8.94954
367 1 3.14443 15.7243 22.0134 -8.94973
377 1 18.8701 15.7249 22.0133 -8.94943
375 1 15.7257 15.7257 22.0124 -8.95007
539 1 20.4414 20.4418 11.007 -8.94953
387 1 12.5796 18.8699 22.0133 -8.94944
522 1 11.0176 14.1574 11.0293 -8.96807
