ITEM: TIMESTEP
26
ITEM: NUMBER OF ATOMS
688
ITEM: BOX BOUNDS pp pp pp
0.0000000000000000e+00 2.2013900999999997e+01
0.0000000000000000e+00 2.2013900999999997e+01
0.0000000000000000e+00 2.2013900999999997e+01
ITEM: ATOMS id type x y z c_pot
1 1 22.0139 1.29265e-16 -9.8301e-15 -8.94963
2 1 1.57242 1.57242 1.57242 -8.94963
175 1 18.8691 9.43453 9.43453 -8.94953
4 1 4.71726 1.57242 1.57242 -8.94963
174 1 15.7239 9.43475 9.43453 -8.9968
6 1 7.86211 1.57242 1.57242 -8.94963
7 1 9.43453 -1.65644e-17 2.19123e-11 -8.94963
8 1 11.007 1.57242 1.57242 -8.94963
173 1 12.5855 9.42469 9.43453 -9.21225
10 1 14.1518 1.57242 1.57242 -8.94963
172 1 9.41115 9.38946 9.43453 -7.89067
12 1 17.2966 1.57242 1.57242 -8.94963
196 1 20.4415 7.86211 11.007 -8.94963
14 1 20.4415 1.57242 1.57242 -8.94963
171 1 6.28943 9.4345 9.43453 -8.95487
16 1 1.57242 4.71726 1.57242 -8.94963
170 1 3.14484 9.43453 9.43453 -8.9497
18 1 4.71726 4.71726 1.57242 -8.94963
169 1 22.0139 9.43453 9.43453 -8.94963
20 1 7.86211 4.71726 1.57242 -8.94963
21 1 9.43453 3.14484 1.11461e-10 -8.94963
22 1 11.007 4.71726 1.57242 -8.94963
195 1 17.2966 7.86211 11.0069 -8.9497
24 1 14.1518 4.71726 1.57242 -8.94963
168 1 18.8691 6.28969 9.43453 -8.94962
26 1 17.2966 4.71726 1.57242 -8.94963
27 1 18.8691 3.14484 7.12578e-12 -8.94963
28 1 20.4415 4.71726 1.57242 -8.94963
167 1 15.7242 6.28969 9.43453 -8.94993
30 1 1.57242 7.86211 1.57242 -8.94963
166 1 12.5793 6.28953 9.43453 -8.95273
32 1 4.71726 7.86211 1.57242 -8.94963
33 1 6.28969 6.28969 -1.94943e-10 -8.94963
34 1 7.86211 7.86211 1.57242 -8.94963
35 1 9.43453 6.28969 1.45727e-09 -8.94963
36 1 11.007 7.86211 1.57242 -8.94964
165 1 9.43452 6.28919 9.43453 -8.95968
38 1 14.1518 7.86211 1.57242 -8.94963
194 1 14.1516 7.86239 11.0069 -8.99306
40 1 17.2966 7.86211 1.57242 -8.94963
164 1 6.28971 6.28971 9.43453 -8.95066
42 1 20.4415 7.86211 1.57242 -8.94963
163 1 3.14484 6.28969 9.43453 -8.94963
44 1 3.14484 9.43453 3.74994e-10 -8.94963
162 1 1.52705e-09 6.28969 9.43453 -8.94963
161 1 18.8691 3.14484 9.43453 -8.94963
160 1 15.7242 3.14484 9.43453 -8.94963
159 1 12.5794 3.14484 9.43453 -8.94968
49 1 18.8691 9.43453 2.27959e-11 -8.94963
50 1 5.73378e-13 1.07322e-16 3.14484 -8.94963
51 1 1.57242 1.57242 4.71726 -8.94963
52 1 3.14484 1.84821e-16 3.14484 -8.94963
53 1 4.71726 1.57242 4.71726 -8.94963
54 1 6.28969 2.41133e-17 3.14484 -8.94963
55 1 7.86211 1.57242 4.71726 -8.94963
56 1 9.43453 7.15394e-17 3.14484 -8.94963
57 1 11.007 1.57242 4.71726 -8.94963
58 1 12.5794 1.83128e-16 3.14484 -8.94963
59 1 14.1518 1.57242 4.71726 -8.94963
60 1 15.7242 1.07294e-16 3.14484 -8.94963
61 1 17.2966 1.57242 4.71726 -8.94963
62 1 18.8691 1.1189e-16 3.14484 -8.94963
63 1 20.4415 1.57242 4.71726 -8.94963
64 1 22.0139 3.14484 3.14484 -8.94963
65 1 1.57242 4.71726 4.71726 -8.94963
66 1 3.14484 3.14484 3.14484 -8.94963
67 1 4.71726 4.71726 4.71726 -8.94963
68 1 6.28969 3.14484 3.14484 -8.94963
69 1 7.86211 4.71726 4.71726 -8.94965
70 1 9.43453 3.14484 3.14484 -8.94963
71 1 11.007 4.71726 4.71726 -8.94964
72 1 12.5794 3.14484 3.14484 -8.94963
73 1 14.1518 4.71726 4.71726 -8.94963
74 1 15.7242 3.14484 3.14484 -8.94963
75 1 17.2966 4.71726 4.71726 -8.94963
76 1 18.8691 3.14484 3.14484 -8.94963
77 1 20.4415 4.71726 4.71726 -8.94963
78 1 1.18831e-10 6.28969 3.14484 -8.94963
79 1 1.57242 7.86211 4.71726 -8.94963
80 1 3.14484 6.28969 3.14484 -8.94963
81 1 4.71726 7.86211 4.71726 -8.94964
82 1 6.28969 6.28969 3.14484 -8.94963
83 1 7.86211 7.86211 4.71726 -8.94977
84 1 9.43453 6.28969 3.14484 -8.94963
85 1 11.0069 7.86212 4.71728 -8.95048
86 1 12.5794 6.28969 3.14484 -8.94965
87 1 14.1518 7.8621 4.71726 -8.94947
88 1 15.7242 6.28969 3.14484 -8.94963
89 1 17.2966 7.86211 4.71726 -8.94962
90 1 18.8691 6.28969 3.14484 -8.94963
91 1 20.4415 7.86211 4.71726 -8.94963
92 1 22.0139 9.43453 3.14484 -8.94963
93 1 3.14484 9.43453 3.14484 -8.94963
94 1 6.28969 9.43453 3.14484 -8.94963
95 1 9.43453 9.43453 3.14484 -8.94947
96 1 12.5794 9.43452 3.14484 -8.9496
97 1 15.7242 9.43453 3.14484 -8.94965
98 1 18.8691 9.43453 3.14484 -8.94963
99 1 22.0139 1.22328e-16 6.28969 -8.94963
100 1 1.57242 1.57242 7.86211 -8.94963
101 1 3.14484 1.67332e-16 6.28969 -8.94963
102 1 4.71726 1.57242 7.86211 -8.94963
103 1 6.28969 1.16621e-16 6.28969 -8.94963
104 1 7.86211 1.57242 7.86211 -8.94963
105 1 9.43453 7.52745e-17 6.28969 -8.94963
106 1 11.007 1.57242 7.86211 -8.94963
107 1 12.5794 1.40464e-16 6.28969 -8.94963
108 1 14.1518 1.57242 7.86211 -8.94963
109 1 15.7242 2.15417e-16 6.28969 -8.94963
110 1 17.2966 1.57242 7.86211 -8.94963
111 1 18.8691 2.25432e-16 6.28969 -8.94963
112 1 20.4415 1.57242 7.86211 -8.94963
113 1 1.20999e-10 3.14484 6.28969 -8.94963
114 1 1.57242 4.71726 7.86211 -8.94963
115 1 3.14484 3.14484 6.28969 -8.94963
116 1 4.71726 4.71726 7.86211 -8.94965
117 1 6.28969 3.14484 6.28969 -8.94963
118 1 7.8621 4.71726 7.8621 -8.94965
119 1 9.43453 3.14484 6.28969 -8.94963
120 1 11.007 4.71726 7.8621 -8.94953
121 1 12.5794 3.14484 6.28969 -8.94963
122 1 14.1518 4.71727 7.86211 -8.94954
123 1 15.7242 3.14484 6.28969 -8.94963
124 1 17.2966 4.71726 7.86211 -8.94963
125 1 18.8691 3.14484 6.28969 -8.94963
126 1 20.4415 4.71726 7.86211 -8.94963
127 1 22.0139 6.28969 6.28969 -8.94963
128 1 1.57242 7.86211 7.86211 -8.94963
129 1 3.14484 6.28969 6.28969 -8.94963
130 1 4.71726 7.86211 7.86211 -8.94971
131 1 6.28968 6.28968 6.28968 -8.94945
132 1 7.86171 7.86172 7.86171 -8.93624
133 1 9.43453 6.2897 6.2897 -8.95031
134 1 11.007 7.86208 7.862 -9.00182
135 1 12.5794 6.28968 6.28968 -8.94986
136 1 14.1516 7.86239 7.86214 -8.99306
137 1 15.7242 6.28969 6.28969 -8.94972
138 1 17.2966 7.86211 7.86211 -8.9497
139 1 18.8691 6.28969 6.28969 -8.94963
140 1 20.4415 7.86211 7.86211 -8.94963
141 1 1.43329e-09 9.43453 6.28969 -8.94963
142 1 3.14484 9.43453 6.28969 -8.94963
143 1 6.28968 9.43452 6.28968 -8.94948
144 1 9.43455 9.43443 6.28988 -8.98899
145 1 12.5798 9.43419 6.28939 -8.99291
146 1 15.7242 9.43451 6.28967 -8.94943
147 1 18.8691 9.43453 6.28969 -8.94963
148 1 2.67094e-11 1.16203e-16 9.43453 -8.94963
149 1 3.14484 1.72289e-17 9.43453 -8.94963
150 1 6.28969 8.12449e-17 9.43453 -8.94963
151 1 9.43453 2.06882e-16 9.43453 -8.94963
152 1 12.5794 9.99316e-17 9.43453 -8.94963
153 1 15.7242 2.77521e-16 9.43453 -8.94963
154 1 18.8691 2.23421e-16 9.43453 -8.94963
155 1 22.0139 3.14484 9.43453 -8.94963
156 1 3.14484 3.14484 9.43453 -8.94963
157 1 6.28969 3.14484 9.43453 -8.94963
158 1 9.43453 3.14484 9.43453 -8.94976
183 1 1.57242 4.71726 11.007 -8.94963
177 1 4.71726 1.57242 11.007 -8.94963
181 1 17.2966 1.57242 11.007 -8.94963
184 1 4.71726 4.71726 11.007 -8.94965
3 1 3.14484 1.09077e-16 2.49148e-13 -8.94963
11 1 15.7242 1.05727e-16 4.24484e-12 -8.94963
29 1 22.0139 6.28969 1.59007e-12 -8.94963
37 1 12.5794 6.28969 2.51059e-09 -8.94963
176 1 1.57242 1.57242 11.007 -8.94963
48 1 15.7242 9.43453 22.0139 -8.94963
178 1 7.86211 1.57242 11.007 -8.94963
179 1 11.007 1.57242 11.007 -8.94963
180 1 14.1518 1.57242 11.007 -8.94963
47 1 12.5794 9.43453 22.0139 -8.94963
343 1 18.8691 9.43453 18.8691 -8.94963
342 1 15.7242 9.43453 18.8691 -8.94963
46 1 9.43453 9.43453 22.0139 -8.94963
185 1 7.8621 4.71726 11.007 -8.94965
186 1 11.007 4.71726 11.007 -8.94953
187 1 14.1518 4.71727 11.007 -8.94954
188 1 17.2966 4.71726 11.007 -8.94963
189 1 20.4415 4.71726 11.007 -8.94963
190 1 1.57242 7.86211 11.007 -8.94963
191 1 4.71726 7.86211 11.007 -8.94971
192 1 7.86171 7.86172 11.0074 -8.93624
341 1 12.5794 9.43453 18.8691 -8.94963
340 1 9.43453 9.43453 18.8691 -8.94963
339 1 6.28969 9.43453 18.8691 -8.94963
338 1 3.14484 9.43453 18.8691 -8.94963
197 1 22.0139 1.21831e-16 12.5794 -8.94963
198 1 1.57242 1.57242 14.1518 -8.94963
199 1 3.14484 1.62453e-16 12.5794 -8.94963
200 1 4.71726 1.57242 14.1518 -8.94963
201 1 6.28969 1.08796e-16 12.5794 -8.94963
202 1 7.86211 1.57242 14.1518 -8.94963
203 1 9.43453 7.60227e-17 12.5794 -8.94963
204 1 11.007 1.57242 14.1518 -8.94963
205 1 12.5794 1.41955e-16 12.5794 -8.94963
206 1 14.1518 1.57242 14.1518 -8.94963
207 1 15.7242 2.10056e-16 12.5794 -8.94963
208 1 17.2966 1.57242 14.1518 -8.94963
209 1 18.8691 2.27777e-16 12.5794 -8.94963
210 1 20.4415 1.57242 14.1518 -8.94963
211 1 1.20999e-10 3.14484 12.5794 -8.94963
212 1 1.57242 4.71726 14.1518 -8.94963
213 1 3.14484 3.14484 12.5794 -8.94963
214 1 4.71726 4.71726 14.1518 -8.94963
215 1 6.28969 3.14484 12.5794 -8.94963
216 1 7.86211 4.71726 14.1518 -8.94965
217 1 9.43453 3.14484 12.5794 -8.94963
218 1 11.007 4.71726 14.1518 -8.94964
219 1 12.5794 3.14484 12.5794 -8.94963
220 1 14.1518 4.71726 14.1518 -8.94963
221 1 15.7242 3.14484 12.5794 -8.94963
222 1 17.2966 4.71726 14.1518 -8.94963
223 1 18.8691 3.14484 12.5794 -8.94963
224 1 20.4415 4.71726 14.1518 -8.94963
225 1 22.0139 6.28969 12.5794 -8.94963
226 1 1.57242 7.86211 14.1518 -8.94963
227 1 3.14484 6.28969 12.5794 -8.94963
228 1 4.71726 7.86211 14.1518 -8.94964
229 1 6.28968 6.28968 12.5794 -8.94945
230 1 7.86211 7.86211 14.1518 -8.94977
231 1 9.43453 6.2897 12.5794 -8.95031
232 1 11.0069 7.86212 14.1518 -8.95048
233 1 12.5794 6.28968 12.5794 -8.94986
234 1 14.1518 7.8621 14.1518 -8.94947
235 1 15.7242 6.28969 12.5794 -8.94972
236 1 17.2966 7.86211 14.1518 -8.94962
237 1 18.8691 6.28969 12.5794 -8.94963
238 1 20.4415 7.86211 14.1518 -8.94963
239 1 1.43329e-09 9.43453 12.5794 -8.94963
240 1 3.14484 9.43453 12.5794 -8.94963
241 1 6.28968 9.43452 12.5794 -8.94948
242 1 9.43455 9.43443 12.5792 -8.98899
243 1 12.5798 9.43419 12.5797 -8.99291
244 1 15.7242 9.43451 12.5794 -8.94943
245 1 18.8691 9.43453 12.5794 -8.94963
246 1 5.73376e-13 1.11424e-16 15.7242 -8.94963
247 1 1.57242 1.57242 17.2966 -8.94963
248 1 3.14484 1.95772e-16 15.7242 -8.94963
249 1 4.71726 1.57242 17.2966 -8.94963
250 1 6.28969 3.19072e-17 15.7242 -8.94963
251 1 7.86211 1.57242 17.2966 -8.94963
252 1 9.43453 7.14224e-17 15.7242 -8.94963
253 1 11.007 1.57242 17.2966 -8.94963
254 1 12.5794 1.86748e-16 15.7242 -8.94963
255 1 14.1518 1.57242 17.2966 -8.94963
256 1 15.7242 1.10745e-16 15.7242 -8.94963
257 1 17.2966 1.57242 17.2966 -8.94963
258 1 18.8691 1.1448e-16 15.7242 -8.94963
259 1 20.4415 1.57242 17.2966 -8.94963
260 1 22.0139 3.14484 15.7242 -8.94963
261 1 1.57242 4.71726 17.2966 -8.94963
262 1 3.14484 3.14484 15.7242 -8.94963
263 1 4.71726 4.71726 17.2966 -8.94963
264 1 6.28969 3.14484 15.7242 -8.94963
265 1 7.86211 4.71726 17.2966 -8.94963
266 1 9.43453 3.14484 15.7242 -8.94963
267 1 11.007 4.71726 17.2966 -8.94963
268 1 12.5794 3.14484 15.7242 -8.94963
269 1 14.1518 4.71726 17.2966 -8.94963
270 1 15.7242 3.14484 15.7242 -8.94963
271 1 17.2966 4.71726 17.2966 -8.94963
272 1 18.8691 3.14484 15.7242 -8.94963
273 1 20.4415 4.71726 17.2966 -8.94963
274 1 1.18831e-10 6.28969 15.7242 -8.94963
275 1 1.57242 7.86211 17.2966 -8.94963
276 1 3.14484 6.28969 15.7242 -8.94963
277 1 4.71726 7.86211 17.2966 -8.94963
278 1 6.28969 6.28969 15.7242 -8.94963
279 1 7.86211 7.86211 17.2966 -8.94963
280 1 9.43453 6.28969 15.7242 -8.94963
281 1 11.007 7.86211 17.2966 -8.94964
282 1 12.5794 6.28969 15.7242 -8.94965
283 1 14.1518 7.86211 17.2966 -8.94963
284 1 15.7242 6.28969 15.7242 -8.94963
285 1 17.2966 7.86211 17.2966 -8.94963
286 1 18.8691 6.28969 15.7242 -8.94963
287 1 20.4415 7.86211 17.2966 -8.94963
288 1 22.0139 9.43453 15.7242 -8.94963
289 1 3.14484 9.43453 15.7242 -8.94963
290 1 6.28969 9.43453 15.7242 -8.94963
291 1 9.43453 9.43453 15.7242 -8.94947
292 1 12.5794 9.43452 15.7242 -8.9496
293 1 15.7242 9.43453 15.7242 -8.94965
294 1 18.8691 9.43453 15.7242 -8.94963
295 1 22.0139 1.28595e-16 18.8691 -8.94963
296 1 1.57242 1.57242 20.4415 -8.94963
297 1 3.14484 1.04926e-16 18.8691 -8.94963
298 1 4.71726 1.57242 20.4415 -8.94963
299 1 6.28969 1.12101e-16 18.8691 -8.94963
300 1 7.86211 1.57242 20.4415 -8.94963
301 1 9.43453 -1.64761e-17 18.8691 -8.94963
302 1 11.007 1.57242 20.4415 -8.94963
303 1 12.5794 1.9242e-16 18.8691 -8.94963
304 1 14.1518 1.57242 20.4415 -8.94963
305 1 15.7242 1.05894e-16 18.8691 -8.94963
306 1 17.2966 1.57242 20.4415 -8.94963
307 1 18.8691 1.15597e-16 18.8691 -8.94963
308 1 20.4415 1.57242 20.4415 -8.94963
309 1 4.11156e-13 3.14484 18.8691 -8.94963
310 1 1.57242 4.71726 20.4415 -8.94963
311 1 3.14484 3.14484 18.8691 -8.94963
312 1 4.71726 4.71726 20.4415 -8.94963
313 1 6.28969 3.14484 18.8691 -8.94963
314 1 7.86211 4.71726 20.4415 -8.94963
315 1 9.43453 3.14484 18.8691 -8.94963
316 1 11.007 4.71726 20.4415 -8.94963
317 1 12.5794 3.14484 18.8691 -8.94963
318 1 14.1518 4.71726 20.4415 -8.94963
319 1 15.7242 3.14484 18.8691 -8.94963
320 1 17.2966 4.71726 20.4415 -8.94963
321 1 18.8691 3.14484 18.8691 -8.94963
322 1 20.4415 4.71726 20.4415 -8.94963
323 1 22.0139 6.28969 18.8691 -8.94963
324 1 1.57242 7.86211 20.4415 -8.94963
325 1 3.14484 6.28969 18.8691 -8.94963
326 1 4.71726 7.86211 20.4415 -8.94963
327 1 6.28969 6.28969 18.8691 -8.94963
328 1 7.86211 7.86211 20.4415 -8.94963
329 1 9.43453 6.28969 18.8691 -8.94963
330 1 11.007 7.86211 20.4415 -8.94963
331 1 12.5794 6.28969 18.8691 -8.94963
332 1 14.1518 7.86211 20.4415 -8.94963
333 1 15.7242 6.28969 18.8691 -8.94963
334 1 17.2966 7.86211 20.4415 -8.94963
335 1 18.8691 6.28969 18.8691 -8.94963
336 1 20.4415 7.86211 20.4415 -8.94963
337 1 7.10363e-12 9.43453 18.8691 -8.94963
45 1 6.28969 9.43453 22.0139 -8.94963
5 1 6.28969 1.13459e-16 22.0139 -8.94963
9 1 12.5794 1.97206e-16 22.0139 -8.94963
43 1 7.10357e-12 9.43453 22.0139 -8.94963
15 1 4.11144e-13 3.14484 22.0139 -8.94963
17 1 3.14484 3.14484 22.0139 -8.94963
19 1 6.28969 3.14484 22.0139 -8.94963
25 1 15.7242 3.14484 22.0139 -8.94963
41 1 18.8691 6.28969 22.0139 -8.94963
31 1 3.14484 6.28969 22.0139 -8.94963
13 1 18.8691 1.20184e-16 22.0139 -8.94963
23 1 12.5794 3.14484 22.0139 -8.94963
39 1 15.7242 6.28969 22.0139 -8.94963
182 1 20.4415 1.57242 11.007 -8.94963
193 1 11.007 7.86208 11.0071 -9.00182
344 1 1.57242 11.007 1.57242 -8.94963
345 1 4.71726 11.007 1.57242 -8.94963
346 1 7.86211 11.007 1.57242 -8.94964
347 1 11.007 11.007 1.57242 -8.9498
348 1 14.1518 11.007 1.57242 -8.94964
349 1 17.2966 11.007 1.57242 -8.94963
350 1 20.4415 11.007 1.57242 -8.94963
688 3 10.2214 11.007 9.43453 4.42158
352 1 1.57242 14.1518 1.57242 -8.94963
353 1 3.14484 12.5794 3.74994e-10 -8.94963
354 1 4.71726 14.1518 1.57242 -8.94963
687 2 11.7927 11.007 9.43453 1.00496
356 1 7.86211 14.1518 1.57242 -8.94963
511 1 18.8691 18.8691 9.43453 -8.94963
358 1 11.007 14.1518 1.57242 -8.94964
510 1 15.7242 18.8691 9.43453 -8.94963
360 1 14.1518 14.1518 1.57242 -8.94963
509 1 12.5794 18.8691 9.43453 -8.94968
362 1 17.2966 14.1518 1.57242 -8.94963
363 1 18.8691 12.5794 2.27959e-11 -8.94963
364 1 20.4415 14.1518 1.57242 -8.94963
508 1 9.43453 18.8691 9.43453 -8.94976
366 1 1.57242 17.2966 1.57242 -8.94963
507 1 6.28969 18.8691 9.43453 -8.94963
368 1 4.71726 17.2966 1.57242 -8.94963
369 1 6.28969 15.7242 -1.94943e-10 -8.94963
370 1 7.86211 17.2966 1.57242 -8.94963
371 1 9.43453 15.7242 1.45727e-09 -8.94963
372 1 11.007 17.2966 1.57242 -8.94963
506 1 3.14484 18.8691 9.43453 -8.94963
374 1 14.1518 17.2966 1.57242 -8.94963
526 1 1.57242 17.2966 11.007 -8.94963
376 1 17.2966 17.2966 1.57242 -8.94963
505 1 22.0139 18.8691 9.43453 -8.94963
378 1 20.4415 17.2966 1.57242 -8.94963
504 1 18.8691 15.7242 9.43453 -8.94962
380 1 1.57242 20.4415 1.57242 -8.94963
503 1 15.7242 15.7242 9.43453 -8.94993
382 1 4.71726 20.4415 1.57242 -8.94963
502 1 12.5793 15.7244 9.43453 -8.95273
384 1 7.86211 20.4415 1.57242 -8.94963
385 1 9.43453 18.8691 1.11462e-10 -8.94963
386 1 11.007 20.4415 1.57242 -8.94963
525 1 20.4415 14.1518 11.007 -8.94963
388 1 14.1518 20.4415 1.57242 -8.94963
501 1 9.43452 15.7247 9.43453 -8.95968
390 1 17.2966 20.4415 1.57242 -8.94963
391 1 18.8691 18.8691 7.12568e-12 -8.94963
392 1 20.4415 20.4415 1.57242 -8.94963
393 1 1.57242 11.007 4.71726 -8.94963
394 1 4.71727 11.007 4.71727 -8.94967
395 1 7.86212 11.007 4.71727 -8.95056
396 1 11.007 11.007 4.71662 -8.96104
397 1 14.1518 11.007 4.71727 -8.95093
398 1 17.2966 11.007 4.71727 -8.94966
399 1 20.4415 11.007 4.71726 -8.94963
400 1 22.0139 12.5794 3.14484 -8.94963
401 1 1.57242 14.1518 4.71726 -8.94963
402 1 3.14484 12.5794 3.14484 -8.94963
403 1 4.71726 14.1518 4.71726 -8.94964
404 1 6.28969 12.5794 3.14484 -8.94963
405 1 7.86211 14.1518 4.71726 -8.94977
406 1 9.43453 12.5794 3.14484 -8.94947
407 1 11.0069 14.1518 4.71728 -8.95048
408 1 12.5794 12.5794 3.14484 -8.9496
409 1 14.1518 14.1518 4.71726 -8.94947
410 1 15.7242 12.5794 3.14484 -8.94965
411 1 17.2966 14.1518 4.71726 -8.94962
412 1 18.8691 12.5794 3.14484 -8.94963
413 1 20.4415 14.1518 4.71726 -8.94963
414 1 1.18831e-10 15.7242 3.14484 -8.94963
415 1 1.57242 17.2966 4.71726 -8.94963
416 1 3.14484 15.7242 3.14484 -8.94963
417 1 4.71726 17.2966 4.71726 -8.94963
418 1 6.28969 15.7242 3.14484 -8.94963
419 1 7.86211 17.2966 4.71726 -8.94965
420 1 9.43453 15.7242 3.14484 -8.94963
421 1 11.007 17.2966 4.71726 -8.94964
422 1 12.5794 15.7242 3.14484 -8.94965
423 1 14.1518 17.2966 4.71726 -8.94963
424 1 15.7242 15.7242 3.14484 -8.94963
425 1 17.2966 17.2966 4.71726 -8.94963
426 1 18.8691 15.7242 3.14484 -8.94963
427 1 20.4415 17.2966 4.71726 -8.94963
428 1 22.0139 18.8691 3.14484 -8.94963
429 1 1.57242 20.4415 4.71726 -8.94963
430 1 3.14484 18.8691 3.14484 -8.94963
431 1 4.71726 20.4415 4.71726 -8.94963
432 1 6.28969 18.8691 3.14484 -8.94963
433 1 7.86211 20.4415 4.71726 -8.94963
434 1 9.43453 18.8691 3.14484 -8.94963
435 1 11.007 20.4415 4.71726 -8.94963
436 1 12.5794 18.8691 3.14484 -8.94963
437 1 14.1518 20.4415 4.71726 -8.94963
438 1 15.7242 18.8691 3.14484 -8.94963
439 1 17.2966 20.4415 4.71726 -8.94963
440 1 18.8691 18.8691 3.14484 -8.94963
441 1 20.4415 20.4415 4.71726 -8.94963
442 1 1.57242 11.007 7.86211 -8.94964
443 1 4.71725 11.007 7.8621 -8.94997
444 1 7.86057 11.007 7.86097 -8.9605
445 1 11.0246 11.007 7.81004 -8.15047
446 1 14.1534 11.007 7.8612 -8.99082
447 1 17.2967 11.007 7.86211 -8.9501
448 1 20.4415 11.007 7.86211 -8.94964
449 1 1.43329e-09 12.5794 6.28969 -8.94963
450 1 1.57242 14.1518 7.86211 -8.94963
451 1 3.14484 12.5794 6.28969 -8.94963
452 1 4.71726 14.1518 7.86211 -8.94971
453 1 6.28968 12.5794 6.28968 -8.94948
454 1 7.86171 14.1522 7.86171 -8.93624
455 1 9.43455 12.5795 6.28988 -8.98899
456 1 11.007 14.1518 7.862 -9.00182
457 1 12.5798 12.5797 6.28939 -8.99291
458 1 14.1516 14.1515 7.86214 -8.99306
459 1 15.7242 12.5794 6.28967 -8.94943
460 1 17.2966 14.1518 7.86211 -8.9497
461 1 18.8691 12.5794 6.28969 -8.94963
462 1 20.4415 14.1518 7.86211 -8.94963
463 1 22.0139 15.7242 6.28969 -8.94963
464 1 1.57242 17.2966 7.86211 -8.94963
465 1 3.14484 15.7242 6.28969 -8.94963
466 1 4.71726 17.2966 7.86211 -8.94965
467 1 6.28968 15.7242 6.28968 -8.94945
468 1 7.8621 17.2966 7.8621 -8.94965
469 1 9.43453 15.7242 6.2897 -8.95031
470 1 11.007 17.2966 7.8621 -8.94953
471 1 12.5794 15.7242 6.28968 -8.94986
472 1 14.1518 17.2966 7.86211 -8.94954
473 1 15.7242 15.7242 6.28969 -8.94972
474 1 17.2966 17.2966 7.86211 -8.94963
475 1 18.8691 15.7242 6.28969 -8.94963
476 1 20.4415 17.2966 7.86211 -8.94963
477 1 1.20999e-10 18.8691 6.28969 -8.94963
478 1 1.57242 20.4415 7.86211 -8.94963
479 1 3.14484 18.8691 6.28969 -8.94963
480 1 4.71726 20.4415 7.86211 -8.94963
481 1 6.28969 18.8691 6.28969 -8.94963
482 1 7.86211 20.4415 7.86211 -8.94963
483 1 9.43453 18.8691 6.28969 -8.94963
484 1 11.007 20.4415 7.86211 -8.94963
485 1 12.5794 18.8691 6.28969 -8.94963
486 1 14.1518 20.4415 7.86211 -8.94963
487 1 15.7242 18.8691 6.28969 -8.94963
488 1 17.2966 20.4415 7.86211 -8.94963
489 1 18.8691 18.8691 6.28969 -8.94963
490 1 20.4415 20.4415 7.86211 -8.94963
491 1 22.0139 12.5794 9.43453 -8.94963
492 1 3.14484 12.5794 9.43453 -8.9497
493 1 6.28943 12.5794 9.43453 -8.95487
494 1 9.41115 12.6244 9.43453 -7.89067
495 1 12.5855 12.5892 9.43453 -9.21225
496 1 15.7239 12.5792 9.43453 -8.9968
497 1 18.8691 12.5794 9.43453 -8.94953
498 1 1.52705e-09 15.7242 9.43453 -8.94963
499 1 3.14484 15.7242 9.43453 -8.94963
500 1 6.28971 15.7242 9.43453 -8.95066
517 1 17.2967 11.007 11.0069 -8.9501
518 1 20.4415 11.007 11.007 -8.94964
524 1 17.2966 14.1518 11.0069 -8.9497
523 1 14.1516 14.1515 11.0069 -8.99306
527 1 4.71726 17.2966 11.007 -8.94965
534 1 4.71726 20.4415 11.007 -8.94963
538 1 17.2966 20.4415 11.007 -8.94963
365 1 22.0139 15.7242 1.5901e-12 -8.94963
373 1 12.5794 15.7242 2.51059e-09 -8.94963
512 1 1.57242 11.007 11.007 -8.94964
513 1 4.71725 11.007 11.007 -8.94997
514 1 7.86057 11.007 11.0081 -8.9605
515 1 11.0246 11.007 11.059 -8.15047
516 1 14.1534 11.007 11.0079 -8.99082
686 1 20.4415 20.4415 20.4415 -8.94963
685 1 18.8691 18.8691 18.8691 -8.94963
519 1 1.57242 14.1518 11.007 -8.94963
520 1 4.71726 14.1518 11.007 -8.94971
521 1 7.86171 14.1522 11.0074 -8.93624
684 1 17.2966 20.4415 20.4415 -8.94963
683 1 15.7242 18.8691 18.8691 -8.94963
682 1 14.1518 20.4415 20.4415 -8.94963
681 1 12.5794 18.8691 18.8691 -8.94963
680 1 11.007 20.4415 20.4415 -8.94963
389 1 15.7242 18.8691 22.0139 -8.94963
528 1 7.8621 17.2966 11.007 -8.94965
529 1 11.007 17.2966 11.007 -8.94953
530 1 14.1518 17.2966 11.007 -8.94954
531 1 17.2966 17.2966 11.007 -8.94963
532 1 20.4415 17.2966 11.007 -8.94963
533 1 1.57242 20.4415 11.007 -8.94963
383 1 6.28969 18.8691 22.0139 -8.94963
535 1 7.86211 20.4415 11.007 -8.94963
536 1 11.007 20.4415 11.007 -8.94963
537 1 14.1518 20.4415 11.007 -8.94963
381 1 3.14484 18.8691 22.0139 -8.94963
679 1 9.43453 18.8691 18.8691 -8.94963
540 1 1.57242 11.007 14.1518 -8.94963
541 1 4.71727 11.007 14.1518 -8.94967
542 1 7.86212 11.007 14.1518 -8.95056
543 1 11.007 11.007 14.1524 -8.96104
544 1 14.1518 11.007 14.1518 -8.95093
545 1 17.2966 11.007 14.1518 -8.94966
546 1 20.4415 11.007 14.1518 -8.94963
547 1 1.43329e-09 12.5794 12.5794 -8.94963
548 1 1.57242 14.1518 14.1518 -8.94963
549 1 3.14484 12.5794 12.5794 -8.94963
550 1 4.71726 14.1518 14.1518 -8.94964
551 1 6.28968 12.5794 12.5794 -8.94948
552 1 7.86211 14.1518 14.1518 -8.94977
553 1 9.43455 12.5795 12.5792 -8.98899
554 1 11.0069 14.1518 14.1518 -8.95048
555 1 12.5798 12.5797 12.5797 -8.99291
556 1 14.1518 14.1518 14.1518 -8.94947
557 1 15.7242 12.5794 12.5794 -8.94943
558 1 17.2966 14.1518 14.1518 -8.94962
559 1 18.8691 12.5794 12.5794 -8.94963
560 1 20.4415 14.1518 14.1518 -8.94963
561 1 22.0139 15.7242 12.5794 -8.94963
562 1 1.57242 17.2966 14.1518 -8.94963
563 1 3.14484 15.7242 12.5794 -8.94963
564 1 4.71726 17.2966 14.1518 -8.94963
565 1 6.28968 15.7242 12.5794 -8.94945
566 1 7.86211 17.2966 14.1518 -8.94965
567 1 9.43453 15.7242 12.5794 -8.95031
568 1 11.007 17.2966 14.1518 -8.94964
569 1 12.5794 15.7242 12.5794 -8.94986
570 1 14.1518 17.2966 14.1518 -8.94963
571 1 15.7242 15.7242 12.5794 -8.94972
572 1 17.2966 17.2966 14.1518 -8.94963
573 1 18.8691 15.7242 12.5794 -8.94963
574 1 20.4415 17.2966 14.1518 -8.94963
575 1 1.20999e-10 18.8691 12.5794 -8.94963
576 1 1.57242 20.4415 14.1518 -8.94963
577 1 3.14484 18.8691 12.5794 -8.94963
578 1 4.71726 20.4415 14.1518 -8.94963
579 1 6.28969 18.8691 12.5794 -8.94963
580 1 7.86211 20.4415 14.1518 -8.94963
581 1 9.43453 18.8691 12.5794 -8.94963
582 1 11.007 20.4415 14.1518 -8.94963
583 1 12.5794 18.8691 12.5794 -8.94963
584 1 14.1518 20.4415 14.1518 -8.94963
585 1 15.7242 18.8691 12.5794 -8.94963
586 1 17.2966 20.4415 14.1518 -8.94963
587 1 18.8691 18.8691 12.5794 -8.94963
588 1 20.4415 20.4415 14.1518 -8.94963
589 1 1.57242 11.007 17.2966 -8.94963
590 1 4.71726 11.007 17.2966 -8.94963
591 1 7.86211 11.007 17.2966 -8.94964
592 1 11.007 11.007 17.2966 -8.9498
593 1 14.1518 11.007 17.2966 -8.94964
594 1 17.2966 11.007 17.2966 -8.94963
595 1 20.4415 11.007 17.2966 -8.94963
596 1 22.0139 12.5794 15.7242 -8.94963
597 1 1.57242 14.1518 17.2966 -8.94963
598 1 3.14484 12.5794 15.7242 -8.94963
599 1 4.71726 14.1518 17.2966 -8.94963
600 1 6.28969 12.5794 15.7242 -8.94963
601 1 7.86211 14.1518 17.2966 -8.94963
602 1 9.43453 12.5794 15.7242 -8.94947
603 1 11.007 14.1518 17.2966 -8.94964
604 1 12.5794 12.5794 15.7242 -8.9496
605 1 14.1518 14.1518 17.2966 -8.94963
606 1 15.7242 12.5794 15.7242 -8.94965
607 1 17.2966 14.1518 17.2966 -8.94963
608 1 18.8691 12.5794 15.7242 -8.94963
609 1 20.4415 14.1518 17.2966 -8.94963
610 1 1.18831e-10 15.7242 15.7242 -8.94963
611 1 1.57242 17.2966 17.2966 -8.94963
612 1 3.14484 15.7242 15.7242 -8.94963
613 1 4.71726 17.2966 17.2966 -8.94963
614 1 6.28969 15.7242 15.7242 -8.94963
615 1 7.86211 17.2966 17.2966 -8.94963
616 1 9.43453 15.7242 15.7242 -8.94963
617 1 11.007 17.2966 17.2966 -8.94963
618 1 12.5794 15.7242 15.7242 -8.94965
619 1 14.1518 17.2966 17.2966 -8.94963
620 1 15.7242 15.7242 15.7242 -8.94963
621 1 17.2966 17.2966 17.2966 -8.94963
622 1 18.8691 15.7242 15.7242 -8.94963
623 1 20.4415 17.2966 17.2966 -8.94963
624 1 22.0139 18.8691 15.7242 -8.94963
625 1 1.57242 20.4415 17.2966 -8.94963
626 1 3.14484 18.8691 15.7242 -8.94963
627 1 4.71726 20.4415 17.2966 -8.94963
628 1 6.28969 18.8691 15.7242 -8.94963
629 1 7.86211 20.4415 17.2966 -8.94963
630 1 9.43453 18.8691 15.7242 -8.94963
631 1 11.007 20.4415 17.2966 -8.94963
632 1 12.5794 18.8691 15.7242 -8.94963
633 1 14.1518 20.4415 17.2966 -8.94963
634 1 15.7242 18.8691 15.7242 -8.94963
635 1 17.2966 20.4415 17.2966 -8.94963
636 1 18.8691 18.8691 15.7242 -8.94963
637 1 20.4415 20.4415 17.2966 -8.94963
638 1 1.57242 11.007 20.4415 -8.94963
639 1 4.71726 11.007 20.4415 -8.94963
640 1 7.86211 11.007 20.4415 -8.94963
641 1 11.007 11.007 20.4415 -8.94964
642 1 14.1518 11.007 20.4415 -8.94963
643 1 17.2966 11.007 20.4415 -8.94963
644 1 20.4415 11.007 20.4415 -8.94963
645 1 7.10364e-12 12.5794 18.8691 -8.94963
646 1 1.57242 14.1518 20.4415 -8.94963
647 1 3.14484 12.5794 18.8691 -8.94963
648 1 4.71726 14.1518 20.4415 -8.94963
649 1 6.28969 12.5794 18.8691 -8.94963
650 1 7.86211 14.1518 20.4415 -8.94963
651 1 9.43453 12.5794 18.8691 -8.94963
652 1 11.007 14.1518 20.4415 -8.94963
653 1 12.5794 12.5794 18.8691 -8.94963
654 1 14.1518 14.1518 20.4415 -8.94963
655 1 15.7242 12.5794 18.8691 -8.94963
656 1 17.2966 14.1518 20.4415 -8.94963
657 1 18.8691 12.5794 18.8691 -8.94963
658 1 20.4415 14.1518 20.4415 -8.94963
659 1 22.0139 15.7242 18.8691 -8.94963
660 1 1.57242 17.2966 20.4415 -8.94963
661 1 3.14484 15.7242 18.8691 -8.94963
662 1 4.71726 17.2966 20.4415 -8.94963
663 1 6.28969 15.7242 18.8691 -8.94963
664 1 7.86211 17.2966 20.4415 -8.94963
665 1 9.43453 15.7242 18.8691 -8.94963
666 1 11.007 17.2966 20.4415 -8.94963
667 1 12.5794 15.7242 18.8691 -8.94963
668 1 14.1518 17.2966 20.4415 -8.94963
669 1 15.7242 15.7242 18.8691 -8.94963
670 1 17.2966 17.2966 20.4415 -8.94963
671 1 18.8691 15.7242 18.8691 -8.94963
672 1 20.4415 17.2966 20.4415 -8.94963
673 1 4.11038e-13 18.8691 18.8691 -8.94963
674 1 1.57242 20.4415 20.4415 -8.94963
675 1 3.14484 18.8691 18.8691 -8.94963
676 1 4.71726 20.4415 20.4415 -8.94963
677 1 6.28969 18.8691 18.8691 -8.94963
678 1 7.86211 20.4415 20.4415 -8.94963
351 1 7.10361e-12 12.5794 22.0139 -8.94963
355 1 6.28969 12.5794 22.0139 -8.94963
357 1 9.43453 12.5794 22.0139 -8.94963
359 1 12.5794 12.5794 22.0139 -8.94963
361 1 15.7242 12.5794 22.0139 -8.94963
379 1 4.11033e-13 18.8691 22.0139 -8.94963
367 1 3.14484 15.7242 22.0139 -8.94963
377 1 18.8691 15.7242 22.0139 -8.94963
375 1 15.7242 15.7242 22.0139 -8.94963
539 1 20.4415 20.4415 11.007 -8.94963
387 1 12.5794 18.8691 22.0139 -8.94963
522 1 11.007 14.1518 11.0071 -9.00182
