ITEM: TIMESTEP
60
ITEM: NUMBER OF ATOMS
688
ITEM: BOX BOUNDS pp pp pp
0.0000000000000000e+00 2.2013900999999997e+01
0.0000000000000000e+00 2.2013900999999997e+01
0.0000000000000000e+00 2.2013900999999997e+01
ITEM: ATOMS id type x y z c_pot
1 1 22.0139 -8.89683e-16 -3.3451e-05 -8.94949
2 1 1.57225 1.57231 1.57225 -8.94933
175 1 18.8697 9.43412 9.43453 -8.94674
4 1 4.71717 1.57226 1.57222 -8.94969
174 1 15.7208 9.43651 9.43453 -8.98829
6 1 7.86207 1.57224 1.57219 -8.94956
7 1 9.43452 8.65512e-16 -7.87057e-05 -8.94962
8 1 11.007 1.57222 1.57218 -8.94958
173 1 12.5912 9.39576 9.43453 -9.1309
10 1 14.1519 1.57224 1.57223 -8.94953
172 1 9.34875 9.2176 9.43453 -8.18608
12 1 17.2968 1.5722 1.57222 -8.94957
196 1 20.4417 7.86186 11.0069 -8.9499
14 1 20.4415 1.57236 1.57237 -8.9496
171 1 6.27998 9.42813 9.43453 -8.97403
16 1 1.57229 4.71719 1.57224 -8.9498
170 1 3.14214 9.43503 9.43453 -8.95146
18 1 4.71653 4.71657 1.57132 -8.94932
169 1 22.0135 9.43457 9.43453 -8.94958
20 1 7.86193 4.71666 1.57158 -8.94922
21 1 9.43451 3.14461 -0.000200463 -8.94959
22 1 11.0069 4.71658 1.5716 -8.94943
195 1 17.2984 7.86166 11.0061 -8.95122
24 1 14.152 4.71658 1.57167 -8.94968
168 1 18.8697 6.28902 9.43453 -8.94924
26 1 17.2975 4.71639 1.57159 -8.94829
27 1 18.8693 3.14465 -0.000134892 -8.94931
28 1 20.4417 4.71709 1.57224 -8.94955
167 1 15.7254 6.28808 9.43453 -8.94628
30 1 1.5723 7.86208 1.57223 -8.94948
166 1 12.5777 6.28188 9.43453 -8.96078
32 1 4.71697 7.8623 1.57196 -8.94961
33 1 6.28936 6.28942 -0.000693512 -8.95044
34 1 7.86163 7.86181 1.57034 -8.95229
35 1 9.43433 6.28921 -0.000668425 -8.94956
36 1 11.0066 7.86126 1.57013 -8.95021
165 1 9.42952 6.29187 9.43453 -8.99973
38 1 14.153 7.86081 1.56925 -8.95171
194 1 14.1584 7.85736 11.0087 -8.97827
40 1 17.2975 7.86169 1.57153 -8.94933
164 1 6.28026 6.28074 9.43453 -8.94169
42 1 20.4417 7.86202 1.5722 -8.94953
163 1 3.14147 6.28802 9.43453 -8.94906
44 1 3.14466 9.43451 -0.000173217 -8.94959
162 1 -0.000606923 6.28931 9.43453 -8.94987
161 1 18.8693 3.14458 9.43453 -8.94963
160 1 15.7248 3.14397 9.43453 -8.94917
159 1 12.5796 3.14277 9.43453 -8.95125
49 1 18.8693 9.43448 -0.000202594 -8.94958
50 1 -5.29387e-05 -2.57525e-16 3.14481 -8.94966
51 1 1.57222 1.57227 4.71716 -8.94962
52 1 3.14458 -3.42324e-16 3.14458 -8.94956
53 1 4.71672 1.57171 4.71671 -8.94991
54 1 6.2896 -3.83317e-16 3.14458 -8.94957
55 1 7.86201 1.57171 4.71675 -8.94955
56 1 9.43454 2.72507e-16 3.14453 -8.94959
57 1 11.0071 1.57172 4.71673 -8.94958
58 1 12.5795 9.17218e-16 3.14456 -8.94953
59 1 14.1521 1.57175 4.71697 -8.95038
60 1 15.7244 1.33385e-15 3.14465 -8.94989
61 1 17.2969 1.5722 4.71717 -8.94962
62 1 18.8691 -2.7495e-16 3.1448 -8.94963
63 1 20.4415 1.57236 4.71725 -8.94962
64 1 22.0137 3.14468 3.14469 -8.94958
65 1 1.5715 4.71672 4.71671 -8.94966
66 1 3.14407 3.14413 3.14407 -8.9484
67 1 4.71405 4.71418 4.71407 -8.94483
68 1 6.28937 3.14406 3.14413 -8.94971
69 1 7.86129 4.71447 4.71525 -8.94938
70 1 9.4345 3.14401 3.14411 -8.94943
71 1 11.0073 4.71459 4.71534 -8.94802
72 1 12.5795 3.14398 3.14421 -8.94916
73 1 14.1538 4.7135 4.71523 -8.95065
74 1 15.7249 3.14376 3.14415 -8.94963
75 1 17.2975 4.71635 4.71686 -8.94974
76 1 18.8693 3.14459 3.1447 -8.94967
77 1 20.4415 4.71705 4.71716 -8.94982
78 1 6.84563e-05 6.28958 3.14464 -8.94976
79 1 1.57195 7.86216 4.71693 -8.94976
80 1 3.14421 6.28957 3.14427 -8.95028
81 1 4.71538 7.86229 4.71601 -8.95164
82 1 6.28725 6.28744 3.14095 -8.94938
83 1 7.85538 7.85545 4.70688 -8.95111
84 1 9.43403 6.28779 3.14229 -8.94785
85 1 11.007 7.85731 4.70945 -8.95027
86 1 12.5799 6.28764 3.14227 -8.9488
87 1 14.1645 7.84975 4.70429 -8.92892
88 1 15.7277 6.28612 3.14122 -8.94439
89 1 17.3005 7.86016 4.71531 -8.9502
90 1 18.8701 6.28902 3.14418 -8.94953
91 1 20.4422 7.86183 4.71692 -8.9501
92 1 22.014 9.43447 3.14456 -8.94957
93 1 3.14426 9.43454 3.14422 -8.94907
94 1 6.28911 9.43525 3.14401 -8.9489
95 1 9.43437 9.43425 3.14255 -8.95179
96 1 12.5817 9.43301 3.13684 -8.95877
97 1 15.7272 9.43345 3.14161 -8.94788
98 1 18.8701 9.43431 3.14413 -8.9493
99 1 22.0138 1.30186e-15 6.28967 -8.94963
100 1 1.57219 1.57225 7.86207 -8.9496
101 1 3.14454 1.50067e-15 6.28956 -8.94948
102 1 4.71664 1.57167 7.8619 -8.94938
103 1 6.2894 4.79748e-16 6.28938 -8.9505
104 1 7.86199 1.57099 7.86201 -8.95132
105 1 9.43461 1.32181e-15 6.2893 -8.95012
106 1 11.007 1.57156 7.862 -8.94951
107 1 12.5795 9.90926e-16 6.28954 -8.95019
108 1 14.1522 1.57176 7.86203 -8.94971
109 1 15.7245 -4.43303e-16 6.28959 -8.94964
110 1 17.2969 1.57222 7.86209 -8.94951
111 1 18.8691 -2.47659e-16 6.28967 -8.94959
112 1 20.4415 1.57234 7.8621 -8.94962
113 1 -0.000181085 3.14465 6.28962 -8.94953
114 1 1.5715 4.71668 7.86192 -8.94933
115 1 3.14408 3.14411 6.28932 -8.94936
116 1 4.71457 4.71456 7.86111 -8.94784
117 1 6.28841 3.14195 6.28845 -8.95135
118 1 7.85957 4.70964 7.86097 -8.95904
119 1 9.43461 3.14227 6.28866 -8.95022
120 1 11.0058 4.71442 7.86165 -8.94933
121 1 12.5796 3.14272 6.28941 -8.95203
122 1 14.1531 4.71472 7.86202 -8.9485
123 1 15.7248 3.14392 6.28953 -8.94951
124 1 17.2973 4.71665 7.86217 -8.94927
125 1 18.8692 3.14464 6.28968 -8.94957
126 1 20.4415 4.71698 7.86207 -8.94955
127 1 22.0134 6.28942 6.28948 -8.95012
128 1 1.57047 7.8619 7.86189 -8.95159
129 1 3.14156 6.2882 6.28814 -8.95074
130 1 4.70786 7.85898 7.85989 -8.95787
131 1 6.27817 6.27857 6.27887 -8.93032
132 1 7.82189 7.8259 7.83032 -8.85684
133 1 9.43359 6.28118 6.28543 -8.95211
134 1 11.0171 7.85575 7.84154 -8.96565
135 1 12.5839 6.27958 6.28492 -8.95588
136 1 14.1584 7.85736 7.8604 -8.97827
137 1 15.727 6.28718 6.28873 -8.94972
138 1 17.2984 7.86166 7.86296 -8.95122
139 1 18.8698 6.28931 6.28974 -8.95006
140 1 20.4417 7.86186 7.86216 -8.9499
141 1 1.43095e-05 9.43454 6.28945 -8.95001
142 1 3.14335 9.43517 6.28911 -8.94979
143 1 6.2857 9.437 6.28907 -8.95437
144 1 9.41471 9.40751 6.27985 -8.93674
145 1 12.6238 9.39659 6.25143 -8.89584
146 1 15.7359 9.4312 6.2849 -8.95631
147 1 18.8716 9.43419 6.28926 -8.95194
148 1 -6.52414e-05 1.48218e-15 9.43453 -8.94963
149 1 3.14452 1.02948e-15 9.43453 -8.94954
150 1 6.28921 1.63052e-15 9.43453 -8.95018
151 1 9.43469 1.7167e-15 9.43453 -8.94889
152 1 12.5796 1.65287e-15 9.43453 -8.95014
153 1 15.7245 -8.47034e-16 9.43453 -8.94959
154 1 18.8692 2.74765e-17 9.43453 -8.94962
155 1 22.0137 3.14463 9.43453 -8.94958
156 1 3.14404 3.14408 9.43453 -8.94954
157 1 6.28801 3.14176 9.43453 -8.94939
158 1 9.43455 3.14345 9.43453 -8.94661
183 1 1.5715 4.71668 11.0071 -8.94933
177 1 4.71664 1.57167 11.0072 -8.94938
181 1 17.2969 1.57222 11.007 -8.94951
184 1 4.71457 4.71456 11.0079 -8.94784
3 1 3.14481 -6.75173e-16 -5.64178e-05 -8.94968
11 1 15.7242 1.40546e-15 -5.36913e-05 -8.94961
29 1 22.0139 6.28966 -5.81803e-05 -8.94959
37 1 12.5794 6.28923 -0.000661367 -8.94955
176 1 1.57219 1.57225 11.007 -8.9496
48 1 15.7248 9.43432 22.0131 -8.94948
178 1 7.86199 1.57099 11.007 -8.95132
179 1 11.007 1.57156 11.0071 -8.94951
180 1 14.1522 1.57176 11.007 -8.94971
47 1 12.5794 9.43442 22.0124 -8.95134
343 1 18.8693 9.43448 18.8693 -8.94958
342 1 15.7248 9.43432 18.8699 -8.94948
46 1 9.43433 9.43456 22.0133 -8.94962
185 1 7.85957 4.70964 11.0081 -8.95904
186 1 11.0058 4.71442 11.0074 -8.94933
187 1 14.1531 4.71472 11.007 -8.9485
188 1 17.2973 4.71665 11.0069 -8.94927
189 1 20.4415 4.71698 11.007 -8.94955
190 1 1.57047 7.8619 11.0072 -8.95159
191 1 4.70786 7.85898 11.0092 -8.95787
192 1 7.82189 7.8259 11.0387 -8.85684
341 1 12.5794 9.43442 18.8705 -8.95134
340 1 9.43433 9.43456 18.8697 -8.94962
339 1 6.28942 9.43461 18.8694 -8.94941
338 1 3.14466 9.43451 18.8692 -8.94959
197 1 22.0138 1.39935e-15 12.5794 -8.94963
198 1 1.57222 1.57227 14.1519 -8.94962
199 1 3.14454 7.73112e-16 12.5795 -8.94948
200 1 4.71672 1.57171 14.1523 -8.94991
201 1 6.2894 1.34049e-15 12.5797 -8.9505
202 1 7.86201 1.57171 14.1523 -8.94955
203 1 9.43461 1.66105e-15 12.5798 -8.95012
204 1 11.0071 1.57172 14.1523 -8.94958
205 1 12.5795 1.69888e-15 12.5795 -8.95019
206 1 14.1521 1.57175 14.1521 -8.95038
207 1 15.7245 3.0286e-17 12.5795 -8.94964
208 1 17.2969 1.5722 14.1519 -8.94962
209 1 18.8691 -1.94958e-16 12.5794 -8.94959
210 1 20.4415 1.57236 14.1518 -8.94962
211 1 -0.000181085 3.14465 12.5794 -8.94953
212 1 1.5715 4.71672 14.1524 -8.94966
213 1 3.14408 3.14411 12.5797 -8.94936
214 1 4.71405 4.71418 14.155 -8.94483
215 1 6.28841 3.14195 12.5806 -8.95135
216 1 7.86129 4.71447 14.1538 -8.94938
217 1 9.43461 3.14227 12.5804 -8.95022
218 1 11.0073 4.71459 14.1537 -8.94802
219 1 12.5796 3.14272 12.5796 -8.95203
220 1 14.1538 4.7135 14.1538 -8.95065
221 1 15.7248 3.14392 12.5795 -8.94951
222 1 17.2975 4.71635 14.1522 -8.94974
223 1 18.8692 3.14464 12.5794 -8.94957
224 1 20.4415 4.71705 14.1519 -8.94982
225 1 22.0134 6.28942 12.5796 -8.95012
226 1 1.57195 7.86216 14.1521 -8.94976
227 1 3.14156 6.2882 12.5809 -8.95074
228 1 4.71538 7.86229 14.153 -8.95164
229 1 6.27817 6.27857 12.5902 -8.93032
230 1 7.85538 7.85545 14.1622 -8.95111
231 1 9.43359 6.28118 12.5836 -8.95211
232 1 11.007 7.85731 14.1596 -8.95027
233 1 12.5839 6.27958 12.5841 -8.95588
234 1 14.1645 7.84975 14.1648 -8.92892
235 1 15.727 6.28718 12.5803 -8.94972
236 1 17.3005 7.86016 14.1537 -8.9502
237 1 18.8698 6.28931 12.5793 -8.95006
238 1 20.4422 7.86183 14.1521 -8.9501
239 1 1.43095e-05 9.43454 12.5796 -8.95001
240 1 3.14335 9.43517 12.5799 -8.94979
241 1 6.2857 9.437 12.58 -8.95437
242 1 9.41471 9.40751 12.5892 -8.93674
243 1 12.6238 9.39659 12.6176 -8.89584
244 1 15.7359 9.4312 12.5842 -8.95631
245 1 18.8716 9.43419 12.5798 -8.95194
246 1 -5.29387e-05 9.48075e-16 15.7242 -8.94966
247 1 1.57225 1.57231 17.2968 -8.94933
248 1 3.14458 4.4627e-16 15.7245 -8.94956
249 1 4.71717 1.57226 17.2968 -8.94969
250 1 6.2896 3.40559e-16 15.7245 -8.94957
251 1 7.86207 1.57224 17.2969 -8.94956
252 1 9.43454 1.16871e-15 15.7245 -8.94959
253 1 11.007 1.57222 17.2969 -8.94958
254 1 12.5795 1.43803e-15 15.7245 -8.94953
255 1 14.1519 1.57224 17.2968 -8.94953
256 1 15.7244 1.37591e-15 15.7244 -8.94989
257 1 17.2968 1.5722 17.2968 -8.94957
258 1 18.8691 -2.74719e-16 15.7243 -8.94963
259 1 20.4415 1.57236 17.2967 -8.9496
260 1 22.0137 3.14468 15.7244 -8.94958
261 1 1.57229 4.71719 17.2968 -8.9498
262 1 3.14407 3.14413 15.725 -8.9484
263 1 4.71653 4.71657 17.2977 -8.94932
264 1 6.28937 3.14406 15.7249 -8.94971
265 1 7.86193 4.71666 17.2975 -8.94922
266 1 9.4345 3.14401 15.7249 -8.94943
267 1 11.0069 4.71658 17.2975 -8.94943
268 1 12.5795 3.14398 15.7248 -8.94916
269 1 14.152 4.71658 17.2974 -8.94968
270 1 15.7249 3.14376 15.7249 -8.94963
271 1 17.2975 4.71639 17.2975 -8.94829
272 1 18.8693 3.14459 15.7244 -8.94967
273 1 20.4417 4.71709 17.2968 -8.94955
274 1 6.84563e-05 6.28958 15.7244 -8.94976
275 1 1.5723 7.86208 17.2968 -8.94948
276 1 3.14421 6.28957 15.7248 -8.95028
277 1 4.71697 7.8623 17.2971 -8.94961
278 1 6.28725 6.28744 15.7281 -8.94938
279 1 7.86163 7.86181 17.2987 -8.95229
280 1 9.43403 6.28779 15.7268 -8.94785
281 1 11.0066 7.86126 17.2989 -8.95021
282 1 12.5799 6.28764 15.7268 -8.9488
283 1 14.153 7.86081 17.2998 -8.95171
284 1 15.7277 6.28612 15.7278 -8.94439
285 1 17.2975 7.86169 17.2975 -8.94933
286 1 18.8701 6.28902 15.7249 -8.94953
287 1 20.4417 7.86202 17.2969 -8.94953
288 1 22.014 9.43447 15.7245 -8.94957
289 1 3.14426 9.43454 15.7248 -8.94907
290 1 6.28911 9.43525 15.725 -8.9489
291 1 9.43437 9.43425 15.7265 -8.95179
292 1 12.5817 9.43301 15.7322 -8.95877
293 1 15.7272 9.43345 15.7274 -8.94788
294 1 18.8701 9.43431 15.7249 -8.9493
295 1 22.0139 -3.18709e-16 18.8691 -8.94949
296 1 1.57236 1.57236 20.4415 -8.94953
297 1 3.14481 8.76515e-16 18.8691 -8.94968
298 1 4.71724 1.57237 20.4415 -8.94963
299 1 6.28966 8.69429e-16 18.8691 -8.94961
300 1 7.86209 1.57235 20.4415 -8.94962
301 1 9.43452 4.75507e-16 18.8691 -8.94962
302 1 11.007 1.57235 20.4415 -8.94963
303 1 12.5794 1.65899e-15 18.8691 -8.94962
304 1 14.1518 1.57236 20.4415 -8.94961
305 1 15.7242 1.33053e-15 18.8691 -8.94961
306 1 17.2967 1.57237 20.4415 -8.94969
307 1 18.8691 4.41807e-16 18.8691 -8.94956
308 1 20.4415 1.57238 20.4415 -8.9495
309 1 1.18606e-05 3.1448 18.8691 -8.94963
310 1 1.57239 4.71726 20.4415 -8.94969
311 1 3.14465 3.14465 18.8693 -8.94949
312 1 4.71706 4.71708 20.4415 -8.94987
313 1 6.28963 3.14466 18.8692 -8.94956
314 1 7.86201 4.71701 20.4415 -8.94953
315 1 9.43451 3.14461 18.8693 -8.94959
316 1 11.0069 4.71698 20.4415 -8.94958
317 1 12.5794 3.14462 18.8692 -8.94956
318 1 14.1518 4.71702 20.4415 -8.94958
319 1 15.7243 3.14465 18.8692 -8.9497
320 1 17.2969 4.71698 20.4415 -8.94959
321 1 18.8693 3.14465 18.8692 -8.94931
322 1 20.4415 4.71722 20.4415 -8.94964
323 1 22.0139 6.28966 18.8691 -8.94959
324 1 1.57236 7.86209 20.4415 -8.9496
325 1 3.14474 6.28971 18.8692 -8.94969
326 1 4.71712 7.86214 20.4415 -8.94954
327 1 6.28936 6.28942 18.8698 -8.95044
328 1 7.86194 7.86203 20.4415 -8.95035
329 1 9.43433 6.28921 18.8697 -8.94956
330 1 11.0068 7.86181 20.4415 -8.95008
331 1 12.5794 6.28923 18.8697 -8.94955
332 1 14.152 7.8618 20.4415 -8.95061
333 1 15.7248 6.28911 18.8699 -8.95001
334 1 17.297 7.86197 20.4415 -8.9495
335 1 18.8693 6.28956 18.8692 -8.94961
336 1 20.4416 7.86208 20.4415 -8.94963
337 1 9.85863e-06 9.43452 18.8691 -8.94962
45 1 6.28942 9.43461 22.0136 -8.94941
5 1 6.28966 4.97217e-16 22.0138 -8.94961
9 1 12.5794 1.12818e-15 22.0138 -8.94962
43 1 9.85863e-06 9.43452 22.0138 -8.94962
15 1 1.18606e-05 3.1448 22.0138 -8.94963
17 1 3.14465 3.14465 22.0137 -8.94949
19 1 6.28963 3.14466 22.0137 -8.94956
25 1 15.7243 3.14465 22.0137 -8.9497
41 1 18.8693 6.28956 22.0137 -8.94961
31 1 3.14474 6.28971 22.0138 -8.94969
13 1 18.8691 5.44747e-17 22.0138 -8.94956
23 1 12.5794 3.14462 22.0137 -8.94956
39 1 15.7248 6.28911 22.0131 -8.95001
182 1 20.4415 1.57234 11.007 -8.94962
193 1 11.0171 7.85575 11.0275 -8.96565
344 1 1.57227 11.007 1.57218 -8.94961
345 1 4.71679 11.007 1.57179 -8.94966
346 1 7.86173 11.007 1.57193 -8.94845
347 1 11.0067 11.007 1.57095 -8.94764
348 1 14.1533 11.007 1.56913 -8.94974
349 1 17.2975 11.007 1.57149 -8.94945
350 1 20.4417 11.007 1.57219 -8.94958
688 3 10.2821 11.007 9.43453 2.20209
352 1 1.5723 14.1518 1.57223 -8.94948
353 1 3.14466 12.5794 -0.000173217 -8.94959
354 1 4.71697 14.1516 1.57196 -8.94961
687 2 11.6905 11.007 9.43453 0.211455
356 1 7.86163 14.1521 1.57034 -8.95229
511 1 18.8693 18.8693 9.43453 -8.94963
358 1 11.0066 14.1526 1.57013 -8.95021
510 1 15.7248 18.8699 9.43453 -8.94917
360 1 14.153 14.1531 1.56925 -8.95171
509 1 12.5796 18.8711 9.43453 -8.95125
362 1 17.2975 14.1522 1.57153 -8.94933
363 1 18.8693 12.5794 -0.000202594 -8.94958
364 1 20.4417 14.1519 1.5722 -8.94953
508 1 9.43455 18.8704 9.43453 -8.94661
366 1 1.57229 17.2967 1.57224 -8.9498
507 1 6.28801 18.8721 9.43453 -8.94939
368 1 4.71653 17.2973 1.57132 -8.94932
369 1 6.28936 15.7245 -0.000693512 -8.95044
370 1 7.86193 17.2972 1.57158 -8.94922
371 1 9.43433 15.7247 -0.000668425 -8.94956
372 1 11.0069 17.2973 1.5716 -8.94943
506 1 3.14404 18.8698 9.43453 -8.94954
374 1 14.152 17.2973 1.57167 -8.94968
526 1 1.5715 17.2972 11.0071 -8.94933
376 1 17.2975 17.2975 1.57159 -8.94829
505 1 22.0137 18.8693 9.43453 -8.94958
378 1 20.4417 17.2968 1.57224 -8.94955
504 1 18.8697 15.7249 9.43453 -8.94924
380 1 1.57225 20.4416 1.57225 -8.94933
503 1 15.7254 15.7258 9.43453 -8.94628
382 1 4.71717 20.4416 1.57222 -8.94969
502 1 12.5777 15.732 9.43453 -8.96078
384 1 7.86207 20.4417 1.57219 -8.94956
385 1 9.43451 18.8693 -0.000200463 -8.94959
386 1 11.007 20.4417 1.57218 -8.94958
525 1 20.4417 14.152 11.0069 -8.9499
388 1 14.1519 20.4417 1.57223 -8.94953
501 1 9.42952 15.722 9.43453 -8.99973
390 1 17.2968 20.4417 1.57222 -8.94957
391 1 18.8693 18.8692 -0.000134892 -8.94931
392 1 20.4415 20.4415 1.57237 -8.9496
393 1 1.57187 11.007 4.71667 -8.94955
394 1 4.71563 11.007 4.71561 -8.94676
395 1 7.8631 11.007 4.71836 -8.94556
396 1 11.0113 11.007 4.71685 -9.01314
397 1 14.1616 11.007 4.70686 -8.94413
398 1 17.3005 11.007 4.71517 -8.94856
399 1 20.4423 11.007 4.71681 -8.94982
400 1 22.014 12.5794 3.14456 -8.94957
401 1 1.57195 14.1517 4.71693 -8.94976
402 1 3.14426 12.5794 3.14422 -8.94907
403 1 4.71538 14.1516 4.71601 -8.95164
404 1 6.28911 12.5787 3.14401 -8.9489
405 1 7.85538 14.1585 4.70688 -8.95111
406 1 9.43437 12.5796 3.14255 -8.95179
407 1 11.007 14.1566 4.70945 -8.95027
408 1 12.5817 12.5809 3.13684 -8.95877
409 1 14.1645 14.1642 4.70429 -8.92892
410 1 15.7272 12.5805 3.14161 -8.94788
411 1 17.3005 14.1537 4.71531 -8.9502
412 1 18.8701 12.5796 3.14413 -8.9493
413 1 20.4422 14.1521 4.71692 -8.9501
414 1 6.84563e-05 15.7243 3.14464 -8.94976
415 1 1.5715 17.2972 4.71671 -8.94966
416 1 3.14421 15.7243 3.14427 -8.95028
417 1 4.71405 17.2997 4.71407 -8.94483
418 1 6.28725 15.7265 3.14095 -8.94938
419 1 7.86129 17.2994 4.71525 -8.94938
420 1 9.43403 15.7261 3.14229 -8.94785
421 1 11.0073 17.2993 4.71534 -8.94802
422 1 12.5799 15.7263 3.14227 -8.9488
423 1 14.1538 17.3004 4.71523 -8.95065
424 1 15.7277 15.7278 3.14122 -8.94439
425 1 17.2975 17.2975 4.71686 -8.94974
426 1 18.8701 15.7249 3.14418 -8.94953
427 1 20.4415 17.2968 4.71716 -8.94982
428 1 22.0137 18.8692 3.14469 -8.94958
429 1 1.57222 20.4416 4.71716 -8.94962
430 1 3.14407 18.8698 3.14407 -8.9484
431 1 4.71672 20.4422 4.71671 -8.94991
432 1 6.28937 18.8698 3.14413 -8.94971
433 1 7.86201 20.4422 4.71675 -8.94955
434 1 9.4345 18.8699 3.14411 -8.94943
435 1 11.0071 20.4422 4.71673 -8.94958
436 1 12.5795 18.8699 3.14421 -8.94916
437 1 14.1521 20.4422 4.71697 -8.95038
438 1 15.7249 18.8701 3.14415 -8.94963
439 1 17.2969 20.4417 4.71717 -8.94962
440 1 18.8693 18.8693 3.1447 -8.94967
441 1 20.4415 20.4415 4.71725 -8.94962
442 1 1.57185 11.007 7.86177 -8.94808
443 1 4.71826 11.007 7.86224 -8.93961
444 1 7.88256 11.007 7.87115 -8.96623
445 1 11.0744 11.007 7.59019 -8.31736
446 1 14.169 11.007 7.84761 -9.01547
447 1 17.3007 11.007 7.86242 -8.95367
448 1 20.4423 11.007 7.86221 -8.95005
449 1 1.43095e-05 12.5794 6.28945 -8.95001
450 1 1.57047 14.152 7.86189 -8.95159
451 1 3.14335 12.5787 6.28911 -8.94979
452 1 4.70786 14.1549 7.85989 -8.95787
453 1 6.2857 12.5769 6.28907 -8.95437
454 1 7.82189 14.188 7.83032 -8.85684
455 1 9.41471 12.6064 6.27985 -8.93674
456 1 11.0171 14.1581 7.84154 -8.96565
457 1 12.6238 12.6173 6.25143 -8.89584
458 1 14.1584 14.1565 7.8604 -8.97827
459 1 15.7359 12.5827 6.2849 -8.95631
460 1 17.2984 14.1522 7.86296 -8.95122
461 1 18.8716 12.5797 6.28926 -8.95194
462 1 20.4417 14.152 7.86216 -8.9499
463 1 22.0134 15.7245 6.28948 -8.95012
464 1 1.5715 17.2972 7.86192 -8.94933
465 1 3.14156 15.7257 6.28814 -8.95074
466 1 4.71457 17.2993 7.86111 -8.94784
467 1 6.27817 15.7353 6.27887 -8.93032
468 1 7.85957 17.3043 7.86097 -8.95904
469 1 9.43359 15.7327 6.28543 -8.95211
470 1 11.0058 17.2995 7.86165 -8.94933
471 1 12.5839 15.7343 6.28492 -8.95588
472 1 14.1531 17.2992 7.86202 -8.9485
473 1 15.727 15.7267 6.28873 -8.94972
474 1 17.2973 17.2972 7.86217 -8.94927
475 1 18.8698 15.7246 6.28974 -8.95006
476 1 20.4415 17.2969 7.86207 -8.94955
477 1 -0.000181085 18.8692 6.28962 -8.94953
478 1 1.57219 20.4416 7.86207 -8.9496
479 1 3.14408 18.8698 6.28932 -8.94936
480 1 4.71664 20.4422 7.8619 -8.94938
481 1 6.28841 18.8719 6.28845 -8.95135
482 1 7.86199 20.4429 7.86201 -8.95132
483 1 9.43461 18.8716 6.28866 -8.95022
484 1 11.007 20.4423 7.862 -8.94951
485 1 12.5796 18.8712 6.28941 -8.95203
486 1 14.1522 20.4421 7.86203 -8.94971
487 1 15.7248 18.87 6.28953 -8.94951
488 1 17.2969 20.4417 7.86209 -8.94951
489 1 18.8692 18.8693 6.28968 -8.94957
490 1 20.4415 20.4416 7.8621 -8.94962
491 1 22.0135 12.5793 9.43453 -8.94958
492 1 3.14214 12.5789 9.43453 -8.95146
493 1 6.27998 12.5858 9.43453 -8.97403
494 1 9.34875 12.7963 9.43453 -8.18608
495 1 12.5912 12.6181 9.43453 -9.1309
496 1 15.7208 12.5774 9.43453 -8.98829
497 1 18.8697 12.5798 9.43453 -8.94674
498 1 -0.000606923 15.7246 9.43453 -8.94987
499 1 3.14147 15.7259 9.43453 -8.94906
500 1 6.28026 15.7332 9.43453 -8.94169
517 1 17.3007 11.007 11.0066 -8.95367
518 1 20.4423 11.007 11.0068 -8.95005
524 1 17.2984 14.1522 11.0061 -8.95122
523 1 14.1584 14.1565 11.0087 -8.97827
527 1 4.71457 17.2993 11.0079 -8.94784
534 1 4.71664 20.4422 11.0072 -8.94938
538 1 17.2969 20.4417 11.007 -8.94951
365 1 22.0139 15.7242 -5.81803e-05 -8.94959
373 1 12.5794 15.7247 -0.000661367 -8.94955
512 1 1.57185 11.007 11.0073 -8.94808
513 1 4.71826 11.007 11.0068 -8.93961
514 1 7.88256 11.007 10.9979 -8.96623
515 1 11.0744 11.007 11.2789 -8.31736
516 1 14.169 11.007 11.0215 -9.01547
686 1 20.4415 20.4415 20.4415 -8.9495
685 1 18.8693 18.8692 18.8692 -8.94931
519 1 1.57047 14.152 11.0072 -8.95159
520 1 4.70786 14.1549 11.0092 -8.95787
521 1 7.82189 14.188 11.0387 -8.85684
684 1 17.2967 20.4415 20.4415 -8.94969
683 1 15.7243 18.8692 18.8692 -8.9497
682 1 14.1518 20.4415 20.4415 -8.94961
681 1 12.5794 18.8693 18.8692 -8.94956
680 1 11.007 20.4416 20.4415 -8.94963
389 1 15.7243 18.8692 22.0137 -8.9497
528 1 7.85957 17.3043 11.0081 -8.95904
529 1 11.0058 17.2995 11.0074 -8.94933
530 1 14.1531 17.2992 11.007 -8.9485
531 1 17.2973 17.2972 11.0069 -8.94927
532 1 20.4415 17.2969 11.007 -8.94955
533 1 1.57219 20.4416 11.007 -8.9496
383 1 6.28963 18.8692 22.0137 -8.94956
535 1 7.86199 20.4429 11.007 -8.95132
536 1 11.007 20.4423 11.0071 -8.94951
537 1 14.1522 20.4421 11.007 -8.94971
381 1 3.14465 18.8693 22.0137 -8.94949
679 1 9.43451 18.8693 18.8693 -8.94959
540 1 1.57187 11.007 14.1524 -8.94955
541 1 4.71563 11.007 14.1534 -8.94676
542 1 7.8631 11.007 14.1507 -8.94556
543 1 11.0113 11.007 14.1522 -9.01314
544 1 14.1616 11.007 14.1622 -8.94413
545 1 17.3005 11.007 14.1539 -8.94856
546 1 20.4423 11.007 14.1522 -8.94982
547 1 1.43095e-05 12.5794 12.5796 -8.95001
548 1 1.57195 14.1517 14.1521 -8.94976
549 1 3.14335 12.5787 12.5799 -8.94979
550 1 4.71538 14.1516 14.153 -8.95164
551 1 6.2857 12.5769 12.58 -8.95437
552 1 7.85538 14.1585 14.1622 -8.95111
553 1 9.41471 12.6064 12.5892 -8.93674
554 1 11.007 14.1566 14.1596 -8.95027
555 1 12.6238 12.6173 12.6176 -8.89584
556 1 14.1645 14.1642 14.1648 -8.92892
557 1 15.7359 12.5827 12.5842 -8.95631
558 1 17.3005 14.1537 14.1537 -8.9502
559 1 18.8716 12.5797 12.5798 -8.95194
560 1 20.4422 14.1521 14.1521 -8.9501
561 1 22.0134 15.7245 12.5796 -8.95012
562 1 1.5715 17.2972 14.1524 -8.94966
563 1 3.14156 15.7257 12.5809 -8.95074
564 1 4.71405 17.2997 14.155 -8.94483
565 1 6.27817 15.7353 12.5902 -8.93032
566 1 7.86129 17.2994 14.1538 -8.94938
567 1 9.43359 15.7327 12.5836 -8.95211
568 1 11.0073 17.2993 14.1537 -8.94802
569 1 12.5839 15.7343 12.5841 -8.95588
570 1 14.1538 17.3004 14.1538 -8.95065
571 1 15.727 15.7267 12.5803 -8.94972
572 1 17.2975 17.2975 14.1522 -8.94974
573 1 18.8698 15.7246 12.5793 -8.95006
574 1 20.4415 17.2968 14.1519 -8.94982
575 1 -0.000181085 18.8692 12.5794 -8.94953
576 1 1.57222 20.4416 14.1519 -8.94962
577 1 3.14408 18.8698 12.5797 -8.94936
578 1 4.71672 20.4422 14.1523 -8.94991
579 1 6.28841 18.8719 12.5806 -8.95135
580 1 7.86201 20.4422 14.1523 -8.94955
581 1 9.43461 18.8716 12.5804 -8.95022
582 1 11.0071 20.4422 14.1523 -8.94958
583 1 12.5796 18.8712 12.5796 -8.95203
584 1 14.1521 20.4422 14.1521 -8.95038
585 1 15.7248 18.87 12.5795 -8.94951
586 1 17.2969 20.4417 14.1519 -8.94962
587 1 18.8692 18.8693 12.5794 -8.94957
588 1 20.4415 20.4415 14.1518 -8.94962
589 1 1.57227 11.007 17.2969 -8.94961
590 1 4.71679 11.007 17.2973 -8.94966
591 1 7.86173 11.007 17.2971 -8.94845
592 1 11.0067 11.007 17.2981 -8.94764
593 1 14.1533 11.007 17.2999 -8.94974
594 1 17.2975 11.007 17.2976 -8.94945
595 1 20.4417 11.007 17.2969 -8.94958
596 1 22.014 12.5794 15.7245 -8.94957
597 1 1.5723 14.1518 17.2968 -8.94948
598 1 3.14426 12.5794 15.7248 -8.94907
599 1 4.71697 14.1516 17.2971 -8.94961
600 1 6.28911 12.5787 15.725 -8.9489
601 1 7.86163 14.1521 17.2987 -8.95229
602 1 9.43437 12.5796 15.7265 -8.95179
603 1 11.0066 14.1526 17.2989 -8.95021
604 1 12.5817 12.5809 15.7322 -8.95877
605 1 14.153 14.1531 17.2998 -8.95171
606 1 15.7272 12.5805 15.7274 -8.94788
607 1 17.2975 14.1522 17.2975 -8.94933
608 1 18.8701 12.5796 15.7249 -8.9493
609 1 20.4417 14.1519 17.2969 -8.94953
610 1 6.84563e-05 15.7243 15.7244 -8.94976
611 1 1.57229 17.2967 17.2968 -8.9498
612 1 3.14421 15.7243 15.7248 -8.95028
613 1 4.71653 17.2973 17.2977 -8.94932
614 1 6.28725 15.7265 15.7281 -8.94938
615 1 7.86193 17.2972 17.2975 -8.94922
616 1 9.43403 15.7261 15.7268 -8.94785
617 1 11.0069 17.2973 17.2975 -8.94943
618 1 12.5799 15.7263 15.7268 -8.9488
619 1 14.152 17.2973 17.2974 -8.94968
620 1 15.7277 15.7278 15.7278 -8.94439
621 1 17.2975 17.2975 17.2975 -8.94829
622 1 18.8701 15.7249 15.7249 -8.94953
623 1 20.4417 17.2968 17.2968 -8.94955
624 1 22.0137 18.8692 15.7244 -8.94958
625 1 1.57225 20.4416 17.2968 -8.94933
626 1 3.14407 18.8698 15.725 -8.9484
627 1 4.71717 20.4416 17.2968 -8.94969
628 1 6.28937 18.8698 15.7249 -8.94971
629 1 7.86207 20.4417 17.2969 -8.94956
630 1 9.4345 18.8699 15.7249 -8.94943
631 1 11.007 20.4417 17.2969 -8.94958
632 1 12.5795 18.8699 15.7248 -8.94916
633 1 14.1519 20.4417 17.2968 -8.94953
634 1 15.7249 18.8701 15.7249 -8.94963
635 1 17.2968 20.4417 17.2968 -8.94957
636 1 18.8693 18.8693 15.7244 -8.94967
637 1 20.4415 20.4415 17.2967 -8.9496
638 1 1.57236 11.007 20.4415 -8.94963
639 1 4.71706 11.007 20.4415 -8.94968
640 1 7.86185 11.007 20.4415 -8.94937
641 1 11.0067 11.007 20.4415 -8.94902
642 1 14.1522 11.007 20.4415 -8.95026
643 1 17.297 11.007 20.4415 -8.94956
644 1 20.4416 11.007 20.4415 -8.94963
645 1 9.85863e-06 12.5794 18.8691 -8.94962
646 1 1.57236 14.1518 20.4415 -8.9496
647 1 3.14466 12.5794 18.8692 -8.94959
648 1 4.71712 14.1518 20.4415 -8.94954
649 1 6.28942 12.5793 18.8694 -8.94941
650 1 7.86194 14.1519 20.4415 -8.95035
651 1 9.43433 12.5793 18.8697 -8.94962
652 1 11.0068 14.1521 20.4415 -8.95008
653 1 12.5794 12.5795 18.8705 -8.95134
654 1 14.152 14.1521 20.4415 -8.95061
655 1 15.7248 12.5796 18.8699 -8.94948
656 1 17.297 14.1519 20.4415 -8.9495
657 1 18.8693 12.5794 18.8693 -8.94958
658 1 20.4416 14.1518 20.4415 -8.94963
659 1 22.0139 15.7242 18.8691 -8.94959
660 1 1.57239 17.2966 20.4415 -8.94969
661 1 3.14474 15.7242 18.8692 -8.94969
662 1 4.71706 17.2968 20.4415 -8.94987
663 1 6.28936 15.7245 18.8698 -8.95044
664 1 7.86201 17.2969 20.4415 -8.94953
665 1 9.43433 15.7247 18.8697 -8.94956
666 1 11.0069 17.2969 20.4415 -8.94958
667 1 12.5794 15.7247 18.8697 -8.94955
668 1 14.1518 17.2969 20.4415 -8.94958
669 1 15.7248 15.7248 18.8699 -8.95001
670 1 17.2969 17.2969 20.4415 -8.94959
671 1 18.8693 15.7243 18.8692 -8.94961
672 1 20.4415 17.2967 20.4415 -8.94964
673 1 1.18606e-05 18.8691 18.8691 -8.94963
674 1 1.57236 20.4415 20.4415 -8.94953
675 1 3.14465 18.8693 18.8693 -8.94949
676 1 4.71724 20.4415 20.4415 -8.94963
677 1 6.28963 18.8692 18.8692 -8.94956
678 1 7.86209 20.4416 20.4415 -8.94962
351 1 9.85863e-06 12.5794 22.0138 -8.94962
355 1 6.28942 12.5793 22.0136 -8.94941
357 1 9.43433 12.5793 22.0133 -8.94962
359 1 12.5794 12.5795 22.0124 -8.95134
361 1 15.7248 12.5796 22.0131 -8.94948
379 1 1.18606e-05 18.8691 22.0138 -8.94963
367 1 3.14474 15.7242 22.0138 -8.94969
377 1 18.8693 15.7243 22.0137 -8.94961
375 1 15.7248 15.7248 22.0131 -8.95001
539 1 20.4415 20.4416 11.007 -8.94962
387 1 12.5794 18.8693 22.0137 -8.94956
522 1 11.0171 14.1581 11.0275 -8.96565
