ITEM: TIMESTEP
75
ITEM: NUMBER OF ATOMS
688
ITEM: BOX BOUNDS pp pp pp
0.0000000000000000e+00 2.2013900999999997e+01
0.0000000000000000e+00 2.2013900999999997e+01
0.0000000000000000e+00 2.2013900999999997e+01
ITEM: ATOMS id type x y z c_pot
1 1 22.0137 7.8231e-16 -1.67426e-06 -8.94916
2 1 1.57193 1.57206 1.57204 -8.94921
189 1 20.4414 4.71632 11.007 -8.94951
4 1 4.71696 1.57201 1.57205 -8.94958
5 1 6.28952 1.14318e-15 3.88953e-05 -8.94953
6 1 7.86202 1.57198 1.57207 -8.9495
175 1 18.871 9.43404 9.43428 -8.9499
8 1 11.0071 1.57197 1.57209 -8.94952
9 1 12.5795 8.24233e-16 6.50327e-05 -8.94953
10 1 14.152 1.572 1.57219 -8.94947
174 1 15.7314 9.43234 9.43148 -8.94971
12 1 17.2971 1.57196 1.57214 -8.94951
188 1 17.2983 4.7156 11.0067 -8.94891
14 1 20.4415 1.57218 1.5722 -8.94935
181 1 17.2973 1.57185 11.0068 -8.94949
16 1 1.57184 4.71679 1.57167 -8.94981
173 1 12.6001 9.4046 9.39064 -8.81042
18 1 4.7162 4.71612 1.57103 -8.94976
172 1 9.34421 9.19107 9.44699 -7.97067
20 1 7.86176 4.71608 1.57145 -8.94917
171 1 6.24196 9.38647 9.3916 -8.86762
22 1 11.0071 4.71602 1.5716 -8.94927
177 1 4.71576 1.57062 11.0071 -8.94942
24 1 14.1524 4.71603 1.57159 -8.9499
170 1 3.13335 9.43304 9.4312 -8.96028
26 1 17.2979 4.71601 1.57136 -8.94862
169 1 22.0115 9.43446 9.43431 -8.95153
28 1 20.4417 4.71686 1.57198 -8.94956
168 1 18.8702 6.28842 9.43437 -8.94949
30 1 1.57188 7.86191 1.57167 -8.94933
167 1 15.728 6.28614 9.43339 -8.94696
32 1 4.71663 7.86209 1.57106 -8.95026
166 1 12.5828 6.28168 9.42972 -8.95188
34 1 7.86177 7.86163 1.57059 -8.95208
35 1 9.43424 6.28862 0.000198414 -8.94991
36 1 11.0066 7.86119 1.5706 -8.95055
37 1 12.5797 6.28874 0.000168268 -8.95015
38 1 14.1535 7.86055 1.56929 -8.95123
165 1 9.42836 6.29611 9.43848 -9.00557
40 1 17.298 7.86139 1.57124 -8.94922
164 1 6.27495 6.27054 9.43021 -8.95059
42 1 20.4418 7.86187 1.57191 -8.94947
163 1 3.1377 6.28501 9.43356 -8.94819
162 1 -0.00190616 6.28848 9.43443 -8.94982
45 1 6.28922 9.43474 -0.000286448 -8.94962
161 1 18.8695 3.14406 9.43439 -8.94946
160 1 15.7254 3.14316 9.43411 -8.94917
48 1 15.7256 9.43413 -0.000638922 -8.94939
159 1 12.5797 3.14271 9.43422 -8.9513
50 1 22.0136 1.28817e-16 3.14454 -8.94945
51 1 1.57161 1.57174 4.7166 -8.94946
52 1 3.14429 1.0285e-15 3.14422 -8.94961
53 1 4.71647 1.57122 4.71619 -8.95005
54 1 6.28951 8.49355e-16 3.14425 -8.94948
55 1 7.86206 1.57136 4.71633 -8.94948
56 1 9.43462 6.61668e-16 3.14425 -8.94953
57 1 11.0073 1.57149 4.71643 -8.94942
58 1 12.5796 1.16502e-15 3.14437 -8.94943
59 1 14.1522 1.57155 4.71682 -8.95046
60 1 15.7246 8.12606e-16 3.14453 -8.94999
61 1 17.2971 1.57187 4.71692 -8.94959
62 1 18.8692 5.89176e-16 3.14465 -8.94954
63 1 20.4414 1.57212 4.71704 -8.94958
64 1 22.0133 3.14415 3.14412 -8.9491
65 1 1.5699 4.71517 4.71509 -8.94808
66 1 3.14349 3.14343 3.14336 -8.94841
67 1 4.71314 4.71266 4.71247 -8.94489
68 1 6.28921 3.14352 3.14364 -8.94945
69 1 7.8613 4.71377 4.71444 -8.94834
70 1 9.43458 3.14353 3.14379 -8.94947
71 1 11.0074 4.71436 4.71497 -8.9474
72 1 12.5797 3.14361 3.144 -8.94909
73 1 14.1541 4.7132 4.71447 -8.95015
74 1 15.7252 3.1433 3.14386 -8.94963
75 1 17.2983 4.71543 4.71595 -8.94887
76 1 18.8695 3.14415 3.14433 -8.9494
77 1 20.4413 4.71642 4.71656 -8.94972
78 1 22.0136 6.28926 3.14404 -8.94968
79 1 1.57066 7.86155 4.71551 -8.94931
80 1 3.14327 6.28868 3.14262 -8.95051
81 1 4.71392 7.86057 4.71197 -8.95315
82 1 6.28757 6.28725 3.14037 -8.95073
83 1 7.85856 7.85712 4.70755 -8.95688
84 1 9.43422 6.28717 3.14185 -8.94817
85 1 11.0065 7.85874 4.71008 -8.95236
86 1 12.5801 6.2875 3.14185 -8.94992
87 1 14.162 7.8525 4.70539 -8.93906
88 1 15.7278 6.28607 3.14094 -8.9464
89 1 17.3005 7.86013 4.71479 -8.95018
90 1 18.8703 6.28875 3.1438 -8.94959
91 1 20.442 7.86158 4.71634 -8.94979
92 1 -0.000318441 9.43436 3.1439 -8.94945
93 1 3.14343 9.43429 3.14271 -8.94876
94 1 6.28937 9.43525 3.14234 -8.95153
95 1 9.43449 9.43405 3.14382 -8.94671
96 1 12.5821 9.43315 3.13681 -8.95722
97 1 15.7277 9.43328 3.14112 -8.94809
98 1 18.8704 9.43418 3.14369 -8.94934
99 1 22.0135 5.11351e-17 6.28948 -8.94953
100 1 1.57156 1.57176 7.86182 -8.94942
101 1 3.14397 5.01899e-16 6.28904 -8.94981
102 1 4.71605 1.57057 7.86139 -8.95031
103 1 6.28939 1.13368e-15 6.289 -8.95055
104 1 7.86216 1.57062 7.86174 -8.95129
105 1 9.4348 1.66491e-15 6.289 -8.95016
106 1 11.0069 1.57168 7.86192 -8.94943
107 1 12.5795 1.47879e-15 6.28942 -8.95008
108 1 14.1523 1.57138 7.86177 -8.95031
109 1 15.7247 3.92015e-16 6.28938 -8.94988
110 1 17.2972 1.57189 7.86189 -8.94945
111 1 18.8693 -1.43448e-16 6.28954 -8.94952
112 1 20.4414 1.57209 7.86198 -8.94952
113 1 -0.000736461 3.14404 6.28925 -8.94951
114 1 1.56989 4.71526 7.86126 -8.94927
115 1 3.14273 3.14223 6.28803 -8.94929
116 1 4.7117 4.70973 7.85848 -8.94869
117 1 6.28834 3.14084 6.28782 -8.95157
118 1 7.86017 4.7086 7.86055 -8.9592
119 1 9.43477 3.14186 6.28819 -8.94996
120 1 11.0052 4.71504 7.86196 -8.95271
121 1 12.5795 3.14272 6.28915 -8.95175
122 1 14.154 4.71279 7.86022 -8.94976
123 1 15.7253 3.143 6.28891 -8.94955
124 1 17.2981 4.71565 7.86159 -8.9492
125 1 18.8694 3.14414 6.2894 -8.94952
126 1 20.4413 4.71636 7.86185 -8.94951
127 1 22.0119 6.28841 6.28848 -8.9505
128 1 1.56637 7.8601 7.86001 -8.95346
129 1 3.13679 6.28357 6.28343 -8.94505
130 1 4.69436 7.84545 7.84583 -8.93667
131 1 6.27694 6.2759 6.27585 -8.93033
132 1 7.82214 7.82301 7.82478 -8.84971
133 1 9.4336 6.28129 6.28431 -8.94496
134 1 11.0159 7.85101 7.8398 -8.90469
135 1 12.5842 6.28085 6.28258 -8.95169
136 1 14.1654 7.85025 7.85111 -8.93471
137 1 15.7293 6.28491 6.28588 -8.94624
138 1 17.3009 7.86011 7.86089 -8.95121
139 1 18.8704 6.28848 6.2889 -8.9501
140 1 20.4413 7.86141 7.86167 -8.95084
141 1 22.0126 9.43423 6.2884 -8.9494
142 1 3.14028 9.43404 6.28556 -8.94744
143 1 6.28483 9.43534 6.28014 -8.96158
144 1 9.4256 9.41951 6.29221 -8.92301
145 1 12.6082 9.41258 6.25606 -8.90884
146 1 15.7338 9.43174 6.28407 -8.9536
147 1 18.8715 9.43401 6.28854 -8.95072
148 1 -0.00040006 1.43691e-15 9.43447 -8.94953
149 1 3.14379 1.62752e-15 9.43434 -8.94944
150 1 6.28907 1.30421e-15 9.43437 -8.95095
151 1 9.43479 1.16131e-15 9.43426 -8.94817
152 1 12.5797 1.24386e-15 9.43431 -8.95001
153 1 15.7249 5.85408e-16 9.43426 -8.94954
154 1 18.8693 1.72889e-16 9.43444 -8.94954
155 1 22.0132 3.14402 9.43445 -8.94943
156 1 3.14274 3.14252 9.43424 -8.94907
157 1 6.28747 3.1394 9.43433 -8.95218
158 1 9.43441 3.14409 9.43458 -8.94514
183 1 1.56995 4.71545 11.0073 -8.94914
184 1 4.71174 4.7111 11.008 -8.94621
11 1 15.7244 1.81576e-15 8.19266e-05 -8.94956
25 1 15.7247 3.14414 0.000119809 -8.9496
29 1 22.0138 6.28954 -0.000186059 -8.94949
41 1 18.8696 6.28933 -0.000216696 -8.94947
176 1 1.5715 1.57178 11.007 -8.94945
343 1 18.87 9.4344 18.8698 -8.94943
178 1 7.86213 1.57056 11.007 -8.95108
179 1 11.0069 1.57156 11.0067 -8.94899
180 1 14.1527 1.57128 11.0065 -8.94939
342 1 15.7261 9.4341 18.8713 -8.94886
182 1 20.4414 1.57207 11.007 -8.94954
47 1 12.5798 9.43437 22.0131 -8.9514
46 1 9.43419 9.4346 22.0141 -8.94906
185 1 7.8593 4.70875 11.0093 -8.95938
186 1 11.0065 4.71533 11.0073 -8.95103
187 1 14.1543 4.71363 11.0058 -8.94698
341 1 12.5801 9.43467 18.8732 -8.95221
340 1 9.43387 9.43475 18.8718 -8.9503
190 1 1.56743 7.86075 11.0075 -8.95239
191 1 4.69872 7.85374 11.0092 -8.95669
192 1 7.80145 7.82362 11.035 -8.81453
193 1 11.0458 7.85499 11.0167 -8.86806
194 1 14.1639 7.85701 11.0055 -8.95514
195 1 17.3006 7.86049 11.0067 -8.95041
196 1 20.4415 7.86145 11.0071 -8.95045
197 1 -0.000391346 1.55913e-15 12.5795 -8.94954
198 1 1.57156 1.57183 14.1522 -8.94941
199 1 3.14378 1.27747e-15 12.5797 -8.94938
200 1 4.7159 1.57067 14.1528 -8.95005
201 1 6.28904 8.42359e-16 12.5796 -8.9511
202 1 7.86199 1.57047 14.1525 -8.95077
203 1 9.43475 1.21024e-15 12.5795 -8.94907
204 1 11.0072 1.5703 14.1525 -8.95104
205 1 12.5798 1.37982e-15 12.5791 -8.95092
206 1 14.1528 1.57065 14.1522 -8.95079
207 1 15.725 1.58286e-15 12.5792 -8.94951
208 1 17.2973 1.57183 14.1519 -8.94959
209 1 18.8694 1.38636e-15 12.5794 -8.94952
210 1 20.4414 1.5721 14.1519 -8.94951
211 1 22.0132 3.14405 12.5796 -8.94941
212 1 1.57007 4.71567 14.1531 -8.94922
213 1 3.14271 3.14267 12.5802 -8.94901
214 1 4.71139 4.71071 14.1568 -8.94404
215 1 6.28735 3.13933 12.5808 -8.95233
216 1 7.86076 4.70893 14.1559 -8.9565
217 1 9.43488 3.14215 12.5803 -8.94733
218 1 11.0082 4.70791 14.1564 -8.95546
219 1 12.5805 3.14039 12.5793 -8.95357
220 1 14.1566 4.70943 14.1556 -8.95005
221 1 15.7255 3.143 12.5792 -8.94944
222 1 17.2988 4.7153 14.1524 -8.94979
223 1 18.8696 3.14407 12.5794 -8.94939
224 1 20.4415 4.71646 14.1522 -8.94969
225 1 -0.00155791 6.28867 12.58 -8.95008
226 1 1.57012 7.86189 14.1527 -8.95203
227 1 3.13825 6.28574 12.5821 -8.94889
228 1 4.7072 7.85621 14.1589 -8.95123
229 1 6.27343 6.27052 12.5925 -8.93112
230 1 7.83649 7.8313 14.1876 -8.89607
231 1 9.43578 6.28687 12.5862 -8.98846
232 1 11.0314 7.82846 14.1912 -8.88019
233 1 12.5891 6.27139 12.5867 -8.95664
234 1 14.1748 7.84173 14.1728 -8.92491
235 1 15.7294 6.28543 12.5802 -8.94956
236 1 17.3032 7.8594 14.1546 -8.95293
237 1 18.8706 6.28851 12.5796 -8.94973
238 1 20.4425 7.86169 14.1524 -8.95081
239 1 22.0133 9.43462 12.5799 -8.94981
240 1 3.14156 9.43509 12.5796 -8.95205
241 1 6.27701 9.41428 12.5949 -8.89339
242 1 9.43813 9.25347 12.6411 -8.21936
243 1 12.6285 9.37433 12.6424 -8.77494
244 1 15.7371 9.43064 12.5849 -8.95717
245 1 18.8721 9.43419 12.58 -8.95154
246 1 22.0136 -5.09759e-16 15.7244 -8.94953
247 1 1.57167 1.57193 17.2973 -8.94922
248 1 3.14389 2.12092e-16 15.7249 -8.94954
249 1 4.71634 1.57138 17.2977 -8.94995
250 1 6.28918 3.26271e-16 15.725 -8.95026
251 1 7.86167 1.57122 17.2979 -8.94932
252 1 9.43451 8.31364e-16 15.7253 -8.95013
253 1 11.0072 1.57115 17.2979 -8.94936
254 1 12.5799 5.85284e-16 15.725 -8.95034
255 1 14.1527 1.57117 17.2978 -8.94982
256 1 15.7251 1.00372e-15 15.7247 -8.95004
257 1 17.2975 1.57168 17.2973 -8.94952
258 1 18.8693 6.12778e-16 15.7243 -8.94963
259 1 20.4415 1.57212 17.2969 -8.94957
260 1 -0.000626592 3.14419 15.7247 -8.94945
261 1 1.57094 4.71629 17.2979 -8.94957
262 1 3.14273 3.14281 15.726 -8.94821
263 1 4.71341 4.71363 17.301 -8.94615
264 1 6.28811 3.1413 15.7264 -8.95108
265 1 7.86057 4.71358 17.3006 -8.94751
266 1 9.43435 3.14076 15.727 -8.94932
267 1 11.0078 4.71326 17.3008 -8.9478
268 1 12.5809 3.14064 15.7265 -8.95066
269 1 14.1556 4.71275 17.3013 -8.94584
270 1 15.7263 3.14205 15.7258 -8.94956
271 1 17.2995 4.71491 17.2989 -8.94764
272 1 18.8697 3.14404 15.7246 -8.94969
273 1 20.442 4.71661 17.2973 -8.94985
274 1 22.0133 6.2892 15.725 -8.95062
275 1 1.5719 7.86234 17.2972 -8.94954
276 1 3.14052 6.28732 15.7275 -8.94989
277 1 4.71604 7.86263 17.2987 -8.95211
278 1 6.27923 6.27901 15.737 -8.93762
279 1 7.85974 7.85884 17.3059 -8.95741
280 1 9.43367 6.27971 15.7351 -8.94136
281 1 11.0081 7.85784 17.3077 -8.95657
282 1 12.5894 6.27696 15.738 -8.93508
283 1 14.1553 7.85967 17.3034 -8.95283
284 1 15.7327 6.28256 15.7314 -8.9428
285 1 17.2988 7.86141 17.2985 -8.94927
286 1 18.8715 6.28835 15.7256 -8.95043
287 1 20.442 7.86196 17.2973 -8.94941
288 1 22.0139 9.43456 15.725 -8.94924
289 1 3.14416 9.43533 15.725 -8.94833
290 1 6.29073 9.43806 15.7257 -8.95616
291 1 9.43419 9.42874 15.7315 -8.96881
292 1 12.5834 9.4335 15.7397 -8.96264
293 1 15.729 9.43359 15.7292 -8.94742
294 1 18.871 9.43428 15.7255 -8.94912
295 1 -0.000241491 5.96502e-16 18.8693 -8.94938
296 1 1.57197 1.57209 20.4418 -8.94919
297 1 3.14426 3.67393e-16 18.8697 -8.94961
298 1 4.71688 1.57203 20.4419 -8.94948
299 1 6.2893 1.09524e-15 18.8698 -8.94938
300 1 7.86192 1.57195 20.442 -8.94949
301 1 9.43448 7.22596e-16 18.8699 -8.94948
302 1 11.007 1.57194 20.442 -8.9495
303 1 12.5797 1.2492e-15 18.8698 -8.9494
304 1 14.1521 1.57197 20.442 -8.94947
305 1 15.7248 1.52913e-15 18.8697 -8.94953
306 1 17.2971 1.57203 20.4419 -8.94931
307 1 18.8694 7.38553e-16 18.8694 -8.94946
308 1 20.4416 1.57218 20.4417 -8.94922
309 1 22.0136 3.14439 18.8696 -8.94948
310 1 1.57201 4.71706 20.4417 -8.94991
311 1 3.14354 3.1437 18.8704 -8.94857
312 1 4.7162 4.71632 20.4426 -8.94995
313 1 6.28889 3.14353 18.8705 -8.94914
314 1 7.86155 4.71604 20.4428 -8.94924
315 1 9.43438 3.14336 18.8706 -8.94941
316 1 11.0071 4.71596 20.4428 -8.94929
317 1 12.58 3.14335 18.8705 -8.94917
318 1 14.1527 4.71603 20.4428 -8.94966
319 1 15.7256 3.14341 18.8705 -8.94858
320 1 17.2976 4.7165 20.442 -8.94966
321 1 18.8699 3.14409 18.8697 -8.949
322 1 20.4417 4.71707 20.4416 -8.94966
323 1 22.0138 6.28963 18.8694 -8.94967
324 1 1.57204 7.86206 20.4416 -8.94941
325 1 3.14394 6.28955 18.87 -8.95049
326 1 4.7167 7.86228 20.4419 -8.94982
327 1 6.28769 6.28789 18.8729 -8.95118
328 1 7.86153 7.86174 20.4434 -8.95171
329 1 9.434 6.28713 18.8734 -8.94904
330 1 11.0068 7.86144 20.4438 -8.95171
331 1 12.581 6.28729 18.8736 -8.95058
332 1 14.1527 7.86153 20.4427 -8.95069
333 1 15.7261 6.28828 18.8714 -8.95039
334 1 17.2976 7.86173 20.4419 -8.94928
335 1 18.8699 6.28932 18.8697 -8.94959
336 1 20.4417 7.86198 20.4416 -8.94952
337 1 -9.70242e-05 9.43449 18.8695 -8.94956
338 1 3.14403 9.4346 18.8697 -8.94907
339 1 6.28914 9.43536 18.87 -8.94957
7 1 9.43452 4.73797e-16 22.014 -8.94955
44 1 3.14419 9.43446 22.0135 -8.94953
17 1 3.14421 3.14424 22.0138 -8.94948
19 1 6.28934 3.14416 22.014 -8.94938
21 1 9.43448 3.14407 22.014 -8.94947
43 1 22.0138 9.43446 22.0137 -8.94955
27 1 18.8695 3.14438 22.0138 -8.94929
39 1 15.7253 6.28871 22.0133 -8.95004
31 1 3.14435 6.28955 22.0136 -8.94994
33 1 6.28899 6.28905 22.0138 -8.95084
3 1 3.14457 8.87048e-16 22.0139 -8.9496
13 1 18.8693 8.62134e-16 22.0139 -8.94926
15 1 22.0138 3.1446 22.0138 -8.94961
23 1 12.5796 3.14409 22.014 -8.94937
49 1 18.8697 9.43439 22.0137 -8.9495
344 1 1.57183 11.007 1.57161 -8.94952
345 1 4.71635 11.007 1.57085 -8.94989
346 1 7.86218 11.007 1.57226 -8.94766
347 1 11.0068 11.007 1.57088 -8.94926
348 1 14.154 11.007 1.56906 -8.94967
349 1 17.2981 11.007 1.57123 -8.94941
350 1 20.4418 11.007 1.57187 -8.94951
688 3 10.1535 11.007 9.53134 2.23085
352 1 1.57188 14.152 1.57167 -8.94933
511 1 18.8695 18.8698 9.43439 -8.94946
354 1 4.71663 14.1518 1.57106 -8.95026
355 1 6.28922 12.5792 -0.000286448 -8.94962
356 1 7.86177 14.1523 1.57059 -8.95208
510 1 15.7254 18.8707 9.43411 -8.94917
358 1 11.0066 14.1527 1.5706 -8.95055
509 1 12.5797 18.8712 9.43422 -8.9513
360 1 14.1535 14.1534 1.56929 -8.95123
361 1 15.7256 12.5798 -0.000638922 -8.94939
362 1 17.298 14.1525 1.57124 -8.94922
538 1 17.2973 20.4421 11.0068 -8.94949
364 1 20.4418 14.152 1.57191 -8.94947
508 1 9.43441 18.8698 9.43458 -8.94514
366 1 1.57184 17.2971 1.57167 -8.94981
507 1 6.28747 18.8745 9.43433 -8.95218
368 1 4.7162 17.2978 1.57103 -8.94976
506 1 3.14274 18.8714 9.43424 -8.94907
370 1 7.86176 17.2978 1.57145 -8.94917
371 1 9.43424 15.7253 0.000198414 -8.94991
372 1 11.0071 17.2979 1.5716 -8.94927
373 1 12.5797 15.7252 0.000168268 -8.95015
374 1 14.1524 17.2979 1.57159 -8.9499
505 1 22.0132 18.8699 9.43445 -8.94943
376 1 17.2979 17.2979 1.57136 -8.94862
504 1 18.8702 15.7255 9.43437 -8.94949
378 1 20.4417 17.297 1.57198 -8.94956
534 1 4.71576 20.4433 11.0071 -8.94942
380 1 1.57193 20.4418 1.57204 -8.94921
503 1 15.728 15.7278 9.43339 -8.94696
382 1 4.71696 20.4419 1.57205 -8.94958
502 1 12.5828 15.7322 9.42972 -8.95188
384 1 7.86202 20.4419 1.57207 -8.9495
501 1 9.42836 15.7178 9.43848 -9.00557
386 1 11.0071 20.4419 1.57209 -8.94952
532 1 20.4414 17.2976 11.007 -8.94951
388 1 14.152 20.4419 1.57219 -8.94947
500 1 6.27495 15.7434 9.43021 -8.95059
390 1 17.2971 20.4419 1.57214 -8.94951
499 1 3.1377 15.7289 9.43356 -8.94819
392 1 20.4415 20.4417 1.5722 -8.94935
393 1 1.57068 11.007 4.71523 -8.94928
394 1 4.71414 11.007 4.71197 -8.94599
395 1 7.86543 11.007 4.71982 -8.94478
396 1 11.0092 11.007 4.71229 -8.98401
397 1 14.1608 11.007 4.70695 -8.94296
398 1 17.3006 11.007 4.71459 -8.94917
399 1 20.4421 11.007 4.71618 -8.94972
400 1 -0.000318441 12.5795 3.1439 -8.94945
401 1 1.57066 14.1524 4.71551 -8.94931
402 1 3.14343 12.5796 3.14271 -8.94876
403 1 4.71392 14.1533 4.71197 -8.95315
404 1 6.28937 12.5787 3.14234 -8.95153
405 1 7.85856 14.1568 4.70755 -8.95688
406 1 9.43449 12.5799 3.14382 -8.94671
407 1 11.0065 14.1552 4.71008 -8.95236
408 1 12.5821 12.5807 3.13681 -8.95722
409 1 14.162 14.1614 4.70539 -8.93906
410 1 15.7277 12.5806 3.14112 -8.94809
411 1 17.3005 14.1538 4.71479 -8.95018
412 1 18.8704 12.5797 3.14369 -8.94934
413 1 20.442 14.1523 4.71634 -8.94979
414 1 22.0136 15.7246 3.14404 -8.94968
415 1 1.5699 17.2987 4.71509 -8.94808
416 1 3.14327 15.7252 3.14262 -8.95051
417 1 4.71314 17.3012 4.71247 -8.94489
418 1 6.28757 15.7266 3.14037 -8.95073
419 1 7.8613 17.3001 4.71444 -8.94834
420 1 9.43422 15.7267 3.14185 -8.94817
421 1 11.0074 17.2995 4.71497 -8.9474
422 1 12.5801 15.7264 3.14185 -8.94992
423 1 14.1541 17.3007 4.71447 -8.95015
424 1 15.7278 15.7278 3.14094 -8.9464
425 1 17.2983 17.2985 4.71595 -8.94887
426 1 18.8703 15.7251 3.1438 -8.94959
427 1 20.4413 17.2975 4.71656 -8.94972
428 1 22.0133 18.8697 3.14412 -8.9491
429 1 1.57161 20.4422 4.7166 -8.94946
430 1 3.14349 18.8705 3.14336 -8.94841
431 1 4.71647 20.4427 4.71619 -8.95005
432 1 6.28921 18.8704 3.14364 -8.94945
433 1 7.86206 20.4425 4.71633 -8.94948
434 1 9.43458 18.8704 3.14379 -8.94947
435 1 11.0073 20.4424 4.71643 -8.94942
436 1 12.5797 18.8703 3.144 -8.94909
437 1 14.1522 20.4424 4.71682 -8.95046
438 1 15.7252 18.8706 3.14386 -8.94963
439 1 17.2971 20.442 4.71692 -8.94959
440 1 18.8695 18.8697 3.14433 -8.9494
441 1 20.4414 20.4418 4.71704 -8.94958
442 1 1.56826 11.007 7.85949 -8.94737
443 1 4.70988 11.007 7.85293 -8.93489
444 1 7.87432 11.007 7.87548 -8.92365
445 1 11.0728 11.007 7.72099 -8.29192
446 1 14.1678 11.007 7.85002 -8.96011
447 1 17.3018 11.007 7.86057 -8.951
448 1 20.4417 11.007 7.86145 -8.95006
449 1 22.0126 12.5797 6.2884 -8.9494
450 1 1.56637 14.1538 7.86001 -8.95346
451 1 3.14028 12.5799 6.28556 -8.94744
452 1 4.69436 14.1684 7.84583 -8.93667
453 1 6.28483 12.5786 6.28014 -8.96158
454 1 7.82214 14.1909 7.82478 -8.84971
455 1 9.4256 12.5944 6.29221 -8.92301
456 1 11.0159 14.1629 7.8398 -8.90469
457 1 12.6082 12.6013 6.25606 -8.90884
458 1 14.1654 14.1636 7.85111 -8.93471
459 1 15.7338 12.5822 6.28407 -8.9536
460 1 17.3009 14.1538 7.86089 -8.95121
461 1 18.8715 12.5799 6.28854 -8.95072
462 1 20.4413 14.1525 7.86167 -8.95084
463 1 22.0119 15.7255 6.28848 -8.9505
464 1 1.56989 17.2986 7.86126 -8.94927
465 1 3.13679 15.7303 6.28343 -8.94505
466 1 4.7117 17.3042 7.85848 -8.94869
467 1 6.27694 15.738 6.27585 -8.93033
468 1 7.86017 17.3053 7.86055 -8.9592
469 1 9.4336 15.7326 6.28431 -8.94496
470 1 11.0052 17.2989 7.86196 -8.95271
471 1 12.5842 15.7331 6.28258 -8.95169
472 1 14.154 17.3011 7.86022 -8.94976
473 1 15.7293 15.729 6.28588 -8.94624
474 1 17.2981 17.2983 7.86159 -8.9492
475 1 18.8704 15.7254 6.2889 -8.9501
476 1 20.4413 17.2975 7.86185 -8.94951
477 1 -0.000736461 18.8699 6.28925 -8.94951
478 1 1.57156 20.4421 7.86182 -8.94942
479 1 3.14273 18.8717 6.28803 -8.94929
480 1 4.71605 20.4433 7.86139 -8.95031
481 1 6.28834 18.8731 6.28782 -8.95157
482 1 7.86216 20.4433 7.86174 -8.95129
483 1 9.43477 18.872 6.28819 -8.94996
484 1 11.0069 20.4422 7.86192 -8.94943
485 1 12.5795 18.8712 6.28915 -8.95175
486 1 14.1523 20.4425 7.86177 -8.95031
487 1 15.7253 18.8709 6.28891 -8.94955
488 1 17.2972 20.442 7.86189 -8.94945
489 1 18.8694 18.8698 6.2894 -8.94952
490 1 20.4414 20.4418 7.86198 -8.94952
491 1 22.0115 12.5794 9.43431 -8.95153
492 1 3.13335 12.5809 9.4312 -8.96028
493 1 6.24196 12.6274 9.3916 -8.86762
494 1 9.34421 12.8228 9.44699 -7.97067
495 1 12.6001 12.6093 9.39064 -8.81042
496 1 15.7314 12.5816 9.43148 -8.94971
497 1 18.871 12.5799 9.43428 -8.9499
498 1 -0.00190616 15.7254 9.43443 -8.94982
513 1 4.71931 11.007 10.9998 -9.00686
514 1 7.60371 11.007 10.9136 -8.00275
531 1 17.2983 17.2983 11.0067 -8.94891
526 1 1.56995 17.2985 11.0073 -8.94914
527 1 4.71174 17.3028 11.008 -8.94621
389 1 15.7247 18.8698 0.000119809 -8.9496
365 1 22.0138 15.7244 -0.000186059 -8.94949
377 1 18.8696 15.7246 -0.000216696 -8.94947
512 1 1.57055 11.007 11.0072 -8.94556
687 3 9.47436 11.007 11.6192 2.15568
686 1 20.4416 20.4417 20.4417 -8.94922
515 1 11.4042 11.007 11.0917 -7.18367
516 1 14.172 11.007 11.0123 -9.02206
517 1 17.3018 11.007 11.007 -8.95293
518 1 20.4421 11.007 11.0071 -8.94915
519 1 1.56743 14.1532 11.0075 -8.95239
520 1 4.69872 14.1602 11.0092 -8.95669
521 1 7.80145 14.1903 11.035 -8.81453
522 1 11.0458 14.1589 11.0167 -8.86806
523 1 14.1639 14.1569 11.0055 -8.95514
524 1 17.3006 14.1534 11.0067 -8.95041
525 1 20.4415 14.1524 11.0071 -8.95045
391 1 18.8695 18.8695 22.0138 -8.94929
385 1 9.43448 18.8698 22.014 -8.94947
528 1 7.8593 17.3051 11.0093 -8.95938
529 1 11.0065 17.2986 11.0073 -8.95103
530 1 14.1543 17.3003 11.0058 -8.94698
685 1 18.8699 18.8698 18.8697 -8.949
684 1 17.2971 20.4419 20.4419 -8.94931
533 1 1.5715 20.4421 11.007 -8.94945
683 1 15.7256 18.8705 18.8705 -8.94858
535 1 7.86213 20.4433 11.007 -8.95108
536 1 11.0069 20.4423 11.0067 -8.94899
537 1 14.1527 20.4426 11.0065 -8.94939
682 1 14.1521 20.4419 20.442 -8.94947
539 1 20.4414 20.4418 11.007 -8.94954
540 1 1.57177 11.007 14.1528 -8.94806
541 1 4.71838 11.007 14.1507 -8.94078
542 1 7.87576 11.007 14.1172 -8.92652
543 1 11.0058 11.007 14.1444 -8.97475
544 1 14.1611 11.007 14.1625 -8.93692
545 1 17.3013 11.007 14.1546 -8.9477
546 1 20.4425 11.007 14.1527 -8.94952
547 1 22.0133 12.5793 12.5799 -8.94981
548 1 1.57012 14.152 14.1527 -8.95203
549 1 3.14156 12.5788 12.5796 -8.95205
550 1 4.7072 14.1577 14.1589 -8.95123
551 1 6.27701 12.5996 12.5949 -8.89339
552 1 7.83649 14.1826 14.1876 -8.89607
553 1 9.43813 12.7604 12.6411 -8.21936
554 1 11.0314 14.1854 14.1912 -8.88019
555 1 12.6285 12.6396 12.6424 -8.77494
556 1 14.1748 14.1722 14.1728 -8.92491
557 1 15.7371 12.5833 12.5849 -8.95717
558 1 17.3032 14.1545 14.1546 -8.95293
559 1 18.8721 12.5797 12.58 -8.95154
560 1 20.4425 14.1522 14.1524 -8.95081
561 1 -0.00155791 15.7252 12.58 -8.95008
562 1 1.57007 17.2982 14.1531 -8.94922
563 1 3.13825 15.7282 12.5821 -8.94889
564 1 4.71139 17.3032 14.1568 -8.94404
565 1 6.27343 15.7434 12.5925 -8.93112
566 1 7.86076 17.305 14.1559 -8.9565
567 1 9.43578 15.727 12.5862 -8.98846
568 1 11.0082 17.306 14.1564 -8.95546
569 1 12.5891 15.7425 12.5867 -8.95664
570 1 14.1566 17.3045 14.1556 -8.95005
571 1 15.7294 15.7285 12.5802 -8.94956
572 1 17.2988 17.2986 14.1524 -8.94979
573 1 18.8706 15.7254 12.5796 -8.94973
574 1 20.4415 17.2974 14.1522 -8.94969
575 1 22.0132 18.8699 12.5796 -8.94941
576 1 1.57156 20.4421 14.1522 -8.94941
577 1 3.14271 18.8712 12.5802 -8.94901
578 1 4.7159 20.4432 14.1528 -8.95005
579 1 6.28735 18.8746 12.5808 -8.95233
580 1 7.86199 20.4434 14.1525 -8.95077
581 1 9.43488 18.8717 12.5803 -8.94733
582 1 11.0072 20.4436 14.1525 -8.95104
583 1 12.5805 18.8735 12.5793 -8.95357
584 1 14.1528 20.4433 14.1522 -8.95079
585 1 15.7255 18.8709 12.5792 -8.94944
586 1 17.2973 20.4421 14.1519 -8.94959
587 1 18.8696 18.8698 12.5794 -8.94939
588 1 20.4414 20.4418 14.1519 -8.94951
589 1 1.57182 11.007 17.2974 -8.94972
590 1 4.71587 11.007 17.298 -8.94742
591 1 7.86261 11.007 17.2932 -8.93574
592 1 11.0062 11.007 17.2989 -8.94236
593 1 14.1557 11.007 17.3029 -8.94635
594 1 17.2989 11.007 17.2986 -8.94928
595 1 20.4421 11.007 17.2974 -8.94958
596 1 22.0139 12.5793 15.725 -8.94924
597 1 1.5719 14.1516 17.2972 -8.94954
598 1 3.14416 12.5786 15.725 -8.94833
599 1 4.71604 14.1513 17.2987 -8.95211
600 1 6.29073 12.5758 15.7257 -8.95616
601 1 7.85974 14.1551 17.3059 -8.95741
602 1 9.43419 12.5852 15.7315 -8.96881
603 1 11.0081 14.1561 17.3077 -8.95657
604 1 12.5834 12.5804 15.7397 -8.96264
605 1 14.1553 14.1542 17.3034 -8.95283
606 1 15.729 12.5803 15.7292 -8.94742
607 1 17.2988 14.1525 17.2985 -8.94927
608 1 18.871 12.5796 15.7255 -8.94912
609 1 20.442 14.1519 17.2973 -8.94941
610 1 22.0133 15.7247 15.725 -8.95062
611 1 1.57094 17.2976 17.2979 -8.94957
612 1 3.14052 15.7266 15.7275 -8.94989
613 1 4.71341 17.3003 17.301 -8.94615
614 1 6.27923 15.7349 15.737 -8.93762
615 1 7.86057 17.3003 17.3006 -8.94751
616 1 9.43367 15.7342 15.7351 -8.94136
617 1 11.0078 17.3006 17.3008 -8.9478
618 1 12.5894 15.7369 15.738 -8.93508
619 1 14.1556 17.3011 17.3013 -8.94584
620 1 15.7327 15.7313 15.7314 -8.9428
621 1 17.2995 17.299 17.2989 -8.94764
622 1 18.8715 15.7256 15.7256 -8.95043
623 1 20.442 17.2973 17.2973 -8.94985
624 1 -0.000626592 18.8697 15.7247 -8.94945
625 1 1.57167 20.442 17.2973 -8.94922
626 1 3.14273 18.8711 15.726 -8.94821
627 1 4.71634 20.4425 17.2977 -8.94995
628 1 6.28811 18.8726 15.7264 -8.95108
629 1 7.86167 20.4427 17.2979 -8.94932
630 1 9.43435 18.8731 15.727 -8.94932
631 1 11.0072 20.4428 17.2979 -8.94936
632 1 12.5809 18.8733 15.7265 -8.95066
633 1 14.1527 20.4427 17.2978 -8.94982
634 1 15.7263 18.8719 15.7258 -8.94956
635 1 17.2975 20.4422 17.2973 -8.94952
636 1 18.8697 18.8699 15.7246 -8.94969
637 1 20.4415 20.4418 17.2969 -8.94957
638 1 1.57198 11.007 20.4416 -8.94957
639 1 4.71641 11.007 20.4418 -8.94966
640 1 7.86149 11.007 20.4417 -8.94704
641 1 11.0068 11.007 20.4427 -8.94815
642 1 14.1532 11.007 20.4427 -8.95006
643 1 17.2977 11.007 20.4419 -8.94946
644 1 20.4417 11.007 20.4416 -8.94955
645 1 -9.70242e-05 12.5794 18.8695 -8.94956
646 1 1.57204 14.1518 20.4416 -8.94941
647 1 3.14403 12.5793 18.8697 -8.94907
648 1 4.7167 14.1516 20.4419 -8.94982
649 1 6.28914 12.5785 18.87 -8.94957
650 1 7.86153 14.1522 20.4434 -8.95171
651 1 9.43387 12.5791 18.8718 -8.9503
652 1 11.0068 14.1525 20.4438 -8.95171
653 1 12.5801 12.5792 18.8732 -8.95221
654 1 14.1527 14.1524 20.4427 -8.95069
655 1 15.7261 12.5798 18.8713 -8.94886
656 1 17.2976 14.1522 20.4419 -8.94928
657 1 18.87 12.5795 18.8698 -8.94943
658 1 20.4417 14.1519 20.4416 -8.94952
659 1 22.0138 15.7243 18.8694 -8.94967
660 1 1.57201 17.2968 20.4417 -8.94991
661 1 3.14394 15.7244 18.87 -8.95049
662 1 4.7162 17.2976 20.4426 -8.94995
663 1 6.28769 15.726 18.8729 -8.95118
664 1 7.86155 17.2979 20.4428 -8.94924
665 1 9.434 15.7268 18.8734 -8.94904
666 1 11.0071 17.2979 20.4428 -8.94929
667 1 12.581 15.7266 18.8736 -8.95058
668 1 14.1527 17.2979 20.4428 -8.94966
669 1 15.7261 15.7256 18.8714 -8.95039
670 1 17.2976 17.2974 20.442 -8.94966
671 1 18.8699 15.7246 18.8697 -8.94959
672 1 20.4417 17.2968 20.4416 -8.94966
673 1 22.0136 18.8695 18.8696 -8.94948
674 1 1.57197 20.4418 20.4418 -8.94919
675 1 3.14354 18.8702 18.8704 -8.94857
676 1 4.71688 20.4419 20.4419 -8.94948
677 1 6.28889 18.8704 18.8705 -8.94914
678 1 7.86192 20.4419 20.442 -8.94949
679 1 9.43438 18.8705 18.8706 -8.94941
680 1 11.007 20.442 20.442 -8.9495
681 1 12.58 18.8705 18.8705 -8.94917
351 1 22.0138 12.5794 22.0137 -8.94955
353 1 3.14419 12.5794 22.0135 -8.94953
357 1 9.43419 12.5793 22.0141 -8.94906
359 1 12.5798 12.5795 22.0131 -8.9514
383 1 6.28934 18.8697 22.014 -8.94938
367 1 3.14435 15.7244 22.0136 -8.94994
369 1 6.28899 15.7249 22.0138 -8.95084
375 1 15.7253 15.7252 22.0133 -8.95004
381 1 3.14421 18.8697 22.0138 -8.94948
363 1 18.8697 12.5795 22.0137 -8.9495
379 1 22.0138 18.8693 22.0138 -8.94961
387 1 12.5796 18.8698 22.014 -8.94937
