ITEM: TIMESTEP
90
ITEM: NUMBER OF ATOMS
688
ITEM: BOX BOUNDS pp pp pp
0.0000000000000000e+00 2.2013900999999997e+01
0.0000000000000000e+00 2.2013900999999997e+01
0.0000000000000000e+00 2.2013900999999997e+01
ITEM: ATOMS id type x y z c_pot
1 1 22.0137 8.3974e-16 -1.07802e-05 -8.94907
2 1 1.57179 1.57197 1.57193 -8.94916
189 1 20.4413 4.71614 11.0071 -8.94951
4 1 4.71684 1.57192 1.57195 -8.94954
5 1 6.28945 9.93353e-16 6.13084e-05 -8.94949
6 1 7.86199 1.57189 1.57201 -8.94947
175 1 18.8712 9.43398 9.43417 -8.94998
8 1 11.0071 1.57188 1.57206 -8.94949
9 1 12.5796 -2.62742e-16 0.00011425 -8.94949
10 1 14.1521 1.57191 1.57217 -8.94945
174 1 15.732 9.43207 9.43113 -8.94967
12 1 17.2972 1.57186 1.57209 -8.94949
188 1 17.2985 4.71538 11.0067 -8.9489
14 1 20.4415 1.5721 1.57212 -8.94928
181 1 17.2974 1.57176 11.0068 -8.94947
16 1 1.57171 4.71666 1.5715 -8.94982
173 1 12.6014 9.40332 9.39041 -8.80917
18 1 4.71604 4.71596 1.57084 -8.9498
172 1 9.34518 9.18817 9.44537 -7.96536
20 1 7.86168 4.7159 1.57136 -8.94917
171 1 6.24157 9.38539 9.39123 -8.86659
22 1 11.0071 4.71585 1.57155 -8.94924
177 1 4.71552 1.57043 11.0071 -8.94945
24 1 14.1526 4.71584 1.5715 -8.94993
170 1 3.13298 9.43279 9.43084 -8.96018
26 1 17.298 4.71582 1.57126 -8.94866
169 1 22.0114 9.4344 9.43419 -8.95154
28 1 20.4418 4.71674 1.57186 -8.94953
168 1 18.8703 6.28824 9.4343 -8.9495
30 1 1.57179 7.86186 1.57149 -8.94931
167 1 15.7283 6.28585 9.43318 -8.94695
32 1 4.71655 7.86206 1.57089 -8.95031
166 1 12.5831 6.28133 9.42978 -8.95209
34 1 7.86172 7.86156 1.57055 -8.95204
35 1 9.4342 6.28851 0.000256061 -8.94995
36 1 11.0066 7.86114 1.57061 -8.95059
37 1 12.5797 6.28861 0.000221566 -8.9502
38 1 14.1537 7.86043 1.56918 -8.95116
165 1 9.42811 6.29612 9.43869 -9.00624
40 1 17.2983 7.86124 1.57107 -8.94921
164 1 6.27428 6.26987 9.4302 -8.9508
42 1 20.4419 7.86178 1.57177 -8.94943
163 1 3.13705 6.28449 9.43334 -8.9481
162 1 -0.00216856 6.28827 9.43436 -8.94985
45 1 6.28921 9.43476 -0.000330579 -8.94962
161 1 18.8696 3.1439 9.43435 -8.94943
160 1 15.7255 3.14299 9.43403 -8.94918
48 1 15.7258 9.43406 -0.00067003 -8.9494
159 1 12.5797 3.14264 9.43422 -8.95137
50 1 22.0134 7.89393e-16 3.14442 -8.9494
51 1 1.5714 1.5716 4.71641 -8.94943
52 1 3.14414 1.03039e-15 3.14406 -8.9496
53 1 4.71632 1.57105 4.716 -8.95007
54 1 6.28945 1.29303e-15 3.14412 -8.94945
55 1 7.86203 1.57123 4.71619 -8.94947
56 1 9.43464 7.62786e-16 3.14416 -8.94951
57 1 11.0073 1.57141 4.71634 -8.94941
58 1 12.5797 5.80642e-16 3.14431 -8.94941
59 1 14.1522 1.57145 4.71675 -8.95049
60 1 15.7246 -2.86479e-16 3.14447 -8.95001
61 1 17.2972 1.57176 4.71682 -8.9496
62 1 18.8693 4.40795e-16 3.14458 -8.94952
63 1 20.4413 1.57203 4.71694 -8.94955
64 1 22.0131 3.14398 3.14393 -8.94905
65 1 1.56956 4.71486 4.71475 -8.94804
66 1 3.14326 3.1432 3.1431 -8.94835
67 1 4.71273 4.71222 4.71203 -8.94475
68 1 6.28908 3.14332 3.14345 -8.94941
69 1 7.86112 4.71347 4.7142 -8.94823
70 1 9.43458 3.14336 3.14367 -8.94946
71 1 11.0074 4.71419 4.7148 -8.94732
72 1 12.5798 3.14346 3.1439 -8.94908
73 1 14.1543 4.71296 4.7142 -8.95
74 1 15.7254 3.1431 3.14372 -8.94961
75 1 17.2986 4.71514 4.71569 -8.94883
76 1 18.8696 3.14398 3.14419 -8.94936
77 1 20.4413 4.71622 4.71637 -8.94973
78 1 22.0135 6.28913 3.14383 -8.94965
79 1 1.57042 7.8614 4.7152 -8.94929
80 1 3.14304 6.2885 3.14229 -8.95056
81 1 4.71365 7.86036 4.7116 -8.95321
82 1 6.28741 6.28706 3.14011 -8.95084
83 1 7.85851 7.85701 4.70748 -8.95729
84 1 9.43419 6.28697 3.14171 -8.94824
85 1 11.0065 7.85874 4.71002 -8.9527
86 1 12.5802 6.28734 3.14165 -8.95007
87 1 14.1618 7.8527 4.70535 -8.93995
88 1 15.728 6.28591 3.14074 -8.94663
89 1 17.3007 7.85996 4.71449 -8.95011
90 1 18.8705 6.28858 3.14361 -8.94956
91 1 20.442 7.86146 4.71613 -8.94976
92 1 -0.000367243 9.43431 3.14368 -8.94942
93 1 3.14328 9.43424 3.14244 -8.94874
94 1 6.28933 9.43525 3.14228 -8.95162
95 1 9.43436 9.43391 3.1439 -8.94616
96 1 12.5823 9.43305 3.1367 -8.95674
97 1 15.728 9.43318 3.14083 -8.94817
98 1 18.8706 9.43411 3.14347 -8.94932
99 1 22.0134 1.5659e-15 6.28938 -8.9495
100 1 1.57134 1.57161 7.86172 -8.94939
101 1 3.14377 8.6716e-16 6.28888 -8.94983
102 1 4.71585 1.57037 7.86127 -8.95036
103 1 6.28933 1.86e-15 6.2889 -8.95061
104 1 7.86212 1.57054 7.86171 -8.95136
105 1 9.43481 1.62912e-15 6.28892 -8.95018
106 1 11.0069 1.57168 7.86191 -8.94947
107 1 12.5795 1.43735e-15 6.28939 -8.9501
108 1 14.1524 1.5713 7.86172 -8.95035
109 1 15.7248 -1.19332e-16 6.28932 -8.94992
110 1 17.2973 1.57179 7.86182 -8.94944
111 1 18.8693 -2.97621e-17 6.28947 -8.9495
112 1 20.4414 1.57199 7.86192 -8.94948
113 1 -0.000921684 3.14383 6.2891 -8.94947
114 1 1.56948 4.71491 7.86105 -8.94922
115 1 3.14239 3.14188 6.28776 -8.94927
116 1 4.71114 4.70916 7.8582 -8.94868
117 1 6.28812 3.14051 6.28761 -8.95163
118 1 7.85985 4.70826 7.86046 -8.95936
119 1 9.4347 3.1417 6.28808 -8.94994
120 1 11.0051 4.71491 7.8619 -8.95301
121 1 12.5795 3.1426 6.28905 -8.95175
122 1 14.1542 4.71255 7.85999 -8.94978
123 1 15.7255 3.14278 6.28876 -8.94958
124 1 17.2982 4.7154 7.86143 -8.94918
125 1 18.8695 3.14396 6.28929 -8.9495
126 1 20.4412 4.71615 7.86175 -8.94951
127 1 22.0117 6.28818 6.28825 -8.95054
128 1 1.56593 7.85986 7.85973 -8.95352
129 1 3.13619 6.28308 6.28292 -8.94501
130 1 4.69357 7.8448 7.84527 -8.93666
131 1 6.27627 6.27524 6.2753 -8.92994
132 1 7.82128 7.82213 7.82411 -8.84826
133 1 9.43341 6.28103 6.28407 -8.9445
134 1 11.0166 7.85 7.83936 -8.90297
135 1 12.5844 6.28068 6.28211 -8.95088
136 1 14.166 7.84986 7.85034 -8.93475
137 1 15.7297 6.28454 6.28541 -8.94615
138 1 17.3012 7.85988 7.86057 -8.95122
139 1 18.8705 6.28826 6.28869 -8.95012
140 1 20.4412 7.86129 7.86153 -8.95089
141 1 22.0125 9.43416 6.28817 -8.94936
142 1 3.13997 9.43392 6.28518 -8.94741
143 1 6.28465 9.43523 6.28001 -8.96145
144 1 9.4261 9.42005 6.29303 -8.92588
145 1 12.6069 9.41403 6.25682 -8.91279
146 1 15.7339 9.43169 6.28365 -8.95326
147 1 18.8716 9.43393 6.2883 -8.95065
148 1 -0.000527673 1.80026e-15 9.43444 -8.9495
149 1 3.14357 1.62139e-15 9.4343 -8.94944
150 1 6.28898 1.46251e-15 9.43437 -8.95103
151 1 9.43478 2.08705e-15 9.43427 -8.94808
152 1 12.5797 1.17494e-15 9.4343 -8.95004
153 1 15.725 1.1215e-15 9.4342 -8.94954
154 1 18.8694 1.69132e-16 9.4344 -8.94951
155 1 22.013 3.14382 9.43442 -8.9494
156 1 3.14237 3.14218 9.43417 -8.94905
157 1 6.28717 3.13907 9.43435 -8.95223
158 1 9.43431 3.14417 9.43469 -8.9451
183 1 1.56958 4.71516 11.0074 -8.94912
184 1 4.71117 4.71057 11.0081 -8.94619
11 1 15.7245 1.0335e-15 0.000127029 -8.94953
25 1 15.7249 3.14397 0.000150899 -8.94959
29 1 22.0138 6.28948 -0.000251797 -8.94946
41 1 18.8698 6.28921 -0.000257336 -8.94943
176 1 1.57128 1.57165 11.0071 -8.94941
343 1 18.8702 9.43435 18.8699 -8.9494
178 1 7.86207 1.57051 11.007 -8.95109
179 1 11.0069 1.57159 11.0067 -8.94893
180 1 14.1528 1.57119 11.0065 -8.94942
342 1 15.7263 9.43401 18.8715 -8.94886
182 1 20.4414 1.57198 11.007 -8.94951
47 1 12.5799 9.43433 22.0132 -8.95139
46 1 9.43416 9.43458 22.0141 -8.94896
185 1 7.85891 4.70857 11.0095 -8.95916
186 1 11.0065 4.71538 11.0074 -8.95077
187 1 14.1546 4.71335 11.0059 -8.94692
341 1 12.5801 9.43461 18.8734 -8.9523
340 1 9.43388 9.43473 18.8716 -8.95017
190 1 1.56708 7.86055 11.0075 -8.95247
191 1 4.69795 7.8531 11.0092 -8.95645
192 1 7.80102 7.82362 11.0356 -8.81559
193 1 11.0465 7.85516 11.0176 -8.86866
194 1 14.1648 7.85657 11.0057 -8.95477
195 1 17.301 7.86029 11.0068 -8.95047
196 1 20.4415 7.86136 11.0072 -8.95051
197 1 -0.000514874 1.16415e-15 12.5795 -8.9495
198 1 1.57135 1.57171 14.1523 -8.94937
199 1 3.14355 8.51724e-16 12.5798 -8.94937
200 1 4.71568 1.57049 14.153 -8.9501
201 1 6.28895 1.19058e-15 12.5797 -8.95116
202 1 7.86195 1.57037 14.1527 -8.95075
203 1 9.43476 1.26348e-15 12.5796 -8.94907
204 1 11.0073 1.57021 14.1526 -8.95102
205 1 12.5799 1.83043e-15 12.5791 -8.95096
206 1 14.1529 1.57047 14.1523 -8.95088
207 1 15.7251 1.23726e-15 12.5792 -8.94951
208 1 17.2974 1.5717 14.1519 -8.94958
209 1 18.8694 7.95363e-16 12.5794 -8.9495
210 1 20.4414 1.57201 14.152 -8.94948
211 1 22.013 3.14388 12.5797 -8.94938
212 1 1.56978 4.71542 14.1533 -8.9492
213 1 3.14237 3.14236 12.5804 -8.94896
214 1 4.71096 4.71022 14.1573 -8.94403
215 1 6.2871 3.13902 12.581 -8.95242
216 1 7.86063 4.70873 14.1562 -8.95626
217 1 9.43485 3.14207 12.5805 -8.94752
218 1 11.0083 4.70773 14.1567 -8.95519
219 1 12.5806 3.14021 12.5795 -8.95368
220 1 14.157 4.7089 14.156 -8.95007
221 1 15.7257 3.14275 12.5793 -8.94943
222 1 17.2991 4.71496 14.1527 -8.94979
223 1 18.8696 3.1439 12.5794 -8.94937
224 1 20.4415 4.71628 14.1523 -8.9497
225 1 -0.00170957 6.28851 12.5801 -8.95012
226 1 1.57 7.86179 14.1528 -8.95207
227 1 3.13775 6.28534 12.5823 -8.94884
228 1 4.70685 7.8557 14.1593 -8.95058
229 1 6.27287 6.26994 12.593 -8.93128
230 1 7.83736 7.83168 14.1867 -8.89928
231 1 9.43576 6.2862 12.5863 -8.98699
232 1 11.0307 7.82889 14.1905 -8.88352
233 1 12.5896 6.27095 12.5873 -8.95666
234 1 14.1754 7.84106 14.1737 -8.92415
235 1 15.7298 6.285 12.5805 -8.94953
236 1 17.3037 7.85907 14.155 -8.95285
237 1 18.8708 6.28832 12.5797 -8.94976
238 1 20.4426 7.8616 14.1526 -8.95084
239 1 22.0134 9.4346 12.5799 -8.94988
240 1 3.14126 9.43495 12.5795 -8.95231
241 1 6.27575 9.41342 12.5954 -8.89148
242 1 9.43827 9.26011 12.6386 -8.22728
243 1 12.63 9.37375 12.6432 -8.7739
244 1 15.738 9.43032 12.5855 -8.95705
245 1 18.8725 9.4341 12.5802 -8.95161
246 1 22.0135 -5.99918e-16 15.7245 -8.94949
247 1 1.5715 1.57183 17.2974 -8.94917
248 1 3.14368 -3.21245e-17 15.7251 -8.94954
249 1 4.71617 1.57127 17.2979 -8.94994
250 1 6.28908 5.29548e-16 15.7252 -8.95024
251 1 7.86158 1.57109 17.2981 -8.9493
252 1 9.43451 4.98518e-16 15.7254 -8.95013
253 1 11.0073 1.57101 17.2982 -8.94935
254 1 12.58 6.42819e-16 15.7251 -8.95034
255 1 14.1529 1.57102 17.298 -8.94981
256 1 15.7252 8.51048e-16 15.7248 -8.9501
257 1 17.2977 1.57154 17.2975 -8.9495
258 1 18.8694 7.31274e-16 15.7244 -8.94962
259 1 20.4415 1.57203 17.297 -8.94954
260 1 -0.000733995 3.14403 15.7249 -8.94943
261 1 1.57079 4.71614 17.2982 -8.94955
262 1 3.14243 3.14253 15.7263 -8.94817
263 1 4.71323 4.71346 17.3013 -8.94629
264 1 6.28794 3.14107 15.7267 -8.95102
265 1 7.86047 4.71333 17.3009 -8.94753
266 1 9.43434 3.14054 15.7273 -8.9493
267 1 11.0079 4.71295 17.3012 -8.94781
268 1 12.581 3.14036 15.7268 -8.9506
269 1 14.1558 4.71241 17.3016 -8.94595
270 1 15.7266 3.14169 15.7261 -8.94955
271 1 17.2998 4.71459 17.2992 -8.94757
272 1 18.8699 3.14383 15.7247 -8.94968
273 1 20.4421 4.71646 17.2975 -8.94985
274 1 22.0133 6.28909 15.7252 -8.95065
275 1 1.57188 7.86232 17.2973 -8.94952
276 1 3.14026 6.28706 15.7278 -8.94976
277 1 4.71603 7.86257 17.2988 -8.95222
278 1 6.27927 6.27893 15.7372 -8.93818
279 1 7.85983 7.85876 17.3058 -8.95736
280 1 9.43368 6.27954 15.7353 -8.94132
281 1 11.0081 7.85767 17.3078 -8.95648
282 1 12.5894 6.27674 15.7383 -8.93563
283 1 14.1556 7.85938 17.3039 -8.95291
284 1 15.7332 6.28204 15.7319 -8.94258
285 1 17.2992 7.86121 17.2989 -8.94923
286 1 18.8718 6.28812 15.7258 -8.95042
287 1 20.4422 7.8619 17.2974 -8.94938
288 1 22.014 9.43455 15.7251 -8.9492
289 1 3.14419 9.43527 15.7251 -8.9482
290 1 6.29094 9.43796 15.7255 -8.95656
291 1 9.4344 9.42895 15.7307 -8.9687
292 1 12.5836 9.43328 15.7401 -8.963
293 1 15.7295 9.43337 15.7298 -8.94734
294 1 18.8713 9.4342 15.7258 -8.94909
295 1 -0.00030992 3.1474e-16 18.8694 -8.94931
296 1 1.57186 1.57202 20.4419 -8.94915
297 1 3.14411 -5.13715e-16 18.8698 -8.94959
298 1 4.71675 1.57195 20.442 -8.94944
299 1 6.28918 8.99459e-16 18.87 -8.94935
300 1 7.86186 1.57186 20.4421 -8.94945
301 1 9.43446 -5.30148e-16 18.87 -8.94945
302 1 11.0071 1.57184 20.4421 -8.94946
303 1 12.5798 1.64295e-15 18.87 -8.94937
304 1 14.1523 1.57187 20.4421 -8.94943
305 1 15.725 1.74839e-15 18.8699 -8.94952
306 1 17.2973 1.57194 20.442 -8.94927
307 1 18.8695 9.77252e-16 18.8695 -8.9494
308 1 20.4416 1.57211 20.4417 -8.94915
309 1 22.0136 3.14429 18.8697 -8.94945
310 1 1.57192 4.71699 20.4418 -8.94993
311 1 3.14337 3.14356 18.8706 -8.94859
312 1 4.71606 4.71621 20.4427 -8.94999
313 1 6.28873 3.14336 18.8707 -8.94912
314 1 7.86145 4.71588 20.4429 -8.94925
315 1 9.43435 3.14315 18.8708 -8.94939
316 1 11.0072 4.71577 20.443 -8.94929
317 1 12.5801 3.14313 18.8708 -8.94913
318 1 14.1528 4.71583 20.443 -8.94968
319 1 15.7258 3.14318 18.8707 -8.94859
320 1 17.2978 4.71632 20.4421 -8.94965
321 1 18.87 3.14392 18.8699 -8.94895
322 1 20.4418 4.71698 20.4417 -8.94964
323 1 22.0138 6.28958 18.8695 -8.94966
324 1 1.57201 7.86205 20.4416 -8.9494
325 1 3.14384 6.28949 18.8702 -8.95055
326 1 4.71665 7.8623 20.4419 -8.94987
327 1 6.2876 6.2878 18.8731 -8.95122
328 1 7.8615 7.8617 20.4434 -8.9517
329 1 9.43396 6.28693 18.8737 -8.94905
330 1 11.0068 7.86136 20.4439 -8.9517
331 1 12.581 6.28708 18.8739 -8.95059
332 1 14.1528 7.86141 20.4429 -8.95075
333 1 15.7264 6.28803 18.8717 -8.95042
334 1 17.2979 7.86162 20.442 -8.94927
335 1 18.8701 6.28919 18.8698 -8.94956
336 1 20.4418 7.86193 20.4417 -8.94949
337 1 -4.32448e-05 9.43449 18.8695 -8.94954
338 1 3.14402 9.43462 18.8698 -8.94907
339 1 6.28921 9.43538 18.8699 -8.9496
7 1 9.43451 -6.6809e-16 22.014 -8.94952
44 1 3.14411 9.43446 22.0134 -8.94953
17 1 3.14406 3.14412 22.0138 -8.94948
19 1 6.28923 3.14402 22.014 -8.94935
21 1 9.43445 3.14392 22.0141 -8.94945
43 1 22.0138 9.43444 22.0136 -8.94953
27 1 18.8697 3.14426 22.0138 -8.94927
39 1 15.7255 6.28854 22.0133 -8.95005
31 1 3.14425 6.2895 22.0135 -8.94998
33 1 6.2889 6.28897 22.0138 -8.95087
3 1 3.14446 1.03582e-15 22.0139 -8.94956
13 1 18.8694 9.99822e-16 22.0139 -8.94919
15 1 22.0137 3.14451 22.0137 -8.94959
23 1 12.5797 3.14393 22.0141 -8.94933
49 1 18.8699 9.43435 22.0136 -8.94947
344 1 1.57175 11.007 1.57143 -8.9495
345 1 4.71629 11.007 1.5707 -8.9499
346 1 7.86222 11.007 1.57238 -8.94748
347 1 11.0068 11.007 1.57074 -8.94977
348 1 14.1542 11.007 1.56893 -8.94969
349 1 17.2983 11.007 1.57105 -8.94939
350 1 20.4419 11.007 1.57173 -8.94948
688 3 10.1471 11.007 9.53962 2.2296
352 1 1.57179 14.152 1.57149 -8.94931
511 1 18.8696 18.87 9.43435 -8.94943
354 1 4.71655 14.1518 1.57089 -8.95031
355 1 6.28921 12.5791 -0.000330579 -8.94962
356 1 7.86172 14.1523 1.57055 -8.95204
510 1 15.7255 18.8709 9.43403 -8.94918
358 1 11.0066 14.1528 1.57061 -8.95059
509 1 12.5797 18.8713 9.43422 -8.95137
360 1 14.1537 14.1535 1.56918 -8.95116
361 1 15.7258 12.5798 -0.00067003 -8.9494
362 1 17.2983 14.1527 1.57107 -8.94921
538 1 17.2974 20.4421 11.0068 -8.94947
364 1 20.4419 14.1521 1.57177 -8.94943
508 1 9.43431 18.8697 9.43469 -8.9451
366 1 1.57171 17.2972 1.5715 -8.94982
507 1 6.28717 18.8748 9.43435 -8.95223
368 1 4.71604 17.2979 1.57084 -8.9498
506 1 3.14237 18.8717 9.43417 -8.94905
370 1 7.86168 17.298 1.57136 -8.94917
371 1 9.4342 15.7254 0.000256061 -8.94995
372 1 11.0071 17.2981 1.57155 -8.94924
373 1 12.5797 15.7253 0.000221566 -8.9502
374 1 14.1526 17.2981 1.5715 -8.94993
505 1 22.013 18.8701 9.43442 -8.9494
376 1 17.298 17.2981 1.57126 -8.94866
504 1 18.8703 15.7257 9.4343 -8.9495
378 1 20.4418 17.2972 1.57186 -8.94953
534 1 4.71552 20.4435 11.0071 -8.94945
380 1 1.57179 20.4419 1.57193 -8.94916
503 1 15.7283 15.7281 9.43318 -8.94695
382 1 4.71684 20.442 1.57195 -8.94954
502 1 12.5831 15.7326 9.42978 -8.95209
384 1 7.86199 20.442 1.57201 -8.94947
501 1 9.42811 15.7178 9.43869 -9.00624
386 1 11.0071 20.442 1.57206 -8.94949
532 1 20.4413 17.2978 11.0071 -8.94951
388 1 14.1521 20.442 1.57217 -8.94945
500 1 6.27428 15.744 9.4302 -8.9508
390 1 17.2972 20.442 1.57209 -8.94949
499 1 3.13705 15.7294 9.43334 -8.9481
392 1 20.4415 20.4418 1.57212 -8.94928
393 1 1.57049 11.007 4.71494 -8.94926
394 1 4.71395 11.007 4.71171 -8.94592
395 1 7.86546 11.007 4.72031 -8.9445
396 1 11.009 11.007 4.71074 -8.9824
397 1 14.1609 11.007 4.70672 -8.94307
398 1 17.3009 11.007 4.71426 -8.94914
399 1 20.4421 11.007 4.71596 -8.94971
400 1 -0.000367243 12.5796 3.14368 -8.94942
401 1 1.57042 14.1525 4.7152 -8.94929
402 1 3.14328 12.5797 3.14244 -8.94874
403 1 4.71365 14.1535 4.7116 -8.95321
404 1 6.28933 12.5786 3.14228 -8.95162
405 1 7.85851 14.1569 4.70748 -8.95729
406 1 9.43436 12.58 3.1439 -8.94616
407 1 11.0065 14.1552 4.71002 -8.9527
408 1 12.5823 12.5808 3.1367 -8.95674
409 1 14.1618 14.1612 4.70535 -8.93995
410 1 15.728 12.5807 3.14083 -8.94817
411 1 17.3007 14.1539 4.71449 -8.95011
412 1 18.8706 12.5798 3.14347 -8.94932
413 1 20.442 14.1524 4.71613 -8.94976
414 1 22.0135 15.7248 3.14383 -8.94965
415 1 1.56956 17.299 4.71475 -8.94804
416 1 3.14304 15.7254 3.14229 -8.95056
417 1 4.71273 17.3017 4.71203 -8.94475
418 1 6.28741 15.7268 3.14011 -8.95084
419 1 7.86112 17.3004 4.7142 -8.94823
420 1 9.43419 15.7269 3.14171 -8.94824
421 1 11.0074 17.2997 4.7148 -8.94732
422 1 12.5802 15.7266 3.14165 -8.95007
423 1 14.1543 17.3009 4.7142 -8.95
424 1 15.728 15.728 3.14074 -8.94663
425 1 17.2986 17.2988 4.71569 -8.94883
426 1 18.8705 15.7253 3.14361 -8.94956
427 1 20.4413 17.2977 4.71637 -8.94973
428 1 22.0131 18.8699 3.14393 -8.94905
429 1 1.5714 20.4423 4.71641 -8.94943
430 1 3.14326 18.8707 3.1431 -8.94835
431 1 4.71632 20.4429 4.716 -8.95007
432 1 6.28908 18.8706 3.14345 -8.94941
433 1 7.86203 20.4427 4.71619 -8.94947
434 1 9.43458 18.8705 3.14367 -8.94946
435 1 11.0073 20.4425 4.71634 -8.94941
436 1 12.5798 18.8704 3.1439 -8.94908
437 1 14.1522 20.4424 4.71675 -8.95049
438 1 15.7254 18.8708 3.14372 -8.94961
439 1 17.2972 20.4421 4.71682 -8.9496
440 1 18.8696 18.8699 3.14419 -8.94936
441 1 20.4413 20.4419 4.71694 -8.94955
442 1 1.56805 11.007 7.85921 -8.94731
443 1 4.70966 11.007 7.8527 -8.9351
444 1 7.8739 11.007 7.87688 -8.92358
445 1 11.0707 11.007 7.73008 -8.302
446 1 14.1679 11.007 7.8499 -8.95956
447 1 17.302 11.007 7.86024 -8.95087
448 1 20.4417 11.007 7.86128 -8.95004
449 1 22.0125 12.5797 6.28817 -8.94936
450 1 1.56593 14.154 7.85973 -8.95352
451 1 3.13997 12.58 6.28518 -8.94741
452 1 4.69357 14.1691 7.84527 -8.93666
453 1 6.28465 12.5787 6.28001 -8.96145
454 1 7.82128 14.1918 7.82411 -8.84826
455 1 9.4261 12.5939 6.29303 -8.92588
456 1 11.0166 14.1639 7.83936 -8.90297
457 1 12.6069 12.5999 6.25682 -8.91279
458 1 14.166 14.164 7.85034 -8.93475
459 1 15.7339 12.5822 6.28365 -8.95326
460 1 17.3012 14.154 7.86057 -8.95122
461 1 18.8716 12.58 6.2883 -8.95065
462 1 20.4412 14.1526 7.86153 -8.95089
463 1 22.0117 15.7257 6.28825 -8.95054
464 1 1.56948 17.299 7.86105 -8.94922
465 1 3.13619 15.7308 6.28292 -8.94501
466 1 4.71114 17.3047 7.8582 -8.94868
467 1 6.27627 15.7387 6.2753 -8.92994
468 1 7.85985 17.3056 7.86046 -8.95936
469 1 9.43341 15.7329 6.28407 -8.9445
470 1 11.0051 17.299 7.8619 -8.95301
471 1 12.5844 15.7332 6.28211 -8.95088
472 1 14.1542 17.3014 7.85999 -8.94978
473 1 15.7297 15.7294 6.28541 -8.94615
474 1 17.2982 17.2985 7.86143 -8.94918
475 1 18.8705 15.7256 6.28869 -8.95012
476 1 20.4412 17.2977 7.86175 -8.94951
477 1 -0.000921684 18.8701 6.2891 -8.94947
478 1 1.57134 20.4423 7.86172 -8.94939
479 1 3.14239 18.872 6.28776 -8.94927
480 1 4.71585 20.4435 7.86127 -8.95036
481 1 6.28812 18.8734 6.28761 -8.95163
482 1 7.86212 20.4434 7.86171 -8.95136
483 1 9.4347 18.8722 6.28808 -8.94994
484 1 11.0069 20.4422 7.86191 -8.94947
485 1 12.5795 18.8713 6.28905 -8.95175
486 1 14.1524 20.4426 7.86172 -8.95035
487 1 15.7255 18.8711 6.28876 -8.94958
488 1 17.2973 20.4421 7.86182 -8.94944
489 1 18.8695 18.8699 6.28929 -8.9495
490 1 20.4414 20.4419 7.86192 -8.94948
491 1 22.0114 12.5795 9.43419 -8.95154
492 1 3.13298 12.5811 9.43084 -8.96018
493 1 6.24157 12.6285 9.39123 -8.86659
494 1 9.34518 12.8257 9.44537 -7.96536
495 1 12.6014 12.6106 9.39041 -8.80917
496 1 15.732 12.5818 9.43113 -8.94967
497 1 18.8712 12.5799 9.43417 -8.94998
498 1 -0.00216856 15.7256 9.43436 -8.94985
513 1 4.7188 11.007 10.9994 -9.00771
514 1 7.59944 11.007 10.9156 -8.00057
531 1 17.2985 17.2985 11.0067 -8.9489
526 1 1.56958 17.2987 11.0074 -8.94912
527 1 4.71117 17.3033 11.0081 -8.94619
389 1 15.7249 18.8699 0.000150899 -8.94959
365 1 22.0138 15.7244 -0.000251797 -8.94946
377 1 18.8698 15.7247 -0.000257336 -8.94943
512 1 1.57047 11.007 11.007 -8.94563
687 3 9.47722 11.007 11.6051 2.15723
686 1 20.4416 20.4418 20.4417 -8.94915
515 1 11.4093 11.007 11.09 -7.17913
516 1 14.1741 11.007 11.0123 -9.02183
517 1 17.3024 11.007 11.007 -8.95333
518 1 20.4422 11.007 11.0071 -8.94919
519 1 1.56708 14.1534 11.0075 -8.95247
520 1 4.69795 14.1608 11.0092 -8.95645
521 1 7.80102 14.1903 11.0356 -8.81559
522 1 11.0465 14.1587 11.0176 -8.86866
523 1 14.1648 14.1573 11.0057 -8.95477
524 1 17.301 14.1536 11.0068 -8.95047
525 1 20.4415 14.1525 11.0072 -8.95051
391 1 18.8697 18.8696 22.0138 -8.94927
385 1 9.43445 18.87 22.0141 -8.94945
528 1 7.85891 17.3053 11.0095 -8.95916
529 1 11.0065 17.2985 11.0074 -8.95077
530 1 14.1546 17.3005 11.0059 -8.94692
685 1 18.87 18.87 18.8699 -8.94895
684 1 17.2973 20.442 20.442 -8.94927
533 1 1.57128 20.4422 11.0071 -8.94941
683 1 15.7258 18.8707 18.8707 -8.94859
535 1 7.86207 20.4434 11.007 -8.95109
536 1 11.0069 20.4423 11.0067 -8.94893
537 1 14.1528 20.4427 11.0065 -8.94942
682 1 14.1523 20.442 20.4421 -8.94943
539 1 20.4414 20.4419 11.007 -8.94951
540 1 1.57178 11.007 14.1528 -8.94806
541 1 4.71818 11.007 14.1507 -8.94045
542 1 7.87562 11.007 14.1159 -8.92832
543 1 11.0067 11.007 14.1433 -8.97556
544 1 14.1619 11.007 14.1632 -8.93664
545 1 17.3018 11.007 14.155 -8.94765
546 1 20.4427 11.007 14.1528 -8.94952
547 1 22.0134 12.5793 12.5799 -8.94988
548 1 1.57 14.1521 14.1528 -8.95207
549 1 3.14126 12.579 12.5795 -8.95231
550 1 4.70685 14.1582 14.1593 -8.95058
551 1 6.27575 12.6005 12.5954 -8.89148
552 1 7.83736 14.1822 14.1867 -8.89928
553 1 9.43827 12.7538 12.6386 -8.22728
554 1 11.0307 14.185 14.1905 -8.88352
555 1 12.63 12.6402 12.6432 -8.7739
556 1 14.1754 14.1728 14.1737 -8.92415
557 1 15.738 12.5836 12.5855 -8.95705
558 1 17.3037 14.1548 14.155 -8.95285
559 1 18.8725 12.5798 12.5802 -8.95161
560 1 20.4426 14.1523 14.1526 -8.95084
561 1 -0.00170957 15.7254 12.5801 -8.95012
562 1 1.56978 17.2985 14.1533 -8.9492
563 1 3.13775 15.7286 12.5823 -8.94884
564 1 4.71096 17.3037 14.1573 -8.94403
565 1 6.27287 15.744 12.593 -8.93128
566 1 7.86063 17.3052 14.1562 -8.95626
567 1 9.43576 15.7277 12.5863 -8.98699
568 1 11.0083 17.3062 14.1567 -8.95519
569 1 12.5896 15.7429 12.5873 -8.95666
570 1 14.157 17.305 14.156 -8.95007
571 1 15.7298 15.7289 12.5805 -8.94953
572 1 17.2991 17.2989 14.1527 -8.94979
573 1 18.8708 15.7256 12.5797 -8.94976
574 1 20.4415 17.2976 14.1523 -8.9497
575 1 22.013 18.87 12.5797 -8.94938
576 1 1.57135 20.4422 14.1523 -8.94937
577 1 3.14237 18.8715 12.5804 -8.94896
578 1 4.71568 20.4434 14.153 -8.9501
579 1 6.2871 18.8749 12.581 -8.95242
580 1 7.86195 20.4435 14.1527 -8.95075
581 1 9.43485 18.8718 12.5805 -8.94752
582 1 11.0073 20.4437 14.1526 -8.95102
583 1 12.5806 18.8737 12.5795 -8.95368
584 1 14.1529 20.4434 14.1523 -8.95088
585 1 15.7257 18.8711 12.5793 -8.94943
586 1 17.2974 20.4422 14.1519 -8.94958
587 1 18.8696 18.87 12.5794 -8.94937
588 1 20.4414 20.4419 14.152 -8.94948
589 1 1.57188 11.007 17.2974 -8.9497
590 1 4.71597 11.007 17.2979 -8.9475
591 1 7.86278 11.007 17.2927 -8.93545
592 1 11.0063 11.007 17.2987 -8.94209
593 1 14.156 11.007 17.3033 -8.94642
594 1 17.2992 11.007 17.2989 -8.94924
595 1 20.4422 11.007 17.2975 -8.94955
596 1 22.014 12.5794 15.7251 -8.9492
597 1 1.57188 14.1516 17.2973 -8.94952
598 1 3.14419 12.5786 15.7251 -8.9482
599 1 4.71603 14.1513 17.2988 -8.95222
600 1 6.29094 12.5759 15.7255 -8.95656
601 1 7.85983 14.1551 17.3058 -8.95736
602 1 9.4344 12.5849 15.7307 -8.9687
603 1 11.0081 14.1562 17.3078 -8.95648
604 1 12.5836 12.5806 15.7401 -8.963
605 1 14.1556 14.1545 17.3039 -8.95291
606 1 15.7295 12.5805 15.7298 -8.94734
607 1 17.2992 14.1527 17.2989 -8.94923
608 1 18.8713 12.5797 15.7258 -8.94909
609 1 20.4422 14.152 17.2974 -8.94938
610 1 22.0133 15.7248 15.7252 -8.95065
611 1 1.57079 17.2978 17.2982 -8.94955
612 1 3.14026 15.7268 15.7278 -8.94976
613 1 4.71323 17.3004 17.3013 -8.94629
614 1 6.27927 15.735 15.7372 -8.93818
615 1 7.86047 17.3006 17.3009 -8.94753
616 1 9.43368 15.7344 15.7353 -8.94132
617 1 11.0079 17.3009 17.3012 -8.94781
618 1 12.5894 15.7372 15.7383 -8.93563
619 1 14.1558 17.3015 17.3016 -8.94595
620 1 15.7332 15.7319 15.7319 -8.94258
621 1 17.2998 17.2993 17.2992 -8.94757
622 1 18.8718 15.7258 15.7258 -8.95042
623 1 20.4421 17.2974 17.2975 -8.94985
624 1 -0.000733995 18.8699 15.7249 -8.94943
625 1 1.5715 20.4421 17.2974 -8.94917
626 1 3.14243 18.8714 15.7263 -8.94817
627 1 4.71617 20.4426 17.2979 -8.94994
628 1 6.28794 18.8728 15.7267 -8.95102
629 1 7.86158 20.4428 17.2981 -8.9493
630 1 9.43434 18.8734 15.7273 -8.9493
631 1 11.0073 20.4429 17.2982 -8.94935
632 1 12.581 18.8735 15.7268 -8.9506
633 1 14.1529 20.4429 17.298 -8.94981
634 1 15.7266 18.8722 15.7261 -8.94955
635 1 17.2977 20.4424 17.2975 -8.9495
636 1 18.8699 18.8701 15.7247 -8.94968
637 1 20.4415 20.4419 17.297 -8.94954
638 1 1.57195 11.007 20.4416 -8.94955
639 1 4.71639 11.007 20.4417 -8.94967
640 1 7.86151 11.007 20.4416 -8.94691
641 1 11.0067 11.007 20.4426 -8.94813
642 1 14.1533 11.007 20.4429 -8.95009
643 1 17.2979 11.007 20.442 -8.94944
644 1 20.4418 11.007 20.4417 -8.94953
645 1 -4.32448e-05 12.5794 18.8695 -8.94954
646 1 1.57201 14.1519 20.4416 -8.9494
647 1 3.14402 12.5793 18.8698 -8.94907
648 1 4.71665 14.1516 20.4419 -8.94987
649 1 6.28921 12.5785 18.8699 -8.9496
650 1 7.8615 14.1522 20.4434 -8.9517
651 1 9.43388 12.5792 18.8716 -8.95017
652 1 11.0068 14.1525 20.4439 -8.9517
653 1 12.5801 12.5793 18.8734 -8.9523
654 1 14.1528 14.1525 20.4429 -8.95075
655 1 15.7263 12.5799 18.8715 -8.94886
656 1 17.2979 14.1523 20.442 -8.94927
657 1 18.8702 12.5795 18.8699 -8.9494
658 1 20.4418 14.152 20.4417 -8.94949
659 1 22.0138 15.7243 18.8695 -8.94966
660 1 1.57192 17.2969 20.4418 -8.94993
661 1 3.14384 15.7244 18.8702 -8.95055
662 1 4.71606 17.2977 20.4427 -8.94999
663 1 6.2876 15.7261 18.8731 -8.95122
664 1 7.86145 17.298 20.4429 -8.94925
665 1 9.43396 15.727 18.8737 -8.94905
666 1 11.0072 17.2981 20.443 -8.94929
667 1 12.581 15.7268 18.8739 -8.95059
668 1 14.1528 17.2981 20.443 -8.94968
669 1 15.7264 15.7259 18.8717 -8.95042
670 1 17.2978 17.2976 20.4421 -8.94965
671 1 18.8701 15.7247 18.8698 -8.94956
672 1 20.4418 17.2969 20.4417 -8.94964
673 1 22.0136 18.8696 18.8697 -8.94945
674 1 1.57186 20.4419 20.4419 -8.94915
675 1 3.14337 18.8703 18.8706 -8.94859
676 1 4.71675 20.442 20.442 -8.94944
677 1 6.28873 18.8705 18.8707 -8.94912
678 1 7.86186 20.442 20.4421 -8.94945
679 1 9.43435 18.8707 18.8708 -8.94939
680 1 11.0071 20.4421 20.4421 -8.94946
681 1 12.5801 18.8708 18.8708 -8.94913
351 1 22.0138 12.5795 22.0136 -8.94953
353 1 3.14411 12.5794 22.0134 -8.94953
357 1 9.43416 12.5793 22.0141 -8.94896
359 1 12.5799 12.5796 22.0132 -8.95139
383 1 6.28923 18.8699 22.014 -8.94935
367 1 3.14425 15.7244 22.0135 -8.94998
369 1 6.2889 15.7249 22.0138 -8.95087
375 1 15.7255 15.7254 22.0133 -8.95005
381 1 3.14406 18.8698 22.0138 -8.94948
363 1 18.8699 12.5796 22.0136 -8.94947
379 1 22.0137 18.8694 22.0137 -8.94959
387 1 12.5797 18.87 22.0141 -8.94933
