ITEM: TIMESTEP
71
ITEM: NUMBER OF ATOMS
688
ITEM: BOX BOUNDS pp pp pp
0.0000000000000000e+00 2.2013900999999997e+01
0.0000000000000000e+00 2.2013900999999997e+01
0.0000000000000000e+00 2.2013900999999997e+01
ITEM: ATOMS id type x y z c_pot
1 1 22.0137 6.15103e-16 2.78749e-07 -8.94919
2 1 1.57197 1.57209 1.57207 -8.94923
189 1 20.4414 4.71638 11.007 -8.94951
4 1 4.71699 1.57204 1.57207 -8.94959
5 1 6.28954 1.18454e-15 3.2694e-05 -8.94954
6 1 7.86203 1.57201 1.57209 -8.94951
175 1 18.8709 9.43406 9.43431 -8.94988
8 1 11.0071 1.572 1.57211 -8.94953
9 1 12.5795 8.3237e-16 5.19106e-05 -8.94954
10 1 14.152 1.57203 1.5722 -8.94948
174 1 15.7311 9.43242 9.4316 -8.94972
12 1 17.297 1.57199 1.57216 -8.94952
188 1 17.2982 4.71568 11.0067 -8.94891
14 1 20.4415 1.5722 1.57222 -8.94937
181 1 17.2973 1.57188 11.0068 -8.9495
16 1 1.57188 4.71683 1.57172 -8.9498
173 1 12.5997 9.40502 9.39076 -8.81101
18 1 4.71626 4.71618 1.57109 -8.94974
172 1 9.34412 9.19249 9.44742 -7.97281
20 1 7.86179 4.71614 1.57148 -8.94917
171 1 6.24212 9.38687 9.39176 -8.8679
22 1 11.0071 4.71608 1.57162 -8.94928
177 1 4.71583 1.57068 11.0071 -8.94941
24 1 14.1524 4.7161 1.57163 -8.94989
170 1 3.13348 9.43312 9.43132 -8.9603
26 1 17.2978 4.71607 1.5714 -8.94861
169 1 22.0116 9.43447 9.43434 -8.95152
28 1 20.4417 4.7169 1.57202 -8.94957
168 1 18.8702 6.28847 9.43439 -8.94948
30 1 1.57191 7.86193 1.57172 -8.94934
167 1 15.7279 6.28624 9.43345 -8.94696
32 1 4.71666 7.8621 1.57111 -8.95024
166 1 12.5827 6.28179 9.42972 -8.95182
34 1 7.86178 7.86165 1.57061 -8.95208
35 1 9.43425 6.28867 0.000179391 -8.9499
36 1 11.0066 7.86121 1.57061 -8.95054
37 1 12.5797 6.28878 0.000152213 -8.95014
38 1 14.1534 7.86059 1.56933 -8.95125
165 1 9.42845 6.29607 9.4384 -9.00528
40 1 17.298 7.86144 1.5713 -8.94923
164 1 6.2752 6.27078 9.43022 -8.95053
42 1 20.4418 7.86189 1.57195 -8.94948
163 1 3.13792 6.28518 9.43363 -8.94822
162 1 -0.00181815 6.28855 9.43445 -8.94982
45 1 6.28922 9.43473 -0.000273355 -8.94962
161 1 18.8695 3.14411 9.4344 -8.94947
160 1 15.7254 3.14322 9.43414 -8.94918
48 1 15.7255 9.43415 -0.000624621 -8.94938
159 1 12.5797 3.14273 9.43422 -8.95127
50 1 22.0136 -3.84979e-18 3.14458 -8.94947
51 1 1.57167 1.57179 4.71666 -8.94947
52 1 3.14433 1.02105e-15 3.14427 -8.94961
53 1 4.71652 1.57127 4.71625 -8.95004
54 1 6.28953 6.42746e-16 3.14429 -8.94949
55 1 7.86207 1.5714 4.71637 -8.94948
56 1 9.43461 6.28649e-16 3.14429 -8.94953
57 1 11.0073 1.57152 4.71646 -8.94943
58 1 12.5796 1.17593e-15 3.14439 -8.94944
59 1 14.1521 1.57158 4.71684 -8.95044
60 1 15.7245 1.0105e-15 3.14455 -8.94998
61 1 17.2971 1.57191 4.71695 -8.94959
62 1 18.8692 4.97195e-16 3.14468 -8.94955
63 1 20.4414 1.57215 4.71707 -8.94959
64 1 22.0133 3.14421 3.14418 -8.94912
65 1 1.57001 4.71528 4.71521 -8.9481
66 1 3.14357 3.14351 3.14344 -8.94843
67 1 4.71327 4.71281 4.71262 -8.94493
68 1 6.28925 3.14359 3.14371 -8.94947
69 1 7.86135 4.71388 4.71453 -8.94837
70 1 9.43458 3.14359 3.14383 -8.94948
71 1 11.0074 4.71443 4.71503 -8.94743
72 1 12.5797 3.14367 3.14403 -8.9491
73 1 14.1541 4.71329 4.71457 -8.95019
74 1 15.7252 3.14337 3.1439 -8.94963
75 1 17.2982 4.71552 4.71603 -8.94889
76 1 18.8694 3.14421 3.14438 -8.94941
77 1 20.4413 4.71649 4.71662 -8.94972
78 1 22.0136 6.2893 3.14411 -8.94968
79 1 1.57074 7.86159 4.71561 -8.94932
80 1 3.14335 6.28874 3.14272 -8.95049
81 1 4.71402 7.86063 4.71211 -8.95312
82 1 6.28763 6.28732 3.14047 -8.9507
83 1 7.85859 7.85717 4.70759 -8.95675
84 1 9.43423 6.28724 3.1419 -8.94816
85 1 11.0065 7.85875 4.71012 -8.95226
86 1 12.5801 6.28756 3.14193 -8.94988
87 1 14.162 7.85247 4.70544 -8.93879
88 1 15.7278 6.28614 3.14102 -8.94634
89 1 17.3004 7.8602 4.71489 -8.95021
90 1 18.8703 6.28881 3.14387 -8.9496
91 1 20.4419 7.86162 4.71641 -8.9498
92 1 -0.00030125 9.43437 3.14396 -8.94946
93 1 3.14348 9.4343 3.1428 -8.94877
94 1 6.28938 9.43524 3.14236 -8.95151
95 1 9.43452 9.43408 3.14378 -8.94687
96 1 12.582 9.43318 3.13686 -8.95735
97 1 15.7276 9.43331 3.14122 -8.94807
98 1 18.8704 9.43421 3.14376 -8.94935
99 1 22.0136 -6.12497e-17 6.28951 -8.94954
100 1 1.57163 1.57181 7.86186 -8.94944
101 1 3.14403 5.2884e-16 6.28909 -8.9498
102 1 4.71612 1.57064 7.86142 -8.9503
103 1 6.28941 1.09587e-15 6.28903 -8.95053
104 1 7.86217 1.57065 7.86174 -8.95127
105 1 9.43479 1.5206e-15 6.28902 -8.95015
106 1 11.007 1.57168 7.86192 -8.94943
107 1 12.5795 1.44527e-15 6.28943 -8.95007
108 1 14.1523 1.57141 7.86179 -8.95029
109 1 15.7247 5.76973e-16 6.28941 -8.94986
110 1 17.2972 1.57192 7.86191 -8.94945
111 1 18.8693 2.33026e-17 6.28956 -8.94953
112 1 20.4414 1.57212 7.862 -8.94953
113 1 -0.000678457 3.1441 6.2893 -8.94952
114 1 1.57003 4.71538 7.86132 -8.94929
115 1 3.14284 3.14235 6.28813 -8.94929
116 1 4.71189 4.70993 7.85858 -8.9487
117 1 6.28841 3.14096 6.28788 -8.95155
118 1 7.86027 4.70872 7.86058 -8.95914
119 1 9.43479 3.14192 6.28823 -8.94996
120 1 11.0053 4.71507 7.86197 -8.95262
121 1 12.5795 3.14276 6.28918 -8.95175
122 1 14.154 4.71288 7.8603 -8.94975
123 1 15.7253 3.14308 6.28896 -8.94954
124 1 17.298 4.71573 7.86164 -8.94921
125 1 18.8694 3.1442 6.28944 -8.94953
126 1 20.4413 4.71643 7.86188 -8.94951
127 1 22.012 6.28848 6.28855 -8.95048
128 1 1.56653 7.86018 7.8601 -8.95343
129 1 3.13701 6.28373 6.2836 -8.94506
130 1 4.69464 7.84568 7.84604 -8.93669
131 1 6.27716 6.27612 6.27604 -8.93046
132 1 7.82245 7.82332 7.82501 -8.85041
133 1 9.43367 6.28139 6.2844 -8.9451
134 1 11.0157 7.85133 7.83997 -8.90526
135 1 12.5841 6.28092 6.28274 -8.95194
136 1 14.1653 7.85039 7.85137 -8.93472
137 1 15.7292 6.28504 6.28603 -8.94628
138 1 17.3008 7.86019 7.86099 -8.9512
139 1 18.8703 6.28855 6.28896 -8.95009
140 1 20.4413 7.86145 7.86171 -8.95082
141 1 22.0127 9.43425 6.28847 -8.94941
142 1 3.14039 9.43408 6.28569 -8.94745
143 1 6.28489 9.43538 6.2802 -8.9616
144 1 9.42547 9.41937 6.29194 -8.92215
145 1 12.6086 9.41215 6.25586 -8.9075
146 1 15.7337 9.43176 6.28423 -8.95371
147 1 18.8715 9.43403 6.28861 -8.95074
148 1 -0.000361299 1.44038e-15 9.43448 -8.94954
149 1 3.14387 1.58385e-15 9.43435 -8.94944
150 1 6.28909 1.19806e-15 9.43437 -8.95093
151 1 9.43479 1.27373e-15 9.43426 -8.94822
152 1 12.5797 9.84393e-16 9.43432 -8.95001
153 1 15.7249 5.30645e-16 9.43428 -8.94954
154 1 18.8693 1.82813e-16 9.43445 -8.94955
155 1 22.0132 3.14408 9.43446 -8.94944
156 1 3.14286 3.14264 9.43426 -8.94908
157 1 6.28756 3.13951 9.43433 -8.95215
158 1 9.43445 3.14405 9.43455 -8.94516
183 1 1.57007 4.71554 11.0073 -8.94914
184 1 4.71193 4.71128 11.008 -8.94623
11 1 15.7244 1.63911e-15 6.9172e-05 -8.94957
25 1 15.7247 3.14419 0.000110659 -8.94961
29 1 22.0138 6.28956 -0.000166124 -8.9495
41 1 18.8696 6.28937 -0.000202921 -8.94948
176 1 1.57157 1.57182 11.007 -8.94947
343 1 18.8699 9.43441 18.8697 -8.94945
178 1 7.86214 1.57058 11.007 -8.95108
179 1 11.0069 1.57156 11.0067 -8.94901
180 1 14.1527 1.57132 11.0065 -8.94939
342 1 15.726 9.43413 18.8712 -8.94886
182 1 20.4414 1.5721 11.007 -8.94955
47 1 12.5798 9.43438 22.0131 -8.9514
46 1 9.4342 9.4346 22.0141 -8.9491
185 1 7.85943 4.70881 11.0092 -8.95942
186 1 11.0064 4.71529 11.0072 -8.95109
187 1 14.1542 4.71373 11.0058 -8.947
341 1 12.5801 9.43469 18.8732 -8.95218
340 1 9.43387 9.43476 18.8718 -8.95033
190 1 1.56755 7.86081 11.0075 -8.95236
191 1 4.699 7.85396 11.0093 -8.95676
192 1 7.80168 7.82366 11.0348 -8.81464
193 1 11.0456 7.85494 11.0165 -8.86809
194 1 14.1636 7.85715 11.0055 -8.95525
195 1 17.3005 7.86056 11.0067 -8.95039
196 1 20.4415 7.86148 11.0071 -8.95043
197 1 -0.000353382 1.63345e-15 12.5795 -8.94955
198 1 1.57163 1.57187 14.1521 -8.94943
199 1 3.14385 1.47443e-15 12.5796 -8.94939
200 1 4.71597 1.57074 14.1527 -8.95003
201 1 6.28907 1.01954e-15 12.5796 -8.95107
202 1 7.86201 1.5705 14.1525 -8.95077
203 1 9.43475 1.29704e-15 12.5795 -8.94908
204 1 11.0072 1.57033 14.1525 -8.95104
205 1 12.5798 1.30585e-15 12.5791 -8.9509
206 1 14.1528 1.57071 14.1522 -8.95076
207 1 15.7249 1.50709e-15 12.5793 -8.94951
208 1 17.2972 1.57187 14.1518 -8.94959
209 1 18.8693 1.52469e-15 12.5794 -8.94953
210 1 20.4414 1.57213 14.1519 -8.94952
211 1 22.0132 3.14411 12.5796 -8.94942
212 1 1.57017 4.71575 14.153 -8.94922
213 1 3.14283 3.14277 12.5801 -8.94903
214 1 4.71154 4.71088 14.1567 -8.94405
215 1 6.28743 3.13945 12.5807 -8.9523
216 1 7.8608 4.70901 14.1557 -8.95655
217 1 9.43488 3.14217 12.5802 -8.94729
218 1 11.0082 4.70798 14.1562 -8.95552
219 1 12.5805 3.14045 12.5793 -8.95352
220 1 14.1565 4.70961 14.1554 -8.95005
221 1 15.7255 3.14308 12.5792 -8.94945
222 1 17.2987 4.71541 14.1524 -8.94978
223 1 18.8695 3.14412 12.5794 -8.9494
224 1 20.4415 4.71651 14.1522 -8.94968
225 1 -0.00150429 6.28872 12.58 -8.95007
226 1 1.57017 7.86192 14.1527 -8.95202
227 1 3.13842 6.28587 12.582 -8.9489
228 1 4.70731 7.85637 14.1588 -8.95142
229 1 6.27365 6.27074 12.5924 -8.93109
230 1 7.83629 7.83125 14.1877 -8.89542
231 1 9.43578 6.28702 12.5862 -8.98878
232 1 11.0315 7.82841 14.1913 -8.87949
233 1 12.5889 6.27156 12.5865 -8.95662
234 1 14.1746 7.84197 14.1726 -8.92517
235 1 15.7292 6.28558 12.5801 -8.94957
236 1 17.303 7.8595 14.1545 -8.95295
237 1 18.8705 6.28857 12.5796 -8.94972
238 1 20.4424 7.86172 14.1524 -8.95079
239 1 22.0133 9.43463 12.5799 -8.9498
240 1 3.14164 9.43513 12.5796 -8.95197
241 1 6.2774 9.41456 12.5948 -8.89393
242 1 9.43812 9.25217 12.6415 -8.21651
243 1 12.628 9.37458 12.6421 -8.77572
244 1 15.7368 9.43075 12.5848 -8.9572
245 1 18.872 9.43421 12.58 -8.95152
246 1 22.0136 -3.04108e-16 15.7244 -8.94955
247 1 1.57173 1.57196 17.2972 -8.94924
248 1 3.14396 4.02256e-16 15.7249 -8.94954
249 1 4.7164 1.57142 17.2976 -8.94996
250 1 6.28921 4.83538e-16 15.7249 -8.95026
251 1 7.86169 1.57126 17.2978 -8.94933
252 1 9.43451 8.42477e-16 15.7252 -8.95012
253 1 11.0072 1.5712 17.2979 -8.94937
254 1 12.5799 5.60869e-16 15.725 -8.95034
255 1 14.1527 1.57123 17.2977 -8.94982
256 1 15.725 1.00457e-15 15.7247 -8.95003
257 1 17.2974 1.57173 17.2972 -8.94953
258 1 18.8693 7.09281e-16 15.7243 -8.94964
259 1 20.4415 1.57215 17.2969 -8.94958
260 1 -0.000589749 3.14423 15.7247 -8.94946
261 1 1.571 4.71634 17.2979 -8.94958
262 1 3.14283 3.1429 15.7259 -8.94823
263 1 4.71349 4.7137 17.3009 -8.9461
264 1 6.28817 3.14138 15.7263 -8.9511
265 1 7.86062 4.71367 17.3005 -8.94751
266 1 9.43435 3.14084 15.7269 -8.94932
267 1 11.0078 4.71337 17.3007 -8.9478
268 1 12.5808 3.14074 15.7264 -8.95068
269 1 14.1555 4.71287 17.3011 -8.94581
270 1 15.7262 3.14217 15.7257 -8.94956
271 1 17.2993 4.71502 17.2988 -8.94767
272 1 18.8697 3.1441 15.7246 -8.94969
273 1 20.4419 4.71666 17.2973 -8.94984
274 1 22.0133 6.28923 15.7249 -8.9506
275 1 1.5719 7.86234 17.2972 -8.94954
276 1 3.14062 6.28741 15.7274 -8.94993
277 1 4.71606 7.86265 17.2986 -8.95207
278 1 6.27924 6.27906 15.7369 -8.93748
279 1 7.85972 7.85888 17.3059 -8.95742
280 1 9.43366 6.27979 15.735 -8.94138
281 1 11.0081 7.85791 17.3077 -8.95659
282 1 12.5894 6.27706 15.7378 -8.93495
283 1 14.1552 7.85977 17.3032 -8.9528
284 1 15.7325 6.28274 15.7312 -8.94287
285 1 17.2987 7.86148 17.2984 -8.94928
286 1 18.8714 6.28842 15.7255 -8.95043
287 1 20.442 7.86198 17.2972 -8.94942
288 1 22.0139 9.43457 15.7249 -8.94925
289 1 3.14416 9.43534 15.725 -8.94837
290 1 6.29066 9.43809 15.7258 -8.95602
291 1 9.43413 9.42869 15.7317 -8.96878
292 1 12.5833 9.43358 15.7396 -8.9625
293 1 15.7289 9.43366 15.729 -8.94745
294 1 18.8709 9.43431 15.7255 -8.94913
295 1 -0.000219239 5.05674e-16 18.8693 -8.94941
296 1 1.57201 1.57211 20.4418 -8.94921
297 1 3.14431 4.47362e-16 18.8696 -8.94961
298 1 4.71692 1.57206 20.4419 -8.9495
299 1 6.28934 1.14447e-15 18.8697 -8.9494
300 1 7.86195 1.57199 20.4419 -8.9495
301 1 9.43448 9.65721e-16 18.8698 -8.94948
302 1 11.007 1.57197 20.4419 -8.94951
303 1 12.5797 1.32819e-15 18.8698 -8.94942
304 1 14.1521 1.57201 20.4419 -8.94949
305 1 15.7248 1.57785e-15 18.8697 -8.94954
306 1 17.2971 1.57207 20.4418 -8.94932
307 1 18.8694 6.99598e-16 18.8694 -8.94948
308 1 20.4416 1.5722 20.4416 -8.94925
309 1 22.0136 3.14443 18.8695 -8.94949
310 1 1.57204 4.71708 20.4417 -8.9499
311 1 3.1436 3.14375 18.8703 -8.94856
312 1 4.71625 4.71636 20.4426 -8.94993
313 1 6.28894 3.14359 18.8704 -8.94915
314 1 7.86158 4.7161 20.4427 -8.94924
315 1 9.4344 3.14344 18.8705 -8.94942
316 1 11.0071 4.71603 20.4428 -8.9493
317 1 12.58 3.14343 18.8705 -8.94918
318 1 14.1527 4.71609 20.4428 -8.94966
319 1 15.7255 3.14348 18.8704 -8.94858
320 1 17.2975 4.71656 20.4419 -8.94966
321 1 18.8698 3.14414 18.8697 -8.94902
322 1 20.4417 4.7171 20.4416 -8.94967
323 1 22.0138 6.28964 18.8694 -8.94967
324 1 1.57206 7.86206 20.4416 -8.94942
325 1 3.14398 6.28956 18.87 -8.95047
326 1 4.71671 7.86228 20.4419 -8.9498
327 1 6.28773 6.28793 18.8729 -8.95116
328 1 7.86154 7.86175 20.4434 -8.95171
329 1 9.43402 6.28721 18.8733 -8.94903
330 1 11.0068 7.86147 20.4438 -8.95171
331 1 12.5809 6.28737 18.8735 -8.95058
332 1 14.1527 7.86156 20.4426 -8.95067
333 1 15.726 6.28837 18.8713 -8.95038
334 1 17.2976 7.86177 20.4419 -8.94929
335 1 18.8698 6.28936 18.8696 -8.9496
336 1 20.4417 7.862 20.4416 -8.94953
337 1 -0.000108564 9.4345 18.8695 -8.94956
338 1 3.14404 9.4346 18.8697 -8.94907
339 1 6.28912 9.43535 18.87 -8.94956
7 1 9.43452 9.53177e-16 22.0139 -8.94956
44 1 3.14421 9.43446 22.0135 -8.94953
17 1 3.14426 3.14428 22.0138 -8.94948
19 1 6.28937 3.14421 22.014 -8.94939
21 1 9.43448 3.14412 22.014 -8.94948
43 1 22.0138 9.43447 22.0137 -8.94956
27 1 18.8695 3.14442 22.0138 -8.9493
39 1 15.7252 6.28876 22.0133 -8.95004
31 1 3.14438 6.28956 22.0136 -8.94993
33 1 6.28902 6.28907 22.0138 -8.95082
3 1 3.14461 9.18595e-16 22.0139 -8.94961
13 1 18.8693 7.71981e-16 22.0139 -8.94928
15 1 22.0138 3.14463 22.0138 -8.94962
23 1 12.5796 3.14414 22.014 -8.94938
49 1 18.8697 9.43441 22.0137 -8.94951
344 1 1.57186 11.007 1.57166 -8.94953
345 1 4.71637 11.007 1.5709 -8.94989
346 1 7.86216 11.007 1.57222 -8.94772
347 1 11.0068 11.007 1.57091 -8.94912
348 1 14.1539 11.007 1.56911 -8.94966
349 1 17.298 11.007 1.57129 -8.94942
350 1 20.4418 11.007 1.57192 -8.94952
688 3 10.1555 11.007 9.52936 2.23376
352 1 1.57191 14.152 1.57172 -8.94934
511 1 18.8695 18.8698 9.4344 -8.94947
354 1 4.71666 14.1518 1.57111 -8.95024
355 1 6.28922 12.5792 -0.000273355 -8.94962
356 1 7.86178 14.1522 1.57061 -8.95208
510 1 15.7254 18.8707 9.43414 -8.94918
358 1 11.0066 14.1527 1.57061 -8.95054
509 1 12.5797 18.8712 9.43422 -8.95127
360 1 14.1534 14.1533 1.56933 -8.95125
361 1 15.7255 12.5797 -0.000624621 -8.94938
362 1 17.298 14.1525 1.5713 -8.94923
538 1 17.2973 20.442 11.0068 -8.9495
364 1 20.4418 14.152 1.57195 -8.94948
508 1 9.43445 18.8698 9.43455 -8.94516
366 1 1.57188 17.2971 1.57172 -8.9498
507 1 6.28756 18.8744 9.43433 -8.95215
368 1 4.71626 17.2977 1.57109 -8.94974
506 1 3.14286 18.8713 9.43426 -8.94908
370 1 7.86179 17.2978 1.57148 -8.94917
371 1 9.43425 15.7252 0.000179391 -8.9499
372 1 11.0071 17.2978 1.57162 -8.94928
373 1 12.5797 15.7251 0.000152213 -8.95014
374 1 14.1524 17.2978 1.57163 -8.94989
505 1 22.0132 18.8698 9.43446 -8.94944
376 1 17.2978 17.2978 1.5714 -8.94861
504 1 18.8702 15.7254 9.43439 -8.94948
378 1 20.4417 17.297 1.57202 -8.94957
534 1 4.71583 20.4432 11.0071 -8.94941
380 1 1.57197 20.4418 1.57207 -8.94923
503 1 15.7279 15.7277 9.43345 -8.94696
382 1 4.71699 20.4419 1.57207 -8.94959
502 1 12.5827 15.7321 9.42972 -8.95182
384 1 7.86203 20.4419 1.57209 -8.94951
501 1 9.42845 15.7178 9.4384 -9.00528
386 1 11.0071 20.4419 1.57211 -8.94953
532 1 20.4414 17.2975 11.007 -8.94951
388 1 14.152 20.4419 1.5722 -8.94948
500 1 6.2752 15.7431 9.43022 -8.95053
390 1 17.297 20.4419 1.57216 -8.94952
499 1 3.13792 15.7287 9.43363 -8.94822
392 1 20.4415 20.4417 1.57222 -8.94937
393 1 1.57074 11.007 4.71533 -8.94929
394 1 4.7142 11.007 4.71207 -8.94601
395 1 7.86541 11.007 4.71965 -8.94489
396 1 11.0093 11.007 4.71271 -8.98455
397 1 14.1608 11.007 4.70705 -8.94294
398 1 17.3005 11.007 4.71471 -8.94918
399 1 20.4421 11.007 4.71625 -8.94972
400 1 -0.00030125 12.5795 3.14396 -8.94946
401 1 1.57074 14.1523 4.71561 -8.94932
402 1 3.14348 12.5796 3.1428 -8.94877
403 1 4.71402 14.1533 4.71211 -8.95312
404 1 6.28938 12.5787 3.14236 -8.95151
405 1 7.85859 14.1567 4.70759 -8.95675
406 1 9.43452 12.5798 3.14378 -8.94687
407 1 11.0065 14.1552 4.71012 -8.95226
408 1 12.582 12.5807 3.13686 -8.95735
409 1 14.162 14.1614 4.70544 -8.93879
410 1 15.7276 12.5806 3.14122 -8.94807
411 1 17.3004 14.1537 4.71489 -8.95021
412 1 18.8704 12.5797 3.14376 -8.94935
413 1 20.4419 14.1523 4.71641 -8.9498
414 1 22.0136 15.7246 3.14411 -8.94968
415 1 1.57001 17.2986 4.71521 -8.9481
416 1 3.14335 15.7252 3.14272 -8.95049
417 1 4.71327 17.3011 4.71262 -8.94493
418 1 6.28763 15.7266 3.14047 -8.9507
419 1 7.86135 17.3 4.71453 -8.94837
420 1 9.43423 15.7267 3.1419 -8.94816
421 1 11.0074 17.2995 4.71503 -8.94743
422 1 12.5801 15.7263 3.14193 -8.94988
423 1 14.1541 17.3006 4.71457 -8.95019
424 1 15.7278 15.7278 3.14102 -8.94634
425 1 17.2982 17.2984 4.71603 -8.94889
426 1 18.8703 15.7251 3.14387 -8.9496
427 1 20.4413 17.2974 4.71662 -8.94972
428 1 22.0133 18.8697 3.14418 -8.94912
429 1 1.57167 20.4421 4.71666 -8.94947
430 1 3.14357 18.8704 3.14344 -8.94843
431 1 4.71652 20.4426 4.71625 -8.95004
432 1 6.28925 18.8703 3.14371 -8.94947
433 1 7.86207 20.4425 4.71637 -8.94948
434 1 9.43458 18.8703 3.14383 -8.94948
435 1 11.0073 20.4424 4.71646 -8.94943
436 1 12.5797 18.8702 3.14403 -8.9491
437 1 14.1521 20.4423 4.71684 -8.95044
438 1 15.7252 18.8705 3.1439 -8.94963
439 1 17.2971 20.442 4.71695 -8.94959
440 1 18.8694 18.8697 3.14438 -8.94941
441 1 20.4414 20.4417 4.71707 -8.94959
442 1 1.56834 11.007 7.85958 -8.94739
443 1 4.70995 11.007 7.85302 -8.93483
444 1 7.87448 11.007 7.87502 -8.92372
445 1 11.0735 11.007 7.71797 -8.28961
446 1 14.1677 11.007 7.85011 -8.96032
447 1 17.3017 11.007 7.86067 -8.95104
448 1 20.4417 11.007 7.86149 -8.95007
449 1 22.0127 12.5797 6.28847 -8.94941
450 1 1.56653 14.1537 7.8601 -8.95343
451 1 3.14039 12.5798 6.28569 -8.94745
452 1 4.69464 14.1682 7.84604 -8.93669
453 1 6.28489 12.5785 6.2802 -8.9616
454 1 7.82245 14.1906 7.82501 -8.85041
455 1 9.42547 12.5945 6.29194 -8.92215
456 1 11.0157 14.1626 7.83997 -8.90526
457 1 12.6086 12.6018 6.25586 -8.9075
458 1 14.1653 14.1635 7.85137 -8.93472
459 1 15.7337 12.5821 6.28423 -8.95371
460 1 17.3008 14.1537 7.86099 -8.9512
461 1 18.8715 12.5799 6.28861 -8.95074
462 1 20.4413 14.1525 7.86171 -8.95082
463 1 22.012 15.7254 6.28855 -8.95048
464 1 1.57003 17.2985 7.86132 -8.94929
465 1 3.13701 15.7302 6.2836 -8.94506
466 1 4.71189 17.304 7.85858 -8.9487
467 1 6.27716 15.7378 6.27604 -8.93046
468 1 7.86027 17.3052 7.86058 -8.95914
469 1 9.43367 15.7325 6.2844 -8.9451
470 1 11.0053 17.2988 7.86197 -8.95262
471 1 12.5841 15.733 6.28274 -8.95194
472 1 14.154 17.301 7.8603 -8.94975
473 1 15.7292 15.7289 6.28603 -8.94628
474 1 17.298 17.2982 7.86164 -8.94921
475 1 18.8703 15.7254 6.28896 -8.95009
476 1 20.4413 17.2975 7.86188 -8.94951
477 1 -0.000678457 18.8698 6.2893 -8.94952
478 1 1.57163 20.4421 7.86186 -8.94944
479 1 3.14284 18.8715 6.28813 -8.94929
480 1 4.71612 20.4433 7.86142 -8.9503
481 1 6.28841 18.8729 6.28788 -8.95155
482 1 7.86217 20.4432 7.86174 -8.95127
483 1 9.43479 18.872 6.28823 -8.94996
484 1 11.007 20.4422 7.86192 -8.94943
485 1 12.5795 18.8711 6.28918 -8.95175
486 1 14.1523 20.4425 7.86179 -8.95029
487 1 15.7253 18.8708 6.28896 -8.94954
488 1 17.2972 20.442 7.86191 -8.94945
489 1 18.8694 18.8697 6.28944 -8.94953
490 1 20.4414 20.4418 7.862 -8.94953
491 1 22.0116 12.5794 9.43434 -8.95152
492 1 3.13348 12.5808 9.43132 -8.9603
493 1 6.24212 12.627 9.39176 -8.8679
494 1 9.34412 12.8214 9.44742 -7.97281
495 1 12.5997 12.6089 9.39076 -8.81101
496 1 15.7311 12.5815 9.4316 -8.94972
497 1 18.8709 12.5798 9.43431 -8.94988
498 1 -0.00181815 15.7254 9.43445 -8.94982
513 1 4.71943 11.007 11 -9.0066
514 1 7.60488 11.007 10.9131 -8.0043
531 1 17.2982 17.2982 11.0067 -8.94891
526 1 1.57007 17.2984 11.0073 -8.94914
527 1 4.71193 17.3026 11.008 -8.94623
389 1 15.7247 18.8697 0.000110659 -8.94961
365 1 22.0138 15.7243 -0.000166124 -8.9495
377 1 18.8696 15.7245 -0.000202921 -8.94948
512 1 1.57057 11.007 11.0072 -8.94555
687 3 9.47362 11.007 11.6243 2.15836
686 1 20.4416 20.4417 20.4416 -8.94925
515 1 11.4019 11.007 11.0921 -7.18455
516 1 14.1713 11.007 11.0122 -9.02221
517 1 17.3016 11.007 11.0069 -8.95278
518 1 20.4421 11.007 11.0071 -8.94914
519 1 1.56755 14.1531 11.0075 -8.95236
520 1 4.699 14.1599 11.0093 -8.95676
521 1 7.80168 14.1902 11.0348 -8.81464
522 1 11.0456 14.159 11.0165 -8.86809
523 1 14.1636 14.1567 11.0055 -8.95525
524 1 17.3005 14.1533 11.0067 -8.95039
525 1 20.4415 14.1524 11.0071 -8.95043
391 1 18.8695 18.8695 22.0138 -8.9493
385 1 9.43448 18.8698 22.014 -8.94948
528 1 7.85943 17.3051 11.0092 -8.95942
529 1 11.0064 17.2986 11.0072 -8.95109
530 1 14.1542 17.3002 11.0058 -8.947
685 1 18.8698 18.8698 18.8697 -8.94902
684 1 17.2971 20.4418 20.4418 -8.94932
533 1 1.57157 20.4421 11.007 -8.94947
683 1 15.7255 18.8704 18.8704 -8.94858
535 1 7.86214 20.4433 11.007 -8.95108
536 1 11.0069 20.4423 11.0067 -8.94901
537 1 14.1527 20.4426 11.0065 -8.94939
682 1 14.1521 20.4419 20.4419 -8.94949
539 1 20.4414 20.4418 11.007 -8.94955
540 1 1.57176 11.007 14.1528 -8.94807
541 1 4.71843 11.007 14.1507 -8.94092
542 1 7.8757 11.007 14.1178 -8.92584
543 1 11.0056 11.007 14.1449 -8.97432
544 1 14.1608 11.007 14.1623 -8.93703
545 1 17.3011 11.007 14.1545 -8.94772
546 1 20.4425 11.007 14.1526 -8.94952
547 1 22.0133 12.5793 12.5799 -8.9498
548 1 1.57017 14.152 14.1527 -8.95202
549 1 3.14164 12.5788 12.5796 -8.95197
550 1 4.70731 14.1575 14.1588 -8.95142
551 1 6.2774 12.5993 12.5948 -8.89393
552 1 7.83629 14.1827 14.1877 -8.89542
553 1 9.43812 12.7617 12.6415 -8.21651
554 1 11.0315 14.1855 14.1913 -8.87949
555 1 12.628 12.6393 12.6421 -8.77572
556 1 14.1746 14.1719 14.1726 -8.92517
557 1 15.7368 12.5831 12.5848 -8.9572
558 1 17.303 14.1544 14.1545 -8.95295
559 1 18.872 12.5797 12.58 -8.95152
560 1 20.4424 14.1522 14.1524 -8.95079
561 1 -0.00150429 15.7252 12.58 -8.95007
562 1 1.57017 17.2982 14.153 -8.94922
563 1 3.13842 15.728 12.582 -8.9489
564 1 4.71154 17.303 14.1567 -8.94405
565 1 6.27365 15.7432 12.5924 -8.93109
566 1 7.8608 17.3049 14.1557 -8.95655
567 1 9.43578 15.7269 12.5862 -8.98878
568 1 11.0082 17.3059 14.1562 -8.95552
569 1 12.5889 15.7423 12.5865 -8.95662
570 1 14.1565 17.3043 14.1554 -8.95005
571 1 15.7292 15.7283 12.5801 -8.94957
572 1 17.2987 17.2985 14.1524 -8.94978
573 1 18.8705 15.7253 12.5796 -8.94972
574 1 20.4415 17.2974 14.1522 -8.94968
575 1 22.0132 18.8698 12.5796 -8.94942
576 1 1.57163 20.442 14.1521 -8.94943
577 1 3.14283 18.8711 12.5801 -8.94903
578 1 4.71597 20.4432 14.1527 -8.95003
579 1 6.28743 18.8745 12.5807 -8.9523
580 1 7.86201 20.4434 14.1525 -8.95077
581 1 9.43488 18.8717 12.5802 -8.94729
582 1 11.0072 20.4436 14.1525 -8.95104
583 1 12.5805 18.8734 12.5793 -8.95352
584 1 14.1528 20.4432 14.1522 -8.95076
585 1 15.7255 18.8708 12.5792 -8.94945
586 1 17.2972 20.442 14.1518 -8.94959
587 1 18.8695 18.8698 12.5794 -8.9494
588 1 20.4414 20.4418 14.1519 -8.94952
589 1 1.57181 11.007 17.2974 -8.94972
590 1 4.71584 11.007 17.298 -8.9474
591 1 7.86255 11.007 17.2933 -8.93588
592 1 11.0062 11.007 17.299 -8.94249
593 1 14.1556 11.007 17.3027 -8.94634
594 1 17.2988 11.007 17.2985 -8.94929
595 1 20.442 11.007 17.2973 -8.94959
596 1 22.0139 12.5793 15.7249 -8.94925
597 1 1.5719 14.1516 17.2972 -8.94954
598 1 3.14416 12.5786 15.725 -8.94837
599 1 4.71606 14.1513 17.2986 -8.95207
600 1 6.29066 12.5758 15.7258 -8.95602
601 1 7.85972 14.155 17.3059 -8.95742
602 1 9.43413 12.5852 15.7317 -8.96878
603 1 11.0081 14.156 17.3077 -8.95659
604 1 12.5833 12.5803 15.7396 -8.9625
605 1 14.1552 14.1541 17.3032 -8.9528
606 1 15.7289 12.5802 15.729 -8.94745
607 1 17.2987 14.1524 17.2984 -8.94928
608 1 18.8709 12.5796 15.7255 -8.94913
609 1 20.442 14.1519 17.2972 -8.94942
610 1 22.0133 15.7247 15.7249 -8.9506
611 1 1.571 17.2976 17.2979 -8.94958
612 1 3.14062 15.7265 15.7274 -8.94993
613 1 4.71349 17.3002 17.3009 -8.9461
614 1 6.27924 15.7348 15.7369 -8.93748
615 1 7.86062 17.3002 17.3005 -8.94751
616 1 9.43366 15.7341 15.735 -8.94138
617 1 11.0078 17.3005 17.3007 -8.9478
618 1 12.5894 15.7368 15.7378 -8.93495
619 1 14.1555 17.301 17.3011 -8.94581
620 1 15.7325 15.7312 15.7312 -8.94287
621 1 17.2993 17.2989 17.2988 -8.94767
622 1 18.8714 15.7255 15.7255 -8.95043
623 1 20.4419 17.2972 17.2973 -8.94984
624 1 -0.000589749 18.8697 15.7247 -8.94946
625 1 1.57173 20.4419 17.2972 -8.94924
626 1 3.14283 18.871 15.7259 -8.94823
627 1 4.7164 20.4425 17.2976 -8.94996
628 1 6.28817 18.8725 15.7263 -8.9511
629 1 7.86169 20.4426 17.2978 -8.94933
630 1 9.43435 18.8731 15.7269 -8.94932
631 1 11.0072 20.4427 17.2979 -8.94937
632 1 12.5808 18.8732 15.7264 -8.95068
633 1 14.1527 20.4427 17.2977 -8.94982
634 1 15.7262 18.8717 15.7257 -8.94956
635 1 17.2974 20.4422 17.2972 -8.94953
636 1 18.8697 18.8698 15.7246 -8.94969
637 1 20.4415 20.4417 17.2969 -8.94958
638 1 1.572 11.007 20.4416 -8.94957
639 1 4.71642 11.007 20.4418 -8.94965
640 1 7.86149 11.007 20.4417 -8.94709
641 1 11.0068 11.007 20.4427 -8.94817
642 1 14.1531 11.007 20.4427 -8.95004
643 1 17.2977 11.007 20.4419 -8.94946
644 1 20.4417 11.007 20.4416 -8.94956
645 1 -0.000108564 12.5794 18.8695 -8.94956
646 1 1.57206 14.1518 20.4416 -8.94942
647 1 3.14404 12.5793 18.8697 -8.94907
648 1 4.71671 14.1516 20.4419 -8.9498
649 1 6.28912 12.5785 18.87 -8.94956
650 1 7.86154 14.1521 20.4434 -8.95171
651 1 9.43387 12.5791 18.8718 -8.95033
652 1 11.0068 14.1524 20.4438 -8.95171
653 1 12.5801 12.5792 18.8732 -8.95218
654 1 14.1527 14.1523 20.4426 -8.95067
655 1 15.726 12.5798 18.8712 -8.94886
656 1 17.2976 14.1521 20.4419 -8.94929
657 1 18.8699 12.5795 18.8697 -8.94945
658 1 20.4417 14.1519 20.4416 -8.94953
659 1 22.0138 15.7243 18.8694 -8.94967
660 1 1.57204 17.2968 20.4417 -8.9499
661 1 3.14398 15.7243 18.87 -8.95047
662 1 4.71625 17.2975 20.4426 -8.94993
663 1 6.28773 15.726 18.8729 -8.95116
664 1 7.86158 17.2978 20.4427 -8.94924
665 1 9.43402 15.7267 18.8733 -8.94903
666 1 11.0071 17.2979 20.4428 -8.9493
667 1 12.5809 15.7265 18.8735 -8.95058
668 1 14.1527 17.2978 20.4428 -8.94966
669 1 15.726 15.7255 18.8713 -8.95038
670 1 17.2975 17.2973 20.4419 -8.94966
671 1 18.8698 15.7245 18.8696 -8.9496
672 1 20.4417 17.2968 20.4416 -8.94967
673 1 22.0136 18.8695 18.8695 -8.94949
674 1 1.57201 20.4418 20.4418 -8.94921
675 1 3.1436 18.8702 18.8703 -8.94856
676 1 4.71692 20.4418 20.4419 -8.9495
677 1 6.28894 18.8703 18.8704 -8.94915
678 1 7.86195 20.4419 20.4419 -8.9495
679 1 9.4344 18.8705 18.8705 -8.94942
680 1 11.007 20.4419 20.4419 -8.94951
681 1 12.58 18.8705 18.8705 -8.94918
351 1 22.0138 12.5794 22.0137 -8.94956
353 1 3.14421 12.5794 22.0135 -8.94953
357 1 9.4342 12.5793 22.0141 -8.9491
359 1 12.5798 12.5795 22.0131 -8.9514
383 1 6.28937 18.8697 22.014 -8.94939
367 1 3.14438 15.7243 22.0136 -8.94993
369 1 6.28902 15.7248 22.0138 -8.95082
375 1 15.7252 15.7251 22.0133 -8.95004
381 1 3.14426 18.8696 22.0138 -8.94948
363 1 18.8697 12.5795 22.0137 -8.94951
379 1 22.0138 18.8693 22.0138 -8.94962
387 1 12.5796 18.8698 22.014 -8.94938
