ITEM: TIMESTEP
49
ITEM: NUMBER OF ATOMS
688
ITEM: BOX BOUNDS pp pp pp
0.0000000000000000e+00 2.2013900999999997e+01
0.0000000000000000e+00 2.2013900999999997e+01
0.0000000000000000e+00 2.2013900999999997e+01
ITEM: ATOMS id type x y z c_pot
1 1 22.0139 7.26631e-16 1.11292e-09 -8.94963
2 1 1.57242 1.57242 1.57242 -8.94963
189 1 20.4415 4.71726 11.007 -8.94963
4 1 4.71726 1.57242 1.57242 -8.94964
5 1 6.28969 1.62539e-15 -9.16143e-10 -8.94963
6 1 7.86211 1.57242 1.57242 -8.94963
175 1 18.8691 9.43451 9.43452 -8.94981
8 1 11.007 1.57242 1.57242 -8.94963
9 1 12.5794 -5.83672e-16 8.39009e-09 -8.94963
10 1 14.1518 1.57242 1.57242 -8.94963
174 1 15.7253 9.43414 9.43442 -8.95067
12 1 17.2966 1.57242 1.57242 -8.94963
188 1 17.2966 4.71727 11.0069 -8.94966
14 1 20.4415 1.57242 1.57242 -8.94963
181 1 17.2966 1.57242 11.007 -8.94963
16 1 1.57242 4.71726 1.57242 -8.94963
173 1 12.5891 9.4229 9.42431 -8.85888
18 1 4.71726 4.71726 1.57242 -8.94963
172 1 9.36012 9.26948 9.43152 -7.98624
20 1 7.86211 4.71726 1.57242 -8.94964
171 1 6.27362 9.42258 9.42319 -8.90243
22 1 11.007 4.71726 1.57242 -8.94964
177 1 4.71726 1.57242 11.007 -8.94963
24 1 14.1518 4.71727 1.57242 -8.94967
170 1 3.14367 9.43425 9.43424 -8.95247
26 1 17.2966 4.71726 1.57242 -8.94961
169 1 22.0138 9.43452 9.43452 -8.94987
28 1 20.4415 4.71726 1.57242 -8.94963
168 1 18.8691 6.28969 9.43453 -8.94962
30 1 1.57242 7.86211 1.57242 -8.94963
167 1 15.7242 6.28966 9.43453 -8.9496
32 1 4.71726 7.86211 1.57242 -8.94965
166 1 12.5795 6.2888 9.43423 -8.95211
34 1 7.86209 7.86208 1.57237 -8.94973
35 1 9.43453 6.28969 1.26305e-06 -8.94964
36 1 11.0069 7.8621 1.5724 -8.94964
37 1 12.5794 6.28969 4.16193e-06 -8.94964
38 1 14.1518 7.86207 1.57235 -8.94966
165 1 9.43416 6.28317 9.43467 -8.98126
40 1 17.2966 7.86211 1.57242 -8.94967
164 1 6.28902 6.28845 9.43423 -8.95215
42 1 20.4415 7.86211 1.57242 -8.94963
163 1 3.14482 6.28968 9.43454 -8.94989
162 1 2.28077e-07 6.28969 9.43453 -8.94964
45 1 6.28968 9.43453 9.85837e-07 -8.94966
161 1 18.8691 3.14484 9.43453 -8.94963
160 1 15.7242 3.14484 9.43453 -8.94962
48 1 15.7242 9.43453 9.27397e-07 -8.94963
159 1 12.5794 3.14478 9.43451 -8.9497
50 1 22.0139 4.99842e-16 3.14484 -8.94963
51 1 1.57242 1.57242 4.71726 -8.94963
52 1 3.14484 5.41157e-16 3.14484 -8.94963
53 1 4.71726 1.57242 4.71726 -8.94963
54 1 6.28969 1.14702e-15 3.14484 -8.94963
55 1 7.86211 1.57242 4.71727 -8.94963
56 1 9.43453 -1.34806e-16 3.14484 -8.94963
57 1 11.007 1.57242 4.71726 -8.94963
58 1 12.5794 4.88583e-16 3.14484 -8.94963
59 1 14.1518 1.57242 4.71726 -8.94964
60 1 15.7242 -1.92348e-16 3.14484 -8.94963
61 1 17.2966 1.57242 4.71726 -8.94963
62 1 18.8691 -7.25469e-16 3.14484 -8.94963
63 1 20.4415 1.57242 4.71726 -8.94963
64 1 22.0139 3.14484 3.14484 -8.94963
65 1 1.57242 4.71726 4.71726 -8.94961
66 1 3.14484 3.14484 3.14484 -8.94961
67 1 4.71721 4.71721 4.71721 -8.94926
68 1 6.28969 3.14485 3.14485 -8.94967
69 1 7.86212 4.71728 4.71728 -8.94997
70 1 9.43453 3.14484 3.14484 -8.94964
71 1 11.0069 4.71725 4.71724 -8.9496
72 1 12.5794 3.14484 3.14484 -8.94964
73 1 14.1518 4.7172 4.71724 -8.94968
74 1 15.7242 3.14484 3.14484 -8.94963
75 1 17.2966 4.71726 4.71726 -8.94964
76 1 18.8691 3.14484 3.14484 -8.94963
77 1 20.4415 4.71726 4.71726 -8.94963
78 1 22.0139 6.28969 3.14484 -8.94964
79 1 1.57242 7.86211 4.71727 -8.94967
80 1 3.14484 6.28968 3.14484 -8.94966
81 1 4.71723 7.86207 4.7172 -8.94991
82 1 6.28966 6.28966 3.14478 -8.94966
83 1 7.8618 7.8618 4.71639 -8.95119
84 1 9.43454 6.28966 3.14483 -8.94958
85 1 11.0068 7.86199 4.71688 -8.95129
86 1 12.5794 6.2897 3.14485 -8.94994
87 1 14.1527 7.8612 4.71635 -8.94437
88 1 15.7243 6.28963 3.14479 -8.94923
89 1 17.2967 7.86208 4.71724 -8.94973
90 1 18.8691 6.28968 3.14484 -8.94963
91 1 20.4415 7.86211 4.71726 -8.94964
92 1 1.12146e-07 9.43453 3.14484 -8.94963
93 1 3.14484 9.43453 3.14484 -8.94965
94 1 6.28966 9.43454 3.14478 -8.94991
95 1 9.43427 9.43426 3.1444 -8.94886
96 1 12.5797 9.43422 3.14398 -8.95125
97 1 15.7242 9.43453 3.14485 -8.94983
98 1 18.8691 9.43453 3.14484 -8.94963
99 1 22.0139 1.20507e-15 6.28969 -8.94963
100 1 1.57242 1.57242 7.86211 -8.94963
101 1 3.14484 9.18471e-16 6.28969 -8.94963
102 1 4.71726 1.57242 7.86211 -8.94963
103 1 6.28968 3.58123e-16 6.28968 -8.94965
104 1 7.8621 1.57238 7.8621 -8.9498
105 1 9.43453 1.69553e-16 6.28969 -8.94964
106 1 11.007 1.57239 7.8621 -8.94967
107 1 12.5794 6.99448e-16 6.28968 -8.94965
108 1 14.1518 1.57242 7.86211 -8.94964
109 1 15.7242 -9.02981e-16 6.28969 -8.94963
110 1 17.2966 1.57242 7.86211 -8.94963
111 1 18.8691 3.85822e-16 6.28969 -8.94963
112 1 20.4415 1.57242 7.86211 -8.94963
113 1 3.06003e-07 3.14484 6.28969 -8.94964
114 1 1.57242 4.71727 7.86211 -8.94967
115 1 3.14484 3.14484 6.28969 -8.94966
116 1 4.71724 4.71721 7.86208 -8.94988
117 1 6.28965 3.14478 6.28965 -8.94967
118 1 7.86183 4.7164 7.8618 -8.9514
119 1 9.43454 3.14482 6.28968 -8.94961
120 1 11.0072 4.71683 7.86184 -8.94912
121 1 12.5794 3.14479 6.28966 -8.94973
122 1 14.1518 4.71718 7.86209 -8.94976
123 1 15.7242 3.14484 6.28968 -8.94964
124 1 17.2966 4.71727 7.86211 -8.94968
125 1 18.8691 3.14484 6.28969 -8.94964
126 1 20.4415 4.71726 7.86211 -8.94963
127 1 22.0139 6.28968 6.28968 -8.94963
128 1 1.57232 7.86207 7.86207 -8.94982
129 1 3.14473 6.28961 6.28961 -8.94929
130 1 4.71561 7.86099 7.86101 -8.94599
131 1 6.28879 6.28879 6.28877 -8.94427
132 1 7.8507 7.85103 7.8505 -8.88257
133 1 9.43471 6.28932 6.28958 -8.95125
134 1 11.0105 7.85952 7.85747 -8.92856
135 1 12.5797 6.28886 6.28937 -8.95118
136 1 14.1531 7.86098 7.86137 -8.94468
137 1 15.7243 6.28963 6.28963 -8.94947
138 1 17.2967 7.86206 7.86208 -8.94972
139 1 18.8691 6.28968 6.28968 -8.94963
140 1 20.4415 7.8621 7.8621 -8.94966
141 1 22.0139 9.43453 6.28969 -8.94964
142 1 3.1448 9.43453 6.28966 -8.94985
143 1 6.28894 9.43434 6.28856 -8.95128
144 1 9.43112 9.43024 6.28728 -8.93118
145 1 12.5905 9.42376 6.27867 -8.89267
146 1 15.725 9.43433 6.2895 -8.95176
147 1 18.8691 9.43452 6.28968 -8.94978
148 1 -6.23297e-09 1.30731e-15 9.43453 -8.94963
149 1 3.14484 1.18707e-15 9.43453 -8.94963
150 1 6.28968 2.27529e-16 9.43453 -8.94965
151 1 9.43453 5.73358e-16 9.43453 -8.94987
152 1 12.5794 1.90988e-16 9.43453 -8.94965
153 1 15.7242 -4.36761e-17 9.43453 -8.94963
154 1 18.8691 4.36609e-16 9.43453 -8.94963
155 1 22.0139 3.14484 9.43453 -8.94963
156 1 3.14484 3.14484 9.43453 -8.94966
157 1 6.28965 3.14476 9.43451 -8.94965
158 1 9.43454 3.14435 9.43453 -8.95127
183 1 1.57242 4.71726 11.0069 -8.94964
184 1 4.71724 4.71725 11.007 -8.9498
11 1 15.7242 9.0517e-16 6.03932e-09 -8.94963
25 1 15.7242 3.14484 3.16736e-07 -8.94963
29 1 22.0139 6.28969 2.0167e-08 -8.94963
41 1 18.8691 6.28969 1.6036e-07 -8.94964
176 1 1.57242 1.57242 11.007 -8.94963
343 1 18.8691 9.43453 18.8691 -8.94963
178 1 7.86208 1.57235 11.007 -8.94982
179 1 11.007 1.57237 11.007 -8.94969
180 1 14.1518 1.57242 11.0069 -8.94965
342 1 15.7242 9.43453 18.8691 -8.94965
182 1 20.4415 1.57242 11.007 -8.94963
47 1 12.5794 9.43452 22.0139 -8.9498
46 1 9.43452 9.43452 22.0139 -8.94974
185 1 7.86156 4.71603 11.007 -8.9504
186 1 11.0075 4.71647 11.0069 -8.94808
187 1 14.1518 4.71721 11.0069 -8.94974
341 1 12.5794 9.43451 18.8692 -8.94981
340 1 9.43452 9.43453 18.8694 -8.95099
190 1 1.57236 7.86209 11.007 -8.94978
191 1 4.71616 7.86181 11.0073 -8.95331
192 1 7.84692 7.84966 11.0144 -8.86797
193 1 11.0148 7.85828 11.0075 -8.91086
194 1 14.1528 7.86152 11.007 -8.9518
195 1 17.2967 7.86206 11.007 -8.94959
196 1 20.4415 7.86211 11.007 -8.94965
197 1 -9.32955e-09 9.60552e-17 12.5794 -8.94963
198 1 1.57242 1.57242 14.1518 -8.94963
199 1 3.14484 2.80691e-16 12.5794 -8.94964
200 1 4.71726 1.57242 14.1518 -8.94963
201 1 6.28968 -8.33555e-17 12.5794 -8.94965
202 1 7.8621 1.57238 14.1518 -8.94979
203 1 9.43453 -6.19843e-17 12.5794 -8.94988
204 1 11.007 1.57238 14.1518 -8.94979
205 1 12.5794 1.20466e-15 12.5794 -8.94965
206 1 14.1518 1.57242 14.1518 -8.94964
207 1 15.7242 3.22021e-16 12.5794 -8.94964
208 1 17.2966 1.57242 14.1518 -8.94963
209 1 18.8691 3.4945e-16 12.5794 -8.94963
210 1 20.4415 1.57242 14.1518 -8.94963
211 1 22.0139 3.14484 12.5794 -8.94963
212 1 1.57242 4.71726 14.1518 -8.94963
213 1 3.14484 3.14484 12.5794 -8.94968
214 1 4.71722 4.71722 14.1518 -8.94954
215 1 6.28964 3.14476 12.5794 -8.94965
216 1 7.86182 4.71645 14.1521 -8.95146
217 1 9.43454 3.14433 12.5794 -8.95135
218 1 11.0072 4.71642 14.1521 -8.95107
219 1 12.5794 3.14477 12.5794 -8.94975
220 1 14.1518 4.71721 14.1518 -8.95
221 1 15.7242 3.14484 12.5794 -8.94965
222 1 17.2966 4.71727 14.1518 -8.94967
223 1 18.8691 3.14484 12.5794 -8.94963
224 1 20.4415 4.71726 14.1518 -8.94963
225 1 -2.53938e-06 6.28968 12.5794 -8.94964
226 1 1.57237 7.86208 14.1518 -8.94972
227 1 3.14477 6.28964 12.5794 -8.94965
228 1 4.71644 7.8618 14.1521 -8.95121
229 1 6.28872 6.28846 12.5801 -8.94587
230 1 7.85114 7.85142 14.1636 -8.89162
231 1 9.43472 6.28258 12.5798 -8.9801
232 1 11.0175 7.85163 14.1631 -8.88856
233 1 12.5798 6.2884 12.5795 -8.95355
234 1 14.1537 7.86073 14.1532 -8.9439
235 1 15.7242 6.28966 12.5794 -8.94976
236 1 17.2967 7.86207 14.1518 -8.9499
237 1 18.8691 6.28968 12.5794 -8.94962
238 1 20.4415 7.86211 14.1518 -8.94966
239 1 22.0139 9.43452 12.5794 -8.94967
240 1 3.14439 9.43428 12.5796 -8.94895
241 1 6.28703 9.43032 12.5833 -8.92757
242 1 9.43467 9.27718 12.6494 -8.07421
243 1 12.5941 9.41654 12.5968 -8.83775
244 1 15.7253 9.43423 12.5797 -8.95244
245 1 18.8691 9.43452 12.5794 -8.94985
246 1 22.0139 -2.85887e-17 15.7242 -8.94963
247 1 1.57242 1.57242 17.2966 -8.94963
248 1 3.14484 1.89775e-17 15.7242 -8.94963
249 1 4.71726 1.57242 17.2966 -8.94963
250 1 6.28968 -8.06587e-16 15.7242 -8.94965
251 1 7.86211 1.57242 17.2966 -8.94963
252 1 9.43453 3.84853e-17 15.7242 -8.94964
253 1 11.0069 1.57242 17.2966 -8.94963
254 1 12.5794 3.64707e-16 15.7242 -8.94965
255 1 14.1518 1.57242 17.2966 -8.94963
256 1 15.7242 2.99438e-16 15.7242 -8.94963
257 1 17.2966 1.57242 17.2966 -8.94963
258 1 18.8691 2.85315e-16 15.7242 -8.94963
259 1 20.4415 1.57242 17.2966 -8.94963
260 1 3.14331e-08 3.14484 15.7242 -8.94963
261 1 1.57242 4.71726 17.2966 -8.94963
262 1 3.14484 3.14484 15.7242 -8.94965
263 1 4.71721 4.71721 17.2967 -8.94923
264 1 6.28965 3.14478 15.7242 -8.94969
265 1 7.86211 4.71727 17.2966 -8.94985
266 1 9.43453 3.14481 15.7242 -8.94958
267 1 11.0069 4.71727 17.2966 -8.94985
268 1 12.5794 3.14478 15.7242 -8.94966
269 1 14.1518 4.71722 17.2967 -8.94928
270 1 15.7242 3.14484 15.7242 -8.94967
271 1 17.2966 4.71726 17.2966 -8.9496
272 1 18.8691 3.14484 15.7242 -8.94964
273 1 20.4415 4.71726 17.2966 -8.94963
274 1 22.0139 6.28968 15.7242 -8.94964
275 1 1.57242 7.86211 17.2966 -8.94964
276 1 3.14478 6.28966 15.7242 -8.94968
277 1 4.71726 7.8621 17.2966 -8.94984
278 1 6.28877 6.28879 15.7251 -8.94429
279 1 7.86187 7.86187 17.2975 -8.95157
280 1 9.43454 6.28924 15.7246 -8.95043
281 1 11.0072 7.86189 17.2974 -8.9515
282 1 12.5802 6.28883 15.7251 -8.9447
283 1 14.1518 7.86206 17.2967 -8.94988
284 1 15.7243 6.2896 15.7243 -8.94916
285 1 17.2966 7.86211 17.2966 -8.94967
286 1 18.8691 6.28968 15.7242 -8.94964
287 1 20.4415 7.86211 17.2966 -8.94963
288 1 22.0139 9.43453 15.7242 -8.94964
289 1 3.14482 9.43454 15.7242 -8.94977
290 1 6.28931 9.43458 15.7248 -8.94943
291 1 9.43425 9.43336 15.7301 -8.96381
292 1 12.58 9.43423 15.7257 -8.95123
293 1 15.7243 9.43454 15.7242 -8.94989
294 1 18.8691 9.43453 15.7242 -8.94963
295 1 6.99017e-09 9.31146e-17 18.8691 -8.94963
296 1 1.57242 1.57242 20.4415 -8.94963
297 1 3.14484 7.72105e-16 18.8691 -8.94963
298 1 4.71726 1.57242 20.4415 -8.94964
299 1 6.28969 5.05297e-16 18.8691 -8.94963
300 1 7.86211 1.57242 20.4415 -8.94963
301 1 9.43453 1.81426e-16 18.8691 -8.94963
302 1 11.007 1.57242 20.4415 -8.94963
303 1 12.5794 5.93751e-16 18.8691 -8.94963
304 1 14.1518 1.57242 20.4415 -8.94964
305 1 15.7242 1.94558e-16 18.8691 -8.94963
306 1 17.2966 1.57242 20.4415 -8.94963
307 1 18.8691 6.2612e-16 18.8691 -8.94963
308 1 20.4415 1.57242 20.4415 -8.94963
309 1 22.0139 3.14484 18.8691 -8.94963
310 1 1.57242 4.71726 20.4415 -8.94963
311 1 3.14484 3.14484 18.8691 -8.94961
312 1 4.71726 4.71726 20.4415 -8.94963
313 1 6.28969 3.14485 18.8691 -8.94967
314 1 7.86211 4.71726 20.4415 -8.94963
315 1 9.43453 3.14484 18.8691 -8.94965
316 1 11.007 4.71726 20.4415 -8.94963
317 1 12.5794 3.14485 18.8691 -8.94967
318 1 14.1518 4.71726 20.4415 -8.94963
319 1 15.7242 3.14484 18.8691 -8.94961
320 1 17.2966 4.71726 20.4415 -8.94963
321 1 18.8691 3.14484 18.8691 -8.94963
322 1 20.4415 4.71726 20.4415 -8.94963
323 1 22.0139 6.28969 18.8691 -8.94963
324 1 1.57242 7.86211 20.4415 -8.94963
325 1 3.14484 6.28969 18.8691 -8.94966
326 1 4.71726 7.86211 20.4415 -8.94963
327 1 6.28966 6.28966 18.8691 -8.9497
328 1 7.8621 7.8621 20.4415 -8.9498
329 1 9.43453 6.28967 18.8691 -8.94958
330 1 11.007 7.8621 20.4415 -8.94979
331 1 12.5794 6.28966 18.8691 -8.9497
332 1 14.1518 7.8621 20.4415 -8.94965
333 1 15.7242 6.28968 18.8691 -8.94965
334 1 17.2966 7.86211 20.4415 -8.94963
335 1 18.8691 6.28969 18.8691 -8.94964
336 1 20.4415 7.86211 20.4415 -8.94963
337 1 6.20575e-08 9.43453 18.8691 -8.94963
338 1 3.14484 9.43453 18.8691 -8.94965
339 1 6.28966 9.43453 18.8691 -8.94964
7 1 9.43453 1.06872e-15 22.0139 -8.94963
44 1 3.14484 9.43453 22.0139 -8.94963
17 1 3.14484 3.14484 22.0139 -8.94963
19 1 6.28969 3.14484 22.0139 -8.94963
21 1 9.43453 3.14484 22.0139 -8.94963
43 1 22.0139 9.43453 22.0139 -8.94963
27 1 18.8691 3.14484 22.0139 -8.94963
39 1 15.7242 6.28968 22.0139 -8.94963
31 1 3.14484 6.28969 22.0139 -8.94963
33 1 6.28968 6.28968 22.0139 -8.94964
3 1 3.14484 1.44555e-15 22.0139 -8.94963
13 1 18.8691 -1.26642e-16 22.0139 -8.94963
15 1 22.0139 3.14484 22.0139 -8.94963
23 1 12.5794 3.14484 22.0139 -8.94963
49 1 18.8691 9.43453 22.0139 -8.94963
344 1 1.57242 11.007 1.57242 -8.94964
345 1 4.71726 11.007 1.57242 -8.94962
346 1 7.86211 11.007 1.5724 -8.94972
347 1 11.0069 11.007 1.57191 -8.95146
348 1 14.1518 11.007 1.57239 -8.94957
349 1 17.2966 11.007 1.57242 -8.94965
350 1 20.4415 11.007 1.57242 -8.94963
688 3 10.2098 11.007 9.45109 2.71162
352 1 1.57242 14.1518 1.57242 -8.94963
511 1 18.8691 18.8691 9.43453 -8.94963
354 1 4.71726 14.1518 1.57242 -8.94965
355 1 6.28968 12.5794 9.85837e-07 -8.94966
356 1 7.86209 14.1518 1.57237 -8.94973
510 1 15.7242 18.8691 9.43453 -8.94962
358 1 11.0069 14.1518 1.5724 -8.94964
509 1 12.5794 18.8691 9.43451 -8.9497
360 1 14.1518 14.1518 1.57235 -8.94966
361 1 15.7242 12.5794 9.27397e-07 -8.94963
362 1 17.2966 14.1518 1.57242 -8.94967
538 1 17.2966 20.4415 11.007 -8.94963
364 1 20.4415 14.1518 1.57242 -8.94963
508 1 9.43454 18.8695 9.43453 -8.95127
366 1 1.57242 17.2966 1.57242 -8.94963
507 1 6.28965 18.8691 9.43451 -8.94965
368 1 4.71726 17.2966 1.57242 -8.94963
506 1 3.14484 18.8691 9.43453 -8.94966
370 1 7.86211 17.2966 1.57242 -8.94964
371 1 9.43453 15.7242 1.26305e-06 -8.94964
372 1 11.007 17.2966 1.57242 -8.94964
373 1 12.5794 15.7242 4.16193e-06 -8.94964
374 1 14.1518 17.2966 1.57242 -8.94967
505 1 22.0139 18.8691 9.43453 -8.94963
376 1 17.2966 17.2966 1.57242 -8.94961
504 1 18.8691 15.7242 9.43453 -8.94962
378 1 20.4415 17.2966 1.57242 -8.94963
534 1 4.71726 20.4415 11.007 -8.94963
380 1 1.57242 20.4415 1.57242 -8.94963
503 1 15.7242 15.7242 9.43453 -8.9496
382 1 4.71726 20.4415 1.57242 -8.94964
502 1 12.5795 15.7251 9.43423 -8.95211
384 1 7.86211 20.4415 1.57242 -8.94963
501 1 9.43416 15.7307 9.43467 -8.98126
386 1 11.007 20.4415 1.57242 -8.94963
532 1 20.4415 17.2966 11.007 -8.94963
388 1 14.1518 20.4415 1.57242 -8.94963
500 1 6.28902 15.7255 9.43423 -8.95215
390 1 17.2966 20.4415 1.57242 -8.94963
499 1 3.14482 15.7242 9.43454 -8.94989
392 1 20.4415 20.4415 1.57242 -8.94963
393 1 1.57242 11.007 4.71726 -8.94965
394 1 4.71724 11.007 4.71721 -8.94937
395 1 7.86224 11.007 4.71681 -8.95224
396 1 11.0073 11.007 4.71011 -8.9785
397 1 14.1522 11.007 4.71683 -8.95025
398 1 17.2967 11.007 4.71725 -8.94959
399 1 20.4415 11.007 4.71726 -8.94964
400 1 1.12146e-07 12.5794 3.14484 -8.94963
401 1 1.57242 14.1518 4.71727 -8.94967
402 1 3.14484 12.5794 3.14484 -8.94965
403 1 4.71723 14.1518 4.7172 -8.94991
404 1 6.28966 12.5794 3.14478 -8.94991
405 1 7.8618 14.1521 4.71639 -8.95119
406 1 9.43427 12.5796 3.1444 -8.94886
407 1 11.0068 14.1519 4.71688 -8.95129
408 1 12.5797 12.5797 3.14398 -8.95125
409 1 14.1527 14.1527 4.71635 -8.94437
410 1 15.7242 12.5794 3.14485 -8.94983
411 1 17.2967 14.1518 4.71724 -8.94973
412 1 18.8691 12.5794 3.14484 -8.94963
413 1 20.4415 14.1518 4.71726 -8.94964
414 1 22.0139 15.7242 3.14484 -8.94964
415 1 1.57242 17.2966 4.71726 -8.94961
416 1 3.14484 15.7242 3.14484 -8.94966
417 1 4.71721 17.2967 4.71721 -8.94926
418 1 6.28966 15.7242 3.14478 -8.94966
419 1 7.86212 17.2966 4.71728 -8.94997
420 1 9.43454 15.7242 3.14483 -8.94958
421 1 11.0069 17.2967 4.71724 -8.9496
422 1 12.5794 15.7242 3.14485 -8.94994
423 1 14.1518 17.2967 4.71724 -8.94968
424 1 15.7243 15.7243 3.14479 -8.94923
425 1 17.2966 17.2966 4.71726 -8.94964
426 1 18.8691 15.7242 3.14484 -8.94963
427 1 20.4415 17.2966 4.71726 -8.94963
428 1 22.0139 18.8691 3.14484 -8.94963
429 1 1.57242 20.4415 4.71726 -8.94963
430 1 3.14484 18.8691 3.14484 -8.94961
431 1 4.71726 20.4415 4.71726 -8.94963
432 1 6.28969 18.8691 3.14485 -8.94967
433 1 7.86211 20.4415 4.71727 -8.94963
434 1 9.43453 18.8691 3.14484 -8.94964
435 1 11.007 20.4415 4.71726 -8.94963
436 1 12.5794 18.8691 3.14484 -8.94964
437 1 14.1518 20.4415 4.71726 -8.94964
438 1 15.7242 18.8691 3.14484 -8.94963
439 1 17.2966 20.4415 4.71726 -8.94963
440 1 18.8691 18.8691 3.14484 -8.94963
441 1 20.4415 20.4415 4.71726 -8.94963
442 1 1.57235 11.007 7.86208 -8.94959
443 1 4.71637 11.007 7.86147 -8.9494
444 1 7.85983 11.007 7.85466 -8.92412
445 1 11.0767 11.007 7.70852 -8.1162
446 1 14.1573 11.007 7.86131 -8.96613
447 1 17.297 11.007 7.86209 -8.95075
448 1 20.4415 11.007 7.86211 -8.94972
449 1 22.0139 12.5794 6.28969 -8.94964
450 1 1.57232 14.1518 7.86207 -8.94982
451 1 3.1448 12.5794 6.28966 -8.94985
452 1 4.71561 14.1529 7.86101 -8.94599
453 1 6.28894 12.5796 6.28856 -8.95128
454 1 7.8507 14.1629 7.8505 -8.88257
455 1 9.43112 12.5837 6.28728 -8.93118
456 1 11.0105 14.1544 7.85747 -8.92856
457 1 12.5905 12.5901 6.27867 -8.89267
458 1 14.1531 14.1529 7.86137 -8.94468
459 1 15.725 12.5796 6.2895 -8.95176
460 1 17.2967 14.1518 7.86208 -8.94972
461 1 18.8691 12.5794 6.28968 -8.94978
462 1 20.4415 14.1518 7.8621 -8.94966
463 1 22.0139 15.7242 6.28968 -8.94963
464 1 1.57242 17.2966 7.86211 -8.94967
465 1 3.14473 15.7243 6.28961 -8.94929
466 1 4.71724 17.2967 7.86208 -8.94988
467 1 6.28879 15.7251 6.28877 -8.94427
468 1 7.86183 17.2975 7.8618 -8.9514
469 1 9.43471 15.7246 6.28958 -8.95125
470 1 11.0072 17.2971 7.86184 -8.94912
471 1 12.5797 15.725 6.28937 -8.95118
472 1 14.1518 17.2967 7.86209 -8.94976
473 1 15.7243 15.7243 6.28963 -8.94947
474 1 17.2966 17.2966 7.86211 -8.94968
475 1 18.8691 15.7242 6.28968 -8.94963
476 1 20.4415 17.2966 7.86211 -8.94963
477 1 3.06003e-07 18.8691 6.28969 -8.94964
478 1 1.57242 20.4415 7.86211 -8.94963
479 1 3.14484 18.8691 6.28969 -8.94966
480 1 4.71726 20.4415 7.86211 -8.94963
481 1 6.28965 18.8691 6.28965 -8.94967
482 1 7.8621 20.4415 7.8621 -8.9498
483 1 9.43454 18.8691 6.28968 -8.94961
484 1 11.007 20.4415 7.8621 -8.94967
485 1 12.5794 18.8691 6.28966 -8.94973
486 1 14.1518 20.4415 7.86211 -8.94964
487 1 15.7242 18.8691 6.28968 -8.94964
488 1 17.2966 20.4415 7.86211 -8.94963
489 1 18.8691 18.8691 6.28969 -8.94964
490 1 20.4415 20.4415 7.86211 -8.94963
491 1 22.0138 12.5794 9.43452 -8.94987
492 1 3.14367 12.5797 9.43424 -8.95247
493 1 6.27362 12.5913 9.42319 -8.90243
494 1 9.36012 12.7444 9.43152 -7.98624
495 1 12.5891 12.591 9.42431 -8.85888
496 1 15.7253 12.5798 9.43442 -8.95067
497 1 18.8691 12.5794 9.43452 -8.94981
498 1 2.28077e-07 15.7242 9.43453 -8.94964
513 1 4.71043 11.007 11.0068 -8.97933
514 1 7.69468 11.007 10.9357 -7.98158
531 1 17.2966 17.2966 11.0069 -8.94966
526 1 1.57242 17.2966 11.0069 -8.94964
527 1 4.71724 17.2966 11.007 -8.9498
389 1 15.7242 18.8691 3.16736e-07 -8.94963
365 1 22.0139 15.7242 2.0167e-08 -8.94963
377 1 18.8691 15.7242 1.6036e-07 -8.94964
512 1 1.5719 11.007 11.007 -8.95127
687 3 9.43789 11.007 11.7696 2.70134
686 1 20.4415 20.4415 20.4415 -8.94963
515 1 11.2633 11.007 11.0909 -7.19332
516 1 14.1561 11.007 11.0077 -8.99808
517 1 17.2971 11.007 11.007 -8.9505
518 1 20.4415 11.007 11.007 -8.94986
519 1 1.57236 14.1518 11.007 -8.94978
520 1 4.71616 14.1521 11.0073 -8.95331
521 1 7.84692 14.1642 11.0144 -8.86797
522 1 11.0148 14.1556 11.0075 -8.91086
523 1 14.1528 14.1524 11.007 -8.9518
524 1 17.2967 14.1518 11.007 -8.94959
525 1 20.4415 14.1518 11.007 -8.94965
391 1 18.8691 18.8691 22.0139 -8.94963
385 1 9.43453 18.8691 22.0139 -8.94963
528 1 7.86156 17.2979 11.007 -8.9504
529 1 11.0075 17.2974 11.0069 -8.94808
530 1 14.1518 17.2967 11.0069 -8.94974
685 1 18.8691 18.8691 18.8691 -8.94963
684 1 17.2966 20.4415 20.4415 -8.94963
533 1 1.57242 20.4415 11.007 -8.94963
683 1 15.7242 18.8691 18.8691 -8.94961
535 1 7.86208 20.4416 11.007 -8.94982
536 1 11.007 20.4415 11.007 -8.94969
537 1 14.1518 20.4415 11.0069 -8.94965
682 1 14.1518 20.4415 20.4415 -8.94964
539 1 20.4415 20.4415 11.007 -8.94963
540 1 1.57241 11.007 14.1518 -8.94963
541 1 4.71713 11.007 14.1517 -8.95098
542 1 7.86001 11.007 14.1528 -8.91136
543 1 11.0093 11.007 14.1622 -8.9541
544 1 14.1526 11.007 14.1524 -8.95161
545 1 17.2967 11.007 14.1518 -8.94957
546 1 20.4415 11.007 14.1518 -8.94964
547 1 22.0139 12.5794 12.5794 -8.94967
548 1 1.57237 14.1518 14.1518 -8.94972
549 1 3.14439 12.5796 12.5796 -8.94895
550 1 4.71644 14.1521 14.1521 -8.95121
551 1 6.28703 12.5836 12.5833 -8.92757
552 1 7.85114 14.1625 14.1636 -8.89162
553 1 9.43467 12.7367 12.6494 -8.07421
554 1 11.0175 14.1623 14.1631 -8.88856
555 1 12.5941 12.5974 12.5968 -8.83775
556 1 14.1537 14.1532 14.1532 -8.9439
557 1 15.7253 12.5797 12.5797 -8.95244
558 1 17.2967 14.1518 14.1518 -8.9499
559 1 18.8691 12.5794 12.5794 -8.94985
560 1 20.4415 14.1518 14.1518 -8.94966
561 1 -2.53938e-06 15.7242 12.5794 -8.94964
562 1 1.57242 17.2966 14.1518 -8.94963
563 1 3.14477 15.7243 12.5794 -8.94965
564 1 4.71722 17.2967 14.1518 -8.94954
565 1 6.28872 15.7254 12.5801 -8.94587
566 1 7.86182 17.2975 14.1521 -8.95146
567 1 9.43472 15.7313 12.5798 -8.9801
568 1 11.0072 17.2975 14.1521 -8.95107
569 1 12.5798 15.7255 12.5795 -8.95355
570 1 14.1518 17.2967 14.1518 -8.95
571 1 15.7242 15.7242 12.5794 -8.94976
572 1 17.2966 17.2966 14.1518 -8.94967
573 1 18.8691 15.7242 12.5794 -8.94962
574 1 20.4415 17.2966 14.1518 -8.94963
575 1 22.0139 18.8691 12.5794 -8.94963
576 1 1.57242 20.4415 14.1518 -8.94963
577 1 3.14484 18.8691 12.5794 -8.94968
578 1 4.71726 20.4415 14.1518 -8.94963
579 1 6.28964 18.8691 12.5794 -8.94965
580 1 7.8621 20.4415 14.1518 -8.94979
581 1 9.43454 18.8696 12.5794 -8.95135
582 1 11.007 20.4415 14.1518 -8.94979
583 1 12.5794 18.8691 12.5794 -8.94975
584 1 14.1518 20.4415 14.1518 -8.94964
585 1 15.7242 18.8691 12.5794 -8.94965
586 1 17.2966 20.4415 14.1518 -8.94963
587 1 18.8691 18.8691 12.5794 -8.94963
588 1 20.4415 20.4415 14.1518 -8.94963
589 1 1.57242 11.007 17.2966 -8.94962
590 1 4.71724 11.007 17.2966 -8.94941
591 1 7.86183 11.007 17.2971 -8.94825
592 1 11.0072 11.007 17.2977 -8.95061
593 1 14.1518 11.007 17.2967 -8.94945
594 1 17.2966 11.007 17.2966 -8.94965
595 1 20.4415 11.007 17.2966 -8.94963
596 1 22.0139 12.5794 15.7242 -8.94964
597 1 1.57242 14.1518 17.2966 -8.94964
598 1 3.14482 12.5794 15.7242 -8.94977
599 1 4.71726 14.1518 17.2966 -8.94984
600 1 6.28931 12.5793 15.7248 -8.94943
601 1 7.86187 14.152 17.2975 -8.95157
602 1 9.43425 12.5805 15.7301 -8.96381
603 1 11.0072 14.152 17.2974 -8.9515
604 1 12.58 12.5797 15.7257 -8.95123
605 1 14.1518 14.1518 17.2967 -8.94988
606 1 15.7243 12.5794 15.7242 -8.94989
607 1 17.2966 14.1518 17.2966 -8.94967
608 1 18.8691 12.5794 15.7242 -8.94963
609 1 20.4415 14.1518 17.2966 -8.94963
610 1 22.0139 15.7242 15.7242 -8.94964
611 1 1.57242 17.2966 17.2966 -8.94963
612 1 3.14478 15.7242 15.7242 -8.94968
613 1 4.71721 17.2967 17.2967 -8.94923
614 1 6.28877 15.7251 15.7251 -8.94429
615 1 7.86211 17.2966 17.2966 -8.94985
616 1 9.43454 15.7247 15.7246 -8.95043
617 1 11.0069 17.2966 17.2966 -8.94985
618 1 12.5802 15.7251 15.7251 -8.9447
619 1 14.1518 17.2967 17.2967 -8.94928
620 1 15.7243 15.7243 15.7243 -8.94916
621 1 17.2966 17.2966 17.2966 -8.9496
622 1 18.8691 15.7242 15.7242 -8.94964
623 1 20.4415 17.2966 17.2966 -8.94963
624 1 3.14331e-08 18.8691 15.7242 -8.94963
625 1 1.57242 20.4415 17.2966 -8.94963
626 1 3.14484 18.8691 15.7242 -8.94965
627 1 4.71726 20.4415 17.2966 -8.94963
628 1 6.28965 18.8691 15.7242 -8.94969
629 1 7.86211 20.4415 17.2966 -8.94963
630 1 9.43453 18.8691 15.7242 -8.94958
631 1 11.0069 20.4415 17.2966 -8.94963
632 1 12.5794 18.8691 15.7242 -8.94966
633 1 14.1518 20.4415 17.2966 -8.94963
634 1 15.7242 18.8691 15.7242 -8.94967
635 1 17.2966 20.4415 17.2966 -8.94963
636 1 18.8691 18.8691 15.7242 -8.94964
637 1 20.4415 20.4415 17.2966 -8.94963
638 1 1.57242 11.007 20.4415 -8.94963
639 1 4.71726 11.007 20.4415 -8.94963
640 1 7.86209 11.007 20.4415 -8.94966
641 1 11.007 11.007 20.4415 -8.94992
642 1 14.1518 11.007 20.4415 -8.94963
643 1 17.2966 11.007 20.4415 -8.94964
644 1 20.4415 11.007 20.4415 -8.94963
645 1 6.20575e-08 12.5794 18.8691 -8.94963
646 1 1.57242 14.1518 20.4415 -8.94963
647 1 3.14484 12.5794 18.8691 -8.94965
648 1 4.71726 14.1518 20.4415 -8.94963
649 1 6.28966 12.5794 18.8691 -8.94964
650 1 7.8621 14.1518 20.4415 -8.9498
651 1 9.43452 12.5794 18.8694 -8.95099
652 1 11.007 14.1518 20.4415 -8.94979
653 1 12.5794 12.5794 18.8692 -8.94981
654 1 14.1518 14.1518 20.4415 -8.94965
655 1 15.7242 12.5794 18.8691 -8.94965
656 1 17.2966 14.1518 20.4415 -8.94963
657 1 18.8691 12.5794 18.8691 -8.94963
658 1 20.4415 14.1518 20.4415 -8.94963
659 1 22.0139 15.7242 18.8691 -8.94963
660 1 1.57242 17.2966 20.4415 -8.94963
661 1 3.14484 15.7242 18.8691 -8.94966
662 1 4.71726 17.2966 20.4415 -8.94963
663 1 6.28966 15.7242 18.8691 -8.9497
664 1 7.86211 17.2966 20.4415 -8.94963
665 1 9.43453 15.7242 18.8691 -8.94958
666 1 11.007 17.2966 20.4415 -8.94963
667 1 12.5794 15.7242 18.8691 -8.9497
668 1 14.1518 17.2966 20.4415 -8.94963
669 1 15.7242 15.7242 18.8691 -8.94965
670 1 17.2966 17.2966 20.4415 -8.94963
671 1 18.8691 15.7242 18.8691 -8.94964
672 1 20.4415 17.2966 20.4415 -8.94963
673 1 22.0139 18.8691 18.8691 -8.94963
674 1 1.57242 20.4415 20.4415 -8.94963
675 1 3.14484 18.8691 18.8691 -8.94961
676 1 4.71726 20.4415 20.4415 -8.94964
677 1 6.28969 18.8691 18.8691 -8.94967
678 1 7.86211 20.4415 20.4415 -8.94963
679 1 9.43453 18.8691 18.8691 -8.94965
680 1 11.007 20.4415 20.4415 -8.94963
681 1 12.5794 18.8691 18.8691 -8.94967
351 1 22.0139 12.5794 22.0139 -8.94963
353 1 3.14484 12.5794 22.0139 -8.94963
357 1 9.43452 12.5794 22.0139 -8.94974
359 1 12.5794 12.5794 22.0139 -8.9498
383 1 6.28969 18.8691 22.0139 -8.94963
367 1 3.14484 15.7242 22.0139 -8.94963
369 1 6.28968 15.7242 22.0139 -8.94964
375 1 15.7242 15.7242 22.0139 -8.94963
381 1 3.14484 18.8691 22.0139 -8.94963
363 1 18.8691 12.5794 22.0139 -8.94963
379 1 22.0139 18.8691 22.0139 -8.94963
387 1 12.5794 18.8691 22.0139 -8.94963
