ITEM: TIMESTEP
51
ITEM: NUMBER OF ATOMS
688
ITEM: BOX BOUNDS pp pp pp
0.0000000000000000e+00 2.2013900999999997e+01
0.0000000000000000e+00 2.2013900999999997e+01
0.0000000000000000e+00 2.2013900999999997e+01
ITEM: ATOMS id type x y z c_pot
1 1 22.0139 9.16508e-16 4.18109e-09 -8.94963
2 1 1.57242 1.57242 1.57242 -8.94963
189 1 20.4415 4.71726 11.007 -8.94964
4 1 4.71726 1.57242 1.57242 -8.94964
5 1 6.28969 1.76366e-15 -7.32842e-09 -8.94963
6 1 7.86211 1.57242 1.57242 -8.94963
175 1 18.8692 9.4345 9.43452 -8.94986
8 1 11.007 1.57242 1.57242 -8.94963
9 1 12.5794 -5.95162e-16 1.72498e-08 -8.94963
10 1 14.1518 1.57242 1.57242 -8.94963
174 1 15.7256 9.43403 9.43442 -8.95068
12 1 17.2966 1.57242 1.57242 -8.94963
188 1 17.2966 4.71726 11.0069 -8.94967
14 1 20.4415 1.57242 1.57242 -8.94963
181 1 17.2966 1.57242 11.007 -8.94963
16 1 1.57242 4.71726 1.57242 -8.94964
173 1 12.5899 9.42093 9.42103 -8.85149
18 1 4.71726 4.71726 1.57241 -8.94962
172 1 9.35471 9.25608 9.43235 -7.98888
20 1 7.86211 4.71726 1.57242 -8.94963
171 1 6.26912 9.41894 9.41965 -8.89672
22 1 11.007 4.71726 1.57242 -8.94964
177 1 4.71726 1.57242 11.007 -8.94963
24 1 14.1518 4.71727 1.57243 -8.94969
170 1 3.14305 9.43415 9.43412 -8.95347
26 1 17.2966 4.71726 1.57242 -8.94959
169 1 22.0138 9.43451 9.43451 -8.95001
28 1 20.4415 4.71726 1.57242 -8.94963
168 1 18.8691 6.28968 9.43453 -8.94961
30 1 1.57242 7.86211 1.57242 -8.94964
167 1 15.7243 6.28961 9.43453 -8.94941
32 1 4.71726 7.86211 1.57241 -8.94966
166 1 12.5797 6.28837 9.43404 -8.95223
34 1 7.86207 7.86207 1.57232 -8.94982
35 1 9.43453 6.28968 1.75313e-06 -8.94964
36 1 11.0069 7.86208 1.57237 -8.94964
37 1 12.5794 6.28968 7.36655e-06 -8.94965
38 1 14.1519 7.86204 1.57229 -8.94971
165 1 9.43393 6.28307 9.43473 -8.98499
40 1 17.2966 7.86211 1.57242 -8.94968
164 1 6.28852 6.28763 9.43405 -8.95194
42 1 20.4415 7.86211 1.57242 -8.94963
163 1 3.14477 6.28964 9.43455 -8.94991
162 1 -2.4337e-06 6.28968 9.43453 -8.94964
45 1 6.28968 9.43453 1.01592e-06 -8.94967
161 1 18.8691 3.14484 9.43453 -8.94964
160 1 15.7242 3.14484 9.43453 -8.94962
48 1 15.7242 9.43453 -1.0223e-07 -8.94963
159 1 12.5794 3.14473 9.43449 -8.94972
50 1 22.0139 4.57977e-16 3.14484 -8.94963
51 1 1.57242 1.57242 4.71726 -8.94964
52 1 3.14484 5.50023e-16 3.14484 -8.94963
53 1 4.71726 1.57241 4.71726 -8.94962
54 1 6.28969 1.22208e-15 3.14484 -8.94964
55 1 7.86211 1.57242 4.71727 -8.94963
56 1 9.43453 -1.04e-16 3.14484 -8.94964
57 1 11.007 1.57242 4.71726 -8.94963
58 1 12.5794 6.66441e-16 3.14484 -8.94963
59 1 14.1518 1.57241 4.71726 -8.94964
60 1 15.7242 -8.34367e-17 3.14484 -8.94963
61 1 17.2966 1.57242 4.71726 -8.94963
62 1 18.8691 -7.6477e-16 3.14484 -8.94963
63 1 20.4415 1.57242 4.71726 -8.94963
64 1 22.0139 3.14484 3.14484 -8.94963
65 1 1.57241 4.71725 4.71725 -8.94958
66 1 3.14484 3.14484 3.14484 -8.94959
67 1 4.71716 4.71716 4.71716 -8.94902
68 1 6.28969 3.14485 3.14485 -8.9497
69 1 7.86213 4.71727 4.71727 -8.95002
70 1 9.43453 3.14484 3.14484 -8.94965
71 1 11.0069 4.71722 4.71721 -8.94953
72 1 12.5794 3.14484 3.14484 -8.94963
73 1 14.1519 4.71714 4.71721 -8.94971
74 1 15.7242 3.14483 3.14484 -8.94963
75 1 17.2966 4.71726 4.71726 -8.94964
76 1 18.8691 3.14484 3.14484 -8.94963
77 1 20.4415 4.71726 4.71726 -8.94963
78 1 22.0139 6.28969 3.14484 -8.94964
79 1 1.57242 7.86211 4.71726 -8.94968
80 1 3.14484 6.28968 3.14484 -8.94967
81 1 4.71719 7.86205 4.71713 -8.95005
82 1 6.28963 6.28963 3.14471 -8.94968
83 1 7.86163 7.8616 4.71588 -8.95172
84 1 9.43454 6.28963 3.14479 -8.9495
85 1 11.0067 7.86183 4.71655 -8.95119
86 1 12.5794 6.28968 3.14484 -8.94998
87 1 14.1532 7.86065 4.71579 -8.94274
88 1 15.7243 6.28958 3.14474 -8.94899
89 1 17.2967 7.86206 4.71722 -8.94979
90 1 18.8691 6.28968 3.14484 -8.94963
91 1 20.4415 7.86211 4.71726 -8.94965
92 1 2.20269e-07 9.43453 3.14484 -8.94963
93 1 3.14484 9.43453 3.14484 -8.94964
94 1 6.28964 9.43455 3.14472 -8.95
95 1 9.43419 9.43417 3.14421 -8.94879
96 1 12.5798 9.4341 3.14352 -8.95199
97 1 15.7242 9.43453 3.14483 -8.94981
98 1 18.8691 9.43453 3.14484 -8.94963
99 1 22.0139 1.15754e-15 6.28969 -8.94963
100 1 1.57242 1.57242 7.86211 -8.94964
101 1 3.14484 1.01541e-15 6.28969 -8.94963
102 1 4.71726 1.57241 7.8621 -8.94963
103 1 6.28968 3.04895e-16 6.28968 -8.94967
104 1 7.86209 1.57234 7.86209 -8.9499
105 1 9.43453 3.47511e-16 6.28968 -8.94964
106 1 11.007 1.57237 7.86209 -8.94969
107 1 12.5794 8.23158e-16 6.28968 -8.94966
108 1 14.1518 1.57241 7.86211 -8.94965
109 1 15.7242 -9.26294e-16 6.28969 -8.94963
110 1 17.2966 1.57242 7.86211 -8.94963
111 1 18.8691 5.21481e-16 6.28969 -8.94963
112 1 20.4415 1.57242 7.86211 -8.94963
113 1 5.69813e-07 3.14484 6.28969 -8.94964
114 1 1.57242 4.71727 7.86211 -8.94969
115 1 3.14484 3.14484 6.28968 -8.94967
116 1 4.71719 4.71713 7.86205 -8.94989
117 1 6.28963 3.14472 6.28962 -8.94973
118 1 7.86173 4.71595 7.86167 -8.95221
119 1 9.43455 3.14478 6.28966 -8.94958
120 1 11.0072 4.71664 7.86176 -8.94919
121 1 12.5794 3.14474 6.28965 -8.94981
122 1 14.1519 4.7171 7.86208 -8.94978
123 1 15.7242 3.14483 6.28968 -8.94964
124 1 17.2966 4.71727 7.86211 -8.94969
125 1 18.8691 3.14484 6.28969 -8.94964
126 1 20.4415 4.71726 7.86211 -8.94963
127 1 22.0139 6.28968 6.28968 -8.94964
128 1 1.57222 7.86203 7.86203 -8.94996
129 1 3.14463 6.28953 6.28953 -8.94907
130 1 4.7146 7.86031 7.86034 -8.94476
131 1 6.28825 6.28824 6.2882 -8.94243
132 1 7.84721 7.84759 7.84695 -8.87571
133 1 9.43481 6.28899 6.28941 -8.95097
134 1 11.0113 7.85884 7.85593 -8.92587
135 1 12.5799 6.28839 6.28918 -8.95165
136 1 14.1538 7.86041 7.86107 -8.94347
137 1 15.7243 6.28958 6.28959 -8.94934
138 1 17.2968 7.86202 7.86207 -8.94979
139 1 18.8691 6.28968 6.28968 -8.94963
140 1 20.4415 7.8621 7.8621 -8.94969
141 1 22.0139 9.43453 6.28968 -8.94965
142 1 3.14474 9.43453 6.28962 -8.94981
143 1 6.28861 9.4344 6.28801 -8.9522
144 1 9.43022 9.42887 6.28679 -8.92856
145 1 12.5938 9.4208 6.27534 -8.88889
146 1 15.7254 9.43423 6.28937 -8.95234
147 1 18.8691 9.43452 6.28967 -8.94986
148 1 -2.28195e-09 1.57644e-15 9.43453 -8.94963
149 1 3.14484 1.30809e-15 9.43453 -8.94964
150 1 6.28968 3.89039e-16 9.43452 -8.94967
151 1 9.43453 6.02541e-16 9.43453 -8.94994
152 1 12.5794 2.1529e-16 9.43452 -8.94966
153 1 15.7242 -2.3422e-16 9.43453 -8.94964
154 1 18.8691 4.81534e-16 9.43453 -8.94963
155 1 22.0139 3.14484 9.43453 -8.94963
156 1 3.14484 3.14484 9.43453 -8.94967
157 1 6.28961 3.14466 9.43449 -8.94969
158 1 9.43456 3.14417 9.43453 -8.95118
183 1 1.57242 4.71726 11.0069 -8.94964
184 1 4.71719 4.7172 11.007 -8.94971
11 1 15.7242 1.03323e-15 1.48926e-08 -8.94963
25 1 15.7242 3.14484 7.61762e-07 -8.94964
29 1 22.0139 6.28969 5.04503e-08 -8.94963
41 1 18.8691 6.28969 3.15996e-07 -8.94964
176 1 1.57242 1.57242 11.007 -8.94964
343 1 18.8691 9.43453 18.8691 -8.94963
178 1 7.86207 1.57229 11.0069 -8.94992
179 1 11.007 1.57232 11.007 -8.94971
180 1 14.1518 1.57242 11.0069 -8.94965
342 1 15.7242 9.43453 18.8691 -8.94964
182 1 20.4415 1.57242 11.007 -8.94963
47 1 12.5794 9.43451 22.0138 -8.9499
46 1 9.43451 9.43451 22.0139 -8.9498
185 1 7.86137 4.71543 11.007 -8.95112
186 1 11.0076 4.71614 11.0069 -8.94805
187 1 14.1519 4.71716 11.0069 -8.94968
341 1 12.5794 9.43451 18.8692 -8.94991
340 1 9.43451 9.43453 18.8696 -8.95125
190 1 1.5723 7.86207 11.007 -8.94985
191 1 4.71543 7.86155 11.0076 -8.95386
192 1 7.84218 7.84613 11.0168 -8.85864
193 1 11.0172 7.85754 11.0077 -8.90514
194 1 14.1533 7.86123 11.0069 -8.95209
195 1 17.2968 7.86202 11.007 -8.94958
196 1 20.4415 7.8621 11.007 -8.94967
197 1 -6.092e-09 5.03193e-17 12.5794 -8.94963
198 1 1.57242 1.57242 14.1518 -8.94964
199 1 3.14484 4.87189e-16 12.5794 -8.94964
200 1 4.71726 1.57241 14.1518 -8.94962
201 1 6.28968 -1.14867e-16 12.5794 -8.94967
202 1 7.86209 1.57234 14.1518 -8.94988
203 1 9.43453 2.65513e-17 12.5794 -8.94996
204 1 11.007 1.57234 14.1518 -8.94988
205 1 12.5794 1.46522e-15 12.5794 -8.94967
206 1 14.1518 1.57241 14.1518 -8.94964
207 1 15.7242 4.08176e-16 12.5794 -8.94964
208 1 17.2966 1.57242 14.1518 -8.94963
209 1 18.8691 3.6593e-16 12.5794 -8.94963
210 1 20.4415 1.57242 14.1518 -8.94963
211 1 22.0139 3.14484 12.5794 -8.94963
212 1 1.57241 4.71726 14.1518 -8.94963
213 1 3.14484 3.14484 12.5794 -8.9497
214 1 4.71717 4.71716 14.1519 -8.94934
215 1 6.2896 3.14467 12.5794 -8.94969
216 1 7.86172 4.71601 14.1522 -8.95219
217 1 9.43455 3.14411 12.5794 -8.95135
218 1 11.0074 4.71596 14.1523 -8.95168
219 1 12.5794 3.14468 12.5794 -8.94985
220 1 14.1519 4.71712 14.1518 -8.95009
221 1 15.7242 3.14484 12.5794 -8.94966
222 1 17.2966 4.71726 14.1518 -8.94968
223 1 18.8691 3.14484 12.5794 -8.94964
224 1 20.4415 4.71726 14.1518 -8.94963
225 1 -7.76846e-06 6.28968 12.5794 -8.94965
226 1 1.57232 7.86207 14.1518 -8.9498
227 1 3.14468 6.28958 12.5794 -8.94962
228 1 4.71596 7.86162 14.1523 -8.95169
229 1 6.28805 6.28764 12.5805 -8.94397
230 1 7.84809 7.84832 14.1672 -8.88743
231 1 9.43483 6.28203 12.5801 -8.98312
232 1 11.0203 7.84843 14.1667 -8.88223
233 1 12.5801 6.28754 12.5796 -8.95427
234 1 14.1548 7.85985 14.154 -8.94162
235 1 15.7243 6.28961 12.5794 -8.94976
236 1 17.2968 7.86203 14.1519 -8.95011
237 1 18.8691 6.28968 12.5794 -8.94962
238 1 20.4415 7.8621 14.1518 -8.94968
239 1 22.0138 9.43451 12.5794 -8.9497
240 1 3.14418 9.43421 12.5797 -8.94895
241 1 6.28637 9.4291 12.5845 -8.92407
242 1 9.43534 9.26503 12.6527 -8.08825
243 1 12.5986 9.41074 12.6025 -8.82352
244 1 15.7258 9.43414 12.5798 -8.95345
245 1 18.8692 9.43451 12.5794 -8.94997
246 1 22.0139 -5.48078e-17 15.7242 -8.94963
247 1 1.57242 1.57242 17.2966 -8.94964
248 1 3.14484 1.81628e-16 15.7242 -8.94963
249 1 4.71726 1.57241 17.2966 -8.94963
250 1 6.28968 -8.74641e-16 15.7242 -8.94967
251 1 7.86211 1.57242 17.2966 -8.94963
252 1 9.43453 -2.55336e-17 15.7242 -8.94964
253 1 11.0069 1.57242 17.2966 -8.94963
254 1 12.5794 5.73735e-16 15.7242 -8.94966
255 1 14.1518 1.57241 17.2966 -8.94962
256 1 15.7242 5.66794e-16 15.7242 -8.94964
257 1 17.2966 1.57242 17.2966 -8.94964
258 1 18.8691 1.95514e-16 15.7242 -8.94963
259 1 20.4415 1.57242 17.2966 -8.94963
260 1 -8.85389e-08 3.14484 15.7242 -8.94963
261 1 1.57241 4.71726 17.2966 -8.94963
262 1 3.14484 3.14484 15.7242 -8.94965
263 1 4.71716 4.71716 17.2967 -8.94898
264 1 6.28963 3.14472 15.7243 -8.94976
265 1 7.86211 4.71725 17.2967 -8.94982
266 1 9.43453 3.14476 15.7243 -8.94954
267 1 11.007 4.71725 17.2967 -8.94984
268 1 12.5794 3.14472 15.7243 -8.9497
269 1 14.1519 4.71717 17.2967 -8.94907
270 1 15.7242 3.14484 15.7242 -8.94969
271 1 17.2967 4.71725 17.2966 -8.94957
272 1 18.8691 3.14484 15.7242 -8.94964
273 1 20.4415 4.71726 17.2966 -8.94963
274 1 22.0139 6.28968 15.7242 -8.94964
275 1 1.57242 7.86211 17.2966 -8.94965
276 1 3.14472 6.28963 15.7243 -8.94971
277 1 4.71724 7.8621 17.2967 -8.94993
278 1 6.28821 6.28824 15.7257 -8.94265
279 1 7.86174 7.86173 17.2979 -8.9522
280 1 9.43454 6.28886 15.725 -8.94959
281 1 11.0073 7.86175 17.2979 -8.9521
282 1 12.5808 6.28831 15.7256 -8.94309
283 1 14.1519 7.86203 17.2968 -8.95
284 1 15.7245 6.2895 15.7244 -8.94885
285 1 17.2966 7.86211 17.2966 -8.94969
286 1 18.8691 6.28968 15.7242 -8.94965
287 1 20.4415 7.86211 17.2966 -8.94963
288 1 22.0139 9.43453 15.7242 -8.94965
289 1 3.1448 9.43456 15.7243 -8.94978
290 1 6.28919 9.43476 15.725 -8.94971
291 1 9.43412 9.43291 15.7315 -8.96487
292 1 12.5803 9.43422 15.7266 -8.95224
293 1 15.7243 9.43454 15.7243 -8.94985
294 1 18.8691 9.43453 15.7242 -8.94963
295 1 1.34176e-08 3.40733e-17 18.8691 -8.94963
296 1 1.57242 1.57242 20.4415 -8.94963
297 1 3.14484 7.45092e-16 18.8691 -8.94963
298 1 4.71726 1.57242 20.4415 -8.94964
299 1 6.28969 6.34555e-16 18.8691 -8.94963
300 1 7.86211 1.57242 20.4415 -8.94963
301 1 9.43453 3.2211e-16 18.8691 -8.94964
302 1 11.007 1.57242 20.4415 -8.94963
303 1 12.5794 7.72482e-16 18.8691 -8.94963
304 1 14.1518 1.57242 20.4415 -8.94964
305 1 15.7242 2.72208e-16 18.8691 -8.94963
306 1 17.2966 1.57242 20.4415 -8.94963
307 1 18.8691 7.55539e-16 18.8691 -8.94963
308 1 20.4415 1.57242 20.4415 -8.94963
309 1 22.0139 3.14484 18.8691 -8.94963
310 1 1.57242 4.71726 20.4415 -8.94964
311 1 3.14484 3.14484 18.8691 -8.94959
312 1 4.71726 4.71726 20.4415 -8.94963
313 1 6.28969 3.14485 18.8691 -8.94968
314 1 7.86211 4.71726 20.4415 -8.94963
315 1 9.43453 3.14484 18.8691 -8.94967
316 1 11.007 4.71726 20.4415 -8.94963
317 1 12.5794 3.14485 18.8691 -8.94968
318 1 14.1518 4.71726 20.4415 -8.94963
319 1 15.7242 3.14484 18.8691 -8.94959
320 1 17.2966 4.71726 20.4415 -8.94963
321 1 18.8691 3.14484 18.8691 -8.94963
322 1 20.4415 4.71726 20.4415 -8.94963
323 1 22.0139 6.28969 18.8691 -8.94963
324 1 1.57242 7.86211 20.4415 -8.94963
325 1 3.14484 6.28969 18.8691 -8.94968
326 1 4.71726 7.86211 20.4415 -8.94963
327 1 6.28963 6.28963 18.8692 -8.94974
328 1 7.86209 7.86209 20.4415 -8.9499
329 1 9.43453 6.28965 18.8691 -8.94954
330 1 11.007 7.86209 20.4415 -8.94988
331 1 12.5794 6.28964 18.8692 -8.94974
332 1 14.1518 7.8621 20.4415 -8.94966
333 1 15.7242 6.28968 18.8691 -8.94967
334 1 17.2966 7.86211 20.4415 -8.94964
335 1 18.8691 6.28969 18.8691 -8.94964
336 1 20.4415 7.86211 20.4415 -8.94963
337 1 3.04038e-09 9.43453 18.8691 -8.94963
338 1 3.14484 9.43453 18.8691 -8.94965
339 1 6.28964 9.43453 18.8691 -8.94963
7 1 9.43453 1.18719e-15 22.0139 -8.94963
44 1 3.14484 9.43453 22.0139 -8.94963
17 1 3.14484 3.14484 22.0139 -8.94963
19 1 6.28969 3.14484 22.0139 -8.94963
21 1 9.43453 3.14484 22.0139 -8.94964
43 1 22.0139 9.43453 22.0139 -8.94963
27 1 18.8691 3.14484 22.0139 -8.94963
39 1 15.7242 6.28968 22.0139 -8.94962
31 1 3.14484 6.28969 22.0139 -8.94964
33 1 6.28968 6.28968 22.0139 -8.94966
3 1 3.14484 1.57429e-15 22.0139 -8.94963
13 1 18.8691 -2.60583e-17 22.0139 -8.94963
15 1 22.0139 3.14484 22.0139 -8.94963
23 1 12.5794 3.14484 22.0139 -8.94963
49 1 18.8691 9.43453 22.0139 -8.94963
344 1 1.57242 11.007 1.57242 -8.94964
345 1 4.71726 11.007 1.57241 -8.94962
346 1 7.8621 11.007 1.57238 -8.94971
347 1 11.0069 11.007 1.57172 -8.95154
348 1 14.1518 11.007 1.57234 -8.94953
349 1 17.2966 11.007 1.57242 -8.94967
350 1 20.4415 11.007 1.57242 -8.94963
688 3 10.2063 11.007 9.45588 2.57901
352 1 1.57242 14.1518 1.57242 -8.94964
511 1 18.8691 18.8691 9.43453 -8.94964
354 1 4.71726 14.1518 1.57241 -8.94966
355 1 6.28968 12.5794 1.01592e-06 -8.94967
356 1 7.86207 14.1518 1.57232 -8.94982
510 1 15.7242 18.8691 9.43453 -8.94962
358 1 11.0069 14.1518 1.57237 -8.94964
509 1 12.5794 18.8692 9.43449 -8.94972
360 1 14.1519 14.1519 1.57229 -8.94971
361 1 15.7242 12.5794 -1.0223e-07 -8.94963
362 1 17.2966 14.1518 1.57242 -8.94968
538 1 17.2966 20.4415 11.007 -8.94963
364 1 20.4415 14.1518 1.57242 -8.94963
508 1 9.43456 18.8697 9.43453 -8.95118
366 1 1.57242 17.2966 1.57242 -8.94964
507 1 6.28961 18.8692 9.43449 -8.94969
368 1 4.71726 17.2966 1.57241 -8.94962
506 1 3.14484 18.8691 9.43453 -8.94967
370 1 7.86211 17.2966 1.57242 -8.94963
371 1 9.43453 15.7242 1.75313e-06 -8.94964
372 1 11.007 17.2966 1.57242 -8.94964
373 1 12.5794 15.7242 7.36655e-06 -8.94965
374 1 14.1518 17.2966 1.57243 -8.94969
505 1 22.0139 18.8691 9.43453 -8.94963
376 1 17.2966 17.2966 1.57242 -8.94959
504 1 18.8691 15.7242 9.43453 -8.94961
378 1 20.4415 17.2966 1.57242 -8.94963
534 1 4.71726 20.4415 11.007 -8.94963
380 1 1.57242 20.4415 1.57242 -8.94963
503 1 15.7243 15.7243 9.43453 -8.94941
382 1 4.71726 20.4415 1.57242 -8.94964
502 1 12.5797 15.7255 9.43404 -8.95223
384 1 7.86211 20.4415 1.57242 -8.94963
501 1 9.43393 15.7308 9.43473 -8.98499
386 1 11.007 20.4415 1.57242 -8.94963
532 1 20.4415 17.2966 11.007 -8.94964
388 1 14.1518 20.4415 1.57242 -8.94963
500 1 6.28852 15.7263 9.43405 -8.95194
390 1 17.2966 20.4415 1.57242 -8.94963
499 1 3.14477 15.7243 9.43455 -8.94991
392 1 20.4415 20.4415 1.57242 -8.94963
393 1 1.57242 11.007 4.71726 -8.94965
394 1 4.71718 11.007 4.71712 -8.94914
395 1 7.8623 11.007 4.71663 -8.95219
396 1 11.0075 11.007 4.7096 -8.98139
397 1 14.1525 11.007 4.71645 -8.9494
398 1 17.2967 11.007 4.71723 -8.94957
399 1 20.4415 11.007 4.71726 -8.94964
400 1 2.20269e-07 12.5794 3.14484 -8.94963
401 1 1.57242 14.1518 4.71726 -8.94968
402 1 3.14484 12.5794 3.14484 -8.94964
403 1 4.71719 14.1519 4.71713 -8.95005
404 1 6.28964 12.5794 3.14472 -8.95
405 1 7.86163 14.1523 4.71588 -8.95172
406 1 9.43419 12.5797 3.14421 -8.94879
407 1 11.0067 14.1521 4.71655 -8.95119
408 1 12.5798 12.5798 3.14352 -8.95199
409 1 14.1532 14.1532 4.71579 -8.94274
410 1 15.7242 12.5794 3.14483 -8.94981
411 1 17.2967 14.1518 4.71722 -8.94979
412 1 18.8691 12.5794 3.14484 -8.94963
413 1 20.4415 14.1518 4.71726 -8.94965
414 1 22.0139 15.7242 3.14484 -8.94964
415 1 1.57241 17.2966 4.71725 -8.94958
416 1 3.14484 15.7242 3.14484 -8.94967
417 1 4.71716 17.2967 4.71716 -8.94902
418 1 6.28963 15.7243 3.14471 -8.94968
419 1 7.86213 17.2966 4.71727 -8.95002
420 1 9.43454 15.7243 3.14479 -8.9495
421 1 11.0069 17.2967 4.71721 -8.94953
422 1 12.5794 15.7242 3.14484 -8.94998
423 1 14.1519 17.2968 4.71721 -8.94971
424 1 15.7243 15.7243 3.14474 -8.94899
425 1 17.2966 17.2966 4.71726 -8.94964
426 1 18.8691 15.7242 3.14484 -8.94963
427 1 20.4415 17.2966 4.71726 -8.94963
428 1 22.0139 18.8691 3.14484 -8.94963
429 1 1.57242 20.4415 4.71726 -8.94964
430 1 3.14484 18.8691 3.14484 -8.94959
431 1 4.71726 20.4415 4.71726 -8.94962
432 1 6.28969 18.8691 3.14485 -8.9497
433 1 7.86211 20.4415 4.71727 -8.94963
434 1 9.43453 18.8691 3.14484 -8.94965
435 1 11.007 20.4415 4.71726 -8.94963
436 1 12.5794 18.8691 3.14484 -8.94963
437 1 14.1518 20.4415 4.71726 -8.94964
438 1 15.7242 18.8691 3.14484 -8.94963
439 1 17.2966 20.4415 4.71726 -8.94963
440 1 18.8691 18.8691 3.14484 -8.94963
441 1 20.4415 20.4415 4.71726 -8.94963
442 1 1.57228 11.007 7.86204 -8.94951
443 1 4.71592 11.007 7.86102 -8.94777
444 1 7.86131 11.007 7.85461 -8.92399
445 1 11.0802 11.007 7.69851 -8.1353
446 1 14.1587 11.007 7.86086 -8.96693
447 1 17.2972 11.007 7.86208 -8.95096
448 1 20.4415 11.007 7.8621 -8.94976
449 1 22.0139 12.5794 6.28968 -8.94965
450 1 1.57222 14.1519 7.86203 -8.94996
451 1 3.14474 12.5794 6.28962 -8.94981
452 1 4.7146 14.1536 7.86034 -8.94476
453 1 6.28861 12.5795 6.28801 -8.9522
454 1 7.84721 14.1663 7.84695 -8.87571
455 1 9.43022 12.585 6.28679 -8.92856
456 1 11.0113 14.1551 7.85593 -8.92587
457 1 12.5938 12.5931 6.27534 -8.88889
458 1 14.1538 14.1535 7.86107 -8.94347
459 1 15.7254 12.5797 6.28937 -8.95234
460 1 17.2968 14.1519 7.86207 -8.94979
461 1 18.8691 12.5794 6.28967 -8.94986
462 1 20.4415 14.1518 7.8621 -8.94969
463 1 22.0139 15.7242 6.28968 -8.94964
464 1 1.57242 17.2966 7.86211 -8.94969
465 1 3.14463 15.7244 6.28953 -8.94907
466 1 4.71719 17.2968 7.86205 -8.94989
467 1 6.28825 15.7257 6.2882 -8.94243
468 1 7.86173 17.298 7.86167 -8.95221
469 1 9.43481 15.7249 6.28941 -8.95097
470 1 11.0072 17.2973 7.86176 -8.94919
471 1 12.5799 15.7255 6.28918 -8.95165
472 1 14.1519 17.2968 7.86208 -8.94978
473 1 15.7243 15.7243 6.28959 -8.94934
474 1 17.2966 17.2966 7.86211 -8.94969
475 1 18.8691 15.7242 6.28968 -8.94963
476 1 20.4415 17.2966 7.86211 -8.94963
477 1 5.69813e-07 18.8691 6.28969 -8.94964
478 1 1.57242 20.4415 7.86211 -8.94964
479 1 3.14484 18.8691 6.28968 -8.94967
480 1 4.71726 20.4415 7.8621 -8.94963
481 1 6.28963 18.8692 6.28962 -8.94973
482 1 7.86209 20.4416 7.86209 -8.9499
483 1 9.43455 18.8691 6.28966 -8.94958
484 1 11.007 20.4415 7.86209 -8.94969
485 1 12.5794 18.8692 6.28965 -8.94981
486 1 14.1518 20.4415 7.86211 -8.94965
487 1 15.7242 18.8691 6.28968 -8.94964
488 1 17.2966 20.4415 7.86211 -8.94963
489 1 18.8691 18.8691 6.28969 -8.94964
490 1 20.4415 20.4415 7.86211 -8.94963
491 1 22.0138 12.5794 9.43451 -8.95001
492 1 3.14305 12.5798 9.43412 -8.95347
493 1 6.26912 12.595 9.41965 -8.89672
494 1 9.35471 12.7578 9.43235 -7.98888
495 1 12.5899 12.593 9.42103 -8.85149
496 1 15.7256 12.5799 9.43442 -8.95068
497 1 18.8692 12.5794 9.43452 -8.94986
498 1 -2.4337e-06 15.7242 9.43453 -8.94964
513 1 4.7102 11.007 11.0067 -8.98298
514 1 7.67963 11.007 10.9295 -7.98742
531 1 17.2966 17.2966 11.0069 -8.94967
526 1 1.57242 17.2966 11.0069 -8.94964
527 1 4.71719 17.2967 11.007 -8.94971
389 1 15.7242 18.8691 7.61762e-07 -8.94964
365 1 22.0139 15.7242 5.04503e-08 -8.94963
377 1 18.8691 15.7242 3.15996e-07 -8.94964
512 1 1.5717 11.007 11.007 -8.95121
687 3 9.44064 11.007 11.7618 2.56025
686 1 20.4415 20.4415 20.4415 -8.94963
515 1 11.288 11.007 11.0978 -7.20756
516 1 14.156 11.007 11.0081 -9.00424
517 1 17.2972 11.007 11.0069 -8.95031
518 1 20.4415 11.007 11.007 -8.94992
519 1 1.5723 14.1518 11.007 -8.94985
520 1 4.71543 14.1523 11.0076 -8.95386
521 1 7.84218 14.1678 11.0168 -8.85864
522 1 11.0172 14.1564 11.0077 -8.90514
523 1 14.1533 14.1527 11.0069 -8.95209
524 1 17.2968 14.1519 11.007 -8.94958
525 1 20.4415 14.1518 11.007 -8.94967
391 1 18.8691 18.8691 22.0139 -8.94963
385 1 9.43453 18.8691 22.0139 -8.94964
528 1 7.86137 17.2985 11.007 -8.95112
529 1 11.0076 17.2978 11.0069 -8.94805
530 1 14.1519 17.2967 11.0069 -8.94968
685 1 18.8691 18.8691 18.8691 -8.94963
684 1 17.2966 20.4415 20.4415 -8.94963
533 1 1.57242 20.4415 11.007 -8.94964
683 1 15.7242 18.8691 18.8691 -8.94959
535 1 7.86207 20.4416 11.0069 -8.94992
536 1 11.007 20.4416 11.007 -8.94971
537 1 14.1518 20.4415 11.0069 -8.94965
682 1 14.1518 20.4415 20.4415 -8.94964
539 1 20.4415 20.4415 11.007 -8.94963
540 1 1.5724 11.007 14.1518 -8.94957
541 1 4.7171 11.007 14.1517 -8.95057
542 1 7.86103 11.007 14.1508 -8.91107
543 1 11.0086 11.007 14.1626 -8.95716
544 1 14.153 11.007 14.1528 -8.95032
545 1 17.2968 11.007 14.1519 -8.9495
546 1 20.4415 11.007 14.1518 -8.94965
547 1 22.0138 12.5794 12.5794 -8.9497
548 1 1.57232 14.1518 14.1518 -8.9498
549 1 3.14418 12.5797 12.5797 -8.94895
550 1 4.71596 14.1523 14.1523 -8.95169
551 1 6.28637 12.5848 12.5845 -8.92407
552 1 7.84809 14.1656 14.1672 -8.88743
553 1 9.43534 12.7489 12.6527 -8.08825
554 1 11.0203 14.1655 14.1667 -8.88223
555 1 12.5986 12.6032 12.6025 -8.82352
556 1 14.1548 14.1541 14.154 -8.94162
557 1 15.7258 12.5798 12.5798 -8.95345
558 1 17.2968 14.1519 14.1519 -8.95011
559 1 18.8692 12.5794 12.5794 -8.94997
560 1 20.4415 14.1518 14.1518 -8.94968
561 1 -7.76846e-06 15.7242 12.5794 -8.94965
562 1 1.57241 17.2966 14.1518 -8.94963
563 1 3.14468 15.7243 12.5794 -8.94962
564 1 4.71717 17.2967 14.1519 -8.94934
565 1 6.28805 15.7263 12.5805 -8.94397
566 1 7.86172 17.2979 14.1522 -8.95219
567 1 9.43483 15.7319 12.5801 -8.98312
568 1 11.0074 17.2979 14.1523 -8.95168
569 1 12.5801 15.7264 12.5796 -8.95427
570 1 14.1519 17.2968 14.1518 -8.95009
571 1 15.7243 15.7243 12.5794 -8.94976
572 1 17.2966 17.2966 14.1518 -8.94968
573 1 18.8691 15.7242 12.5794 -8.94962
574 1 20.4415 17.2966 14.1518 -8.94963
575 1 22.0139 18.8691 12.5794 -8.94963
576 1 1.57242 20.4415 14.1518 -8.94964
577 1 3.14484 18.8691 12.5794 -8.9497
578 1 4.71726 20.4415 14.1518 -8.94962
579 1 6.2896 18.8692 12.5794 -8.94969
580 1 7.86209 20.4416 14.1518 -8.94988
581 1 9.43455 18.8698 12.5794 -8.95135
582 1 11.007 20.4416 14.1518 -8.94988
583 1 12.5794 18.8692 12.5794 -8.94985
584 1 14.1518 20.4415 14.1518 -8.94964
585 1 15.7242 18.8691 12.5794 -8.94966
586 1 17.2966 20.4415 14.1518 -8.94963
587 1 18.8691 18.8691 12.5794 -8.94964
588 1 20.4415 20.4415 14.1518 -8.94963
589 1 1.57241 11.007 17.2966 -8.94962
590 1 4.71719 11.007 17.2967 -8.94922
591 1 7.86171 11.007 17.2972 -8.94728
592 1 11.0073 11.007 17.2981 -8.95026
593 1 14.1519 11.007 17.2968 -8.94924
594 1 17.2966 11.007 17.2966 -8.94966
595 1 20.4415 11.007 17.2966 -8.94964
596 1 22.0139 12.5794 15.7242 -8.94965
597 1 1.57242 14.1518 17.2966 -8.94965
598 1 3.1448 12.5793 15.7243 -8.94978
599 1 4.71724 14.1518 17.2967 -8.94993
600 1 6.28919 12.5791 15.725 -8.94971
601 1 7.86174 14.1522 17.2979 -8.9522
602 1 9.43412 12.581 15.7315 -8.96487
603 1 11.0073 14.1522 17.2979 -8.9521
604 1 12.5803 12.5797 15.7266 -8.95224
605 1 14.1519 14.1519 17.2968 -8.95
606 1 15.7243 12.5794 15.7243 -8.94985
607 1 17.2966 14.1518 17.2966 -8.94969
608 1 18.8691 12.5794 15.7242 -8.94963
609 1 20.4415 14.1518 17.2966 -8.94963
610 1 22.0139 15.7242 15.7242 -8.94964
611 1 1.57241 17.2966 17.2966 -8.94963
612 1 3.14472 15.7243 15.7243 -8.94971
613 1 4.71716 17.2967 17.2967 -8.94898
614 1 6.28821 15.7257 15.7257 -8.94265
615 1 7.86211 17.2967 17.2967 -8.94982
616 1 9.43454 15.725 15.725 -8.94959
617 1 11.007 17.2967 17.2967 -8.94984
618 1 12.5808 15.7256 15.7256 -8.94309
619 1 14.1519 17.2967 17.2967 -8.94907
620 1 15.7245 15.7244 15.7244 -8.94885
621 1 17.2967 17.2966 17.2966 -8.94957
622 1 18.8691 15.7242 15.7242 -8.94965
623 1 20.4415 17.2966 17.2966 -8.94963
624 1 -8.85389e-08 18.8691 15.7242 -8.94963
625 1 1.57242 20.4415 17.2966 -8.94964
626 1 3.14484 18.8691 15.7242 -8.94965
627 1 4.71726 20.4415 17.2966 -8.94963
628 1 6.28963 18.8692 15.7243 -8.94976
629 1 7.86211 20.4415 17.2966 -8.94963
630 1 9.43453 18.8691 15.7243 -8.94954
631 1 11.0069 20.4415 17.2966 -8.94963
632 1 12.5794 18.8692 15.7243 -8.9497
633 1 14.1518 20.4415 17.2966 -8.94962
634 1 15.7242 18.8691 15.7242 -8.94969
635 1 17.2966 20.4415 17.2966 -8.94964
636 1 18.8691 18.8691 15.7242 -8.94964
637 1 20.4415 20.4415 17.2966 -8.94963
638 1 1.57242 11.007 20.4415 -8.94964
639 1 4.71726 11.007 20.4415 -8.94963
640 1 7.86208 11.007 20.4415 -8.94962
641 1 11.007 11.007 20.4415 -8.95
642 1 14.1518 11.007 20.4415 -8.94964
643 1 17.2966 11.007 20.4415 -8.94964
644 1 20.4415 11.007 20.4415 -8.94963
645 1 3.04038e-09 12.5794 18.8691 -8.94963
646 1 1.57242 14.1518 20.4415 -8.94963
647 1 3.14484 12.5794 18.8691 -8.94965
648 1 4.71726 14.1518 20.4415 -8.94963
649 1 6.28964 12.5794 18.8691 -8.94963
650 1 7.86209 14.1518 20.4415 -8.9499
651 1 9.43451 12.5794 18.8696 -8.95125
652 1 11.007 14.1518 20.4415 -8.94988
653 1 12.5794 12.5794 18.8692 -8.94991
654 1 14.1518 14.1518 20.4415 -8.94966
655 1 15.7242 12.5794 18.8691 -8.94964
656 1 17.2966 14.1518 20.4415 -8.94964
657 1 18.8691 12.5794 18.8691 -8.94963
658 1 20.4415 14.1518 20.4415 -8.94963
659 1 22.0139 15.7242 18.8691 -8.94963
660 1 1.57242 17.2966 20.4415 -8.94964
661 1 3.14484 15.7242 18.8691 -8.94968
662 1 4.71726 17.2966 20.4415 -8.94963
663 1 6.28963 15.7243 18.8692 -8.94974
664 1 7.86211 17.2966 20.4415 -8.94963
665 1 9.43453 15.7243 18.8691 -8.94954
666 1 11.007 17.2966 20.4415 -8.94963
667 1 12.5794 15.7243 18.8692 -8.94974
668 1 14.1518 17.2966 20.4415 -8.94963
669 1 15.7242 15.7242 18.8691 -8.94967
670 1 17.2966 17.2966 20.4415 -8.94963
671 1 18.8691 15.7242 18.8691 -8.94964
672 1 20.4415 17.2966 20.4415 -8.94963
673 1 22.0139 18.8691 18.8691 -8.94963
674 1 1.57242 20.4415 20.4415 -8.94963
675 1 3.14484 18.8691 18.8691 -8.94959
676 1 4.71726 20.4415 20.4415 -8.94964
677 1 6.28969 18.8691 18.8691 -8.94968
678 1 7.86211 20.4415 20.4415 -8.94963
679 1 9.43453 18.8691 18.8691 -8.94967
680 1 11.007 20.4415 20.4415 -8.94963
681 1 12.5794 18.8691 18.8691 -8.94968
351 1 22.0139 12.5794 22.0139 -8.94963
353 1 3.14484 12.5794 22.0139 -8.94963
357 1 9.43451 12.5794 22.0139 -8.9498
359 1 12.5794 12.5794 22.0138 -8.9499
383 1 6.28969 18.8691 22.0139 -8.94963
367 1 3.14484 15.7242 22.0139 -8.94964
369 1 6.28968 15.7242 22.0139 -8.94966
375 1 15.7242 15.7242 22.0139 -8.94962
381 1 3.14484 18.8691 22.0139 -8.94963
363 1 18.8691 12.5794 22.0139 -8.94963
379 1 22.0139 18.8691 22.0139 -8.94963
387 1 12.5794 18.8691 22.0139 -8.94963
