ITEM: TIMESTEP
62
ITEM: NUMBER OF ATOMS
688
ITEM: BOX BOUNDS pp pp pp
0.0000000000000000e+00 2.2013900999999997e+01
0.0000000000000000e+00 2.2013900999999997e+01
0.0000000000000000e+00 2.2013900999999997e+01
ITEM: ATOMS id type x y z c_pot
1 1 22.0139 7.81108e-16 3.31992e-06 -8.94949
2 1 1.5723 1.57233 1.57233 -8.94942
189 1 20.4415 4.71696 11.007 -8.94957
4 1 4.71722 1.57232 1.57233 -8.94969
5 1 6.28967 2.13288e-15 1.58208e-06 -8.94963
6 1 7.86209 1.5723 1.57231 -8.9496
175 1 18.8703 9.43421 9.4345 -8.94982
8 1 11.007 1.57229 1.5723 -8.94962
9 1 12.5794 5.0552e-17 -1.60321e-06 -8.94963
10 1 14.1518 1.57231 1.57234 -8.94957
174 1 15.7292 9.43318 9.433 -8.94995
12 1 17.2968 1.57228 1.57233 -8.94957
188 1 17.2975 4.71647 11.0068 -8.94911
14 1 20.4415 1.57238 1.57238 -8.94956
181 1 17.2969 1.57222 11.0069 -8.94958
16 1 1.57226 4.71715 1.57221 -8.94973
173 1 12.5959 9.40835 9.39423 -8.81611
18 1 4.7168 4.71676 1.57176 -8.94963
172 1 9.34353 9.20638 9.44894 -7.98906
20 1 7.862 4.71677 1.57193 -8.94928
171 1 6.24484 9.39207 9.39471 -8.8729
22 1 11.007 4.71673 1.57196 -8.94943
177 1 4.71656 1.5715 11.007 -8.94937
24 1 14.152 4.7168 1.57207 -8.94984
170 1 3.13519 9.43374 9.43259 -8.95995
26 1 17.2972 4.71672 1.5719 -8.94874
169 1 22.0122 9.43452 9.43449 -8.95143
28 1 20.4416 4.71717 1.57232 -8.94962
168 1 18.8698 6.28908 9.43449 -8.94944
30 1 1.57225 7.86206 1.57221 -8.94948
167 1 15.7267 6.28741 9.43409 -8.94713
32 1 4.71696 7.86212 1.57176 -8.95004
166 1 12.5815 6.2831 9.43042 -8.95192
34 1 7.86185 7.86179 1.57096 -8.95179
35 1 9.43441 6.28916 1.70021e-05 -8.94975
36 1 11.0066 7.86145 1.57094 -8.95024
37 1 12.5795 6.28926 4.22886e-05 -8.94992
38 1 14.1528 7.8611 1.57017 -8.9511
165 1 9.42978 6.29396 9.43715 -9.00216
40 1 17.2972 7.86188 1.57194 -8.94944
164 1 6.2788 6.27439 9.43087 -8.95041
42 1 20.4416 7.86207 1.5723 -8.94958
163 1 3.14066 6.2871 9.4343 -8.9486
162 1 -0.000860756 6.28918 9.43454 -8.9497
45 1 6.28939 9.43461 -0.000142438 -8.9497
161 1 18.8692 3.14461 9.43449 -8.94959
160 1 15.7249 3.14395 9.43438 -8.94925
48 1 15.7248 9.43437 -0.000380116 -8.9494
159 1 12.5798 3.14316 9.43425 -8.9508
50 1 22.0138 3.34554e-16 3.1448 -8.94961
51 1 1.57221 1.57221 4.71711 -8.94959
52 1 3.14469 1.08992e-15 3.14467 -8.9496
53 1 4.71692 1.57185 4.71683 -8.94987
54 1 6.28966 9.11765e-16 3.14469 -8.94957
55 1 7.86211 1.57193 4.71689 -8.94949
56 1 9.43454 7.31275e-16 3.14466 -8.94961
57 1 11.0071 1.57193 4.71686 -8.94949
58 1 12.5794 1.63295e-15 3.14467 -8.94953
59 1 14.152 1.57197 4.71706 -8.95018
60 1 15.7243 2.32683e-16 3.14473 -8.94981
61 1 17.2968 1.57226 4.71718 -8.9496
62 1 18.8691 2.00798e-17 3.14482 -8.94962
63 1 20.4415 1.57237 4.71724 -8.94966
64 1 22.0137 3.14465 3.14465 -8.94936
65 1 1.57125 4.71634 4.71633 -8.94849
66 1 3.14429 3.14427 3.14425 -8.94872
67 1 4.71475 4.71452 4.7144 -8.94553
68 1 6.28957 3.14434 3.14439 -8.94968
69 1 7.86188 4.71528 4.71566 -8.94886
70 1 9.43455 3.14426 3.14436 -8.94956
71 1 11.0073 4.71535 4.71579 -8.94786
72 1 12.5795 3.14429 3.14445 -8.94925
73 1 14.1532 4.71456 4.71568 -8.95031
74 1 15.7246 3.14413 3.1444 -8.94962
75 1 17.2974 4.71651 4.71677 -8.94914
76 1 18.8692 3.14467 3.14472 -8.94955
77 1 20.4414 4.71702 4.71707 -8.94967
78 1 22.0138 6.2896 3.14464 -8.94972
79 1 1.57164 7.86196 4.71657 -8.94946
80 1 3.14415 6.2893 3.14387 -8.95021
81 1 4.71519 7.86133 4.71388 -8.95247
82 1 6.28832 6.28818 3.14187 -8.95034
83 1 7.85907 7.85816 4.70875 -8.95557
84 1 9.43434 6.28812 3.1428 -8.94818
85 1 11.0063 7.85925 4.71113 -8.9513
86 1 12.5796 6.28836 3.14304 -8.94962
87 1 14.1609 7.85316 4.70712 -8.93671
88 1 15.7266 6.28724 3.14226 -8.94608
89 1 17.2991 7.86096 4.71597 -8.95039
90 1 18.8697 6.28932 3.14444 -8.94968
91 1 20.4418 7.86193 4.71696 -8.94983
92 1 -0.000111577 9.43448 3.14457 -8.94958
93 1 3.14412 9.43443 3.14384 -8.94898
94 1 6.28935 9.4351 3.1429 -8.95118
95 1 9.43446 9.43424 3.14326 -8.94803
96 1 12.5812 9.43338 3.13781 -8.95765
97 1 15.7262 9.43382 3.1427 -8.94817
98 1 18.8697 9.43442 3.14442 -8.94944
99 1 22.0138 3.2468e-16 6.28967 -8.94963
100 1 1.5722 1.57223 7.86206 -8.94957
101 1 3.14458 1.12999e-15 6.28951 -8.94969
102 1 4.71671 1.57149 7.86179 -8.94999
103 1 6.28952 1.2219e-15 6.28939 -8.95032
104 1 7.86214 1.57113 7.86187 -8.95108
105 1 9.43466 1.36072e-15 6.28936 -8.95001
106 1 11.007 1.5718 7.86195 -8.94952
107 1 12.5795 1.00531e-15 6.28954 -8.95002
108 1 14.1521 1.57183 7.86196 -8.95002
109 1 15.7244 3.15589e-16 6.28959 -8.94972
110 1 17.2968 1.57224 7.86206 -8.94953
111 1 18.8691 6.1933e-17 6.28967 -8.94961
112 1 20.4415 1.57236 7.86209 -8.94962
113 1 -0.0001887 3.14465 6.28962 -8.94964
114 1 1.5714 4.71649 7.86189 -8.9495
115 1 3.14398 3.14368 6.28905 -8.94944
116 1 4.71406 4.71254 7.85996 -8.94893
117 1 6.28892 3.14233 6.28856 -8.95118
118 1 7.86108 4.71011 7.86075 -8.95824
119 1 9.43487 3.14281 6.28873 -8.94979
120 1 11.006 4.71519 7.86195 -8.95153
121 1 12.5795 3.14333 6.28939 -8.95147
122 1 14.1533 4.71424 7.8612 -8.94969
123 1 15.7248 3.14398 6.28941 -8.94951
124 1 17.2973 4.71657 7.86198 -8.94937
125 1 18.8692 3.14467 6.28964 -8.94961
126 1 20.4415 4.717 7.86206 -8.94956
127 1 22.0129 6.28915 6.28918 -8.95021
128 1 1.56847 7.86096 7.86096 -8.95284
129 1 3.13969 6.28583 6.28579 -8.94559
130 1 4.69874 7.84888 7.84909 -8.93712
131 1 6.27985 6.279 6.27869 -8.93214
132 1 7.8267 7.82727 7.82807 -8.85665
133 1 9.43452 6.28297 6.28567 -8.9467
134 1 11.0141 7.85412 7.84263 -8.91081
135 1 12.583 6.28217 6.28482 -8.95377
136 1 14.1628 7.85253 7.85471 -8.93529
137 1 15.7274 6.28674 6.28768 -8.94685
138 1 17.2994 7.86094 7.86178 -8.95097
139 1 18.8697 6.2892 6.28943 -8.9499
140 1 20.4414 7.86179 7.86196 -8.95055
141 1 22.0133 9.43442 6.28913 -8.94954
142 1 3.14187 9.43441 6.28722 -8.94779
143 1 6.28563 9.43561 6.2813 -8.9609
144 1 9.42519 9.41931 6.28922 -8.91688
145 1 12.6102 9.40944 6.25599 -8.89766
146 1 15.7322 9.43237 6.28622 -8.9546
147 1 18.8707 9.43428 6.28924 -8.95077
148 1 -7.13292e-05 1.49777e-15 9.43452 -8.94964
149 1 3.14451 1.20799e-15 9.43447 -8.94951
150 1 6.28932 9.56042e-16 9.43442 -8.95056
151 1 9.4347 1.35468e-15 9.43437 -8.94896
152 1 12.5796 9.96578e-16 9.43441 -8.94995
153 1 15.7245 5.41477e-16 9.43445 -8.94959
154 1 18.8691 1.10874e-15 9.43452 -8.94963
155 1 22.0137 3.14462 9.43451 -8.94957
156 1 3.14398 3.14385 9.43445 -8.94925
157 1 6.2884 3.14111 9.43431 -8.95147
158 1 9.43472 3.14362 9.43434 -8.94602
183 1 1.57133 4.71648 11.0071 -8.94928
184 1 4.71408 4.71355 11.0074 -8.94676
11 1 15.7242 1.20014e-15 5.65942e-06 -8.94965
25 1 15.7243 3.14466 4.31919e-05 -8.94966
29 1 22.0139 6.28967 -2.80086e-05 -8.94959
41 1 18.8692 6.28963 -6.88474e-05 -8.94962
176 1 1.57217 1.57222 11.007 -8.9496
343 1 18.8693 9.4345 18.8693 -8.94957
178 1 7.86209 1.57093 11.0069 -8.95103
179 1 11.0071 1.57157 11.0068 -8.94938
180 1 14.1523 1.57177 11.0067 -8.94942
342 1 15.7251 9.43437 18.8701 -8.94899
182 1 20.4415 1.57235 11.007 -8.94963
47 1 12.5796 9.43442 22.0131 -8.95127
46 1 9.43432 9.43454 22.0139 -8.9496
185 1 7.86046 4.70958 11.0083 -8.95877
186 1 11.0067 4.71469 11.0067 -8.95091
187 1 14.1535 4.71485 11.0059 -8.9475
341 1 12.58 9.43471 18.8721 -8.95168
340 1 9.43406 9.43478 18.8719 -8.95094
190 1 1.56917 7.86132 11.0075 -8.95168
191 1 4.7029 7.85649 11.0095 -8.95708
192 1 7.80713 7.82582 11.0318 -8.81798
193 1 11.0406 7.85476 11.0135 -8.87087
194 1 14.1606 7.85845 11.0052 -8.95543
195 1 17.2992 7.86107 11.0067 -8.95002
196 1 20.4415 7.86178 11.007 -8.95022
197 1 -6.85782e-05 1.10717e-15 12.5794 -8.94964
198 1 1.5722 1.57225 14.1519 -8.94961
199 1 3.14452 1.26587e-15 12.5794 -8.94951
200 1 4.71665 1.57154 14.1522 -8.94979
201 1 6.28932 9.82708e-16 12.5795 -8.95069
202 1 7.86205 1.57108 14.1521 -8.95078
203 1 9.43465 1.3234e-15 12.5794 -8.94952
204 1 11.0071 1.57093 14.1522 -8.95099
205 1 12.5797 1.21481e-15 12.5793 -8.95059
206 1 14.1523 1.57151 14.152 -8.95029
207 1 15.7245 6.23943e-16 12.5793 -8.94956
208 1 17.2968 1.57225 14.1518 -8.94962
209 1 18.8691 1.11547e-15 12.5794 -8.94962
210 1 20.4415 1.57236 14.1518 -8.94962
211 1 22.0137 3.14462 12.5794 -8.94956
212 1 1.57131 4.71655 14.1523 -8.94931
213 1 3.14397 3.14389 12.5796 -8.94933
214 1 4.71359 4.71319 14.1547 -8.94475
215 1 6.28824 3.14106 12.58 -8.95162
216 1 7.86115 4.71025 14.1543 -8.95671
217 1 9.43487 3.14237 12.5797 -8.94759
218 1 11.0079 4.7093 14.1548 -8.95579
219 1 12.5802 3.14158 12.5792 -8.95265
220 1 14.1547 4.71224 14.1537 -8.95015
221 1 15.7248 3.14401 12.5792 -8.9495
222 1 17.2976 4.71651 14.1519 -8.94974
223 1 18.8692 3.14462 12.5794 -8.94953
224 1 20.4415 4.71702 14.1519 -8.94963
225 1 -0.000819576 6.28921 12.5797 -8.94992
226 1 1.5708 7.862 14.1523 -8.95158
227 1 3.14061 6.28729 12.581 -8.94905
228 1 4.70903 7.85823 14.1569 -8.95313
229 1 6.27686 6.27418 12.5896 -8.93198
230 1 7.83474 7.83154 14.1882 -8.88777
231 1 9.43579 6.28686 12.585 -8.99193
232 1 11.0326 7.82881 14.1907 -8.8718
233 1 12.5865 6.27435 12.5839 -8.9568
234 1 14.1714 7.84548 14.1685 -8.92791
235 1 15.7273 6.2872 12.5793 -8.94942
236 1 17.301 7.86064 14.1533 -8.95289
237 1 18.8698 6.28916 12.5794 -8.94957
238 1 20.4419 7.86193 14.152 -8.95057
239 1 22.0134 9.43456 12.5797 -8.94978
240 1 3.14225 9.43513 12.5799 -8.95087
241 1 6.28101 9.41798 12.5931 -8.90019
242 1 9.438 9.2396 12.6481 -8.18902
243 1 12.6227 9.37815 12.6377 -8.7841
244 1 15.734 9.432 12.5828 -8.95735
245 1 18.871 9.43441 12.5796 -8.95129
246 1 22.0138 -5.42697e-16 15.7242 -8.94964
247 1 1.57223 1.57228 17.2968 -8.94948
248 1 3.14457 7.74083e-17 15.7244 -8.94955
249 1 4.7169 1.5719 17.2971 -8.94989
250 1 6.28947 8.34217e-16 15.7245 -8.95019
251 1 7.86195 1.57185 17.2971 -8.94941
252 1 9.43451 8.32583e-16 15.7247 -8.95
253 1 11.0071 1.57183 17.2971 -8.94943
254 1 12.5796 8.27812e-16 15.7246 -8.95021
255 1 14.1522 1.57184 17.2971 -8.94977
256 1 15.7245 1.57183e-15 15.7244 -8.94981
257 1 17.2969 1.57219 17.2968 -8.94963
258 1 18.8691 1.20012e-16 15.7242 -8.94965
259 1 20.4415 1.57237 17.2967 -8.94965
260 1 -0.000207826 3.14466 15.7243 -8.94954
261 1 1.57171 4.71684 17.2971 -8.9496
262 1 3.14395 3.14395 15.7249 -8.94868
263 1 4.7147 4.71482 17.2994 -8.94595
264 1 6.28876 3.14255 15.7254 -8.95108
265 1 7.86127 4.71505 17.2989 -8.94785
266 1 9.43443 3.14218 15.7257 -8.94927
267 1 11.0075 4.71496 17.2989 -8.94813
268 1 12.5803 3.14218 15.7255 -8.95065
269 1 14.1542 4.71453 17.2994 -8.94587
270 1 15.7251 3.14358 15.7248 -8.94968
271 1 17.298 4.71618 17.2977 -8.94812
272 1 18.8692 3.14465 15.7243 -8.94971
273 1 20.4416 4.71706 17.2968 -8.94975
274 1 22.0135 6.28949 15.7245 -8.95027
275 1 1.57214 7.86225 17.2969 -8.94961
276 1 3.14201 6.28831 15.726 -8.95015
277 1 4.71641 7.8626 17.2979 -8.95149
278 1 6.28023 6.28037 15.7351 -8.93602
279 1 7.85982 7.85946 17.305 -8.95708
280 1 9.43383 6.28154 15.7328 -8.94199
281 1 11.0081 7.85897 17.306 -8.95642
282 1 12.5883 6.27913 15.7353 -8.93391
283 1 14.154 7.8608 17.3009 -8.95225
284 1 15.73 6.28505 15.7288 -8.94384
285 1 17.2975 7.86198 17.2974 -8.94946
286 1 18.8702 6.28911 15.7248 -8.95027
287 1 20.4416 7.86209 17.2968 -8.94953
288 1 22.0138 9.43456 15.7245 -8.94943
289 1 3.1442 9.43521 15.7248 -8.94888
290 1 6.28978 9.43804 15.7263 -8.95456
291 1 9.43353 9.42877 15.7341 -8.96883
292 1 12.5826 9.43431 15.7374 -8.96096
293 1 15.7272 9.43434 15.727 -8.94786
294 1 18.87 9.43449 15.7248 -8.9493
295 1 -4.41908e-05 2.0085e-16 18.8691 -8.9496
296 1 1.57231 1.57233 20.4416 -8.9494
297 1 3.14468 7.55882e-16 18.8692 -8.94962
298 1 4.71721 1.57232 20.4416 -8.94964
299 1 6.28961 1.48834e-15 18.8693 -8.94952
300 1 7.86208 1.5723 20.4416 -8.94962
301 1 9.43452 6.24645e-16 18.8693 -8.94958
302 1 11.007 1.57229 20.4416 -8.94962
303 1 12.5794 1.5427e-15 18.8693 -8.94954
304 1 14.1519 1.57231 20.4416 -8.94964
305 1 15.7244 4.06909e-16 18.8692 -8.94957
306 1 17.2967 1.57233 20.4416 -8.94948
307 1 18.8691 6.66013e-16 18.8691 -8.94962
308 1 20.4415 1.57237 20.4415 -8.9495
309 1 22.0138 3.14472 18.8692 -8.94956
310 1 1.57232 4.71723 20.4415 -8.94979
311 1 3.14428 3.14431 18.8696 -8.94871
312 1 4.7168 4.71682 20.4421 -8.94975
313 1 6.28944 3.1443 18.8696 -8.9494
314 1 7.86193 4.71676 20.4421 -8.94933
315 1 9.4345 3.14425 18.8696 -8.94956
316 1 11.007 4.71675 20.4421 -8.94939
317 1 12.5796 3.14427 18.8696 -8.94945
318 1 14.1522 4.71678 20.4421 -8.94963
319 1 15.7247 3.14427 18.8696 -8.9488
320 1 17.2969 4.71705 20.4416 -8.94965
321 1 18.8693 3.14462 18.8693 -8.94927
322 1 20.4415 4.71725 20.4415 -8.94969
323 1 22.0139 6.28969 18.8691 -8.94967
324 1 1.57229 7.86209 20.4415 -8.94952
325 1 3.14448 6.28967 18.8694 -8.95018
326 1 4.71699 7.86218 20.4417 -8.94966
327 1 6.28838 6.28848 18.8717 -8.95081
328 1 7.86176 7.86185 20.4429 -8.95151
329 1 9.4343 6.2882 18.8718 -8.94899
330 1 11.0069 7.86173 20.443 -8.95146
331 1 12.5804 6.2883 18.8719 -8.95045
332 1 14.1523 7.86185 20.442 -8.95036
333 1 15.725 6.28913 18.8701 -8.95017
334 1 17.2969 7.86202 20.4416 -8.94944
335 1 18.8693 6.28964 18.8692 -8.94969
336 1 20.4415 7.86209 20.4415 -8.94962
337 1 -8.926e-05 9.43451 18.8692 -8.94961
338 1 3.14437 9.43452 18.8695 -8.94918
339 1 6.28913 9.4351 18.8701 -8.94947
7 1 9.43453 1.59771e-15 22.0139 -8.94964
44 1 3.1446 9.43449 22.0138 -8.94956
17 1 3.14466 3.14465 22.0139 -8.94952
19 1 6.28963 3.14465 22.0139 -8.94952
21 1 9.43452 3.14462 22.0139 -8.94959
43 1 22.0139 9.43452 22.0139 -8.94964
27 1 18.8692 3.14473 22.0138 -8.94944
39 1 15.7247 6.28928 22.0135 -8.94986
31 1 3.14469 6.28966 22.0138 -8.94977
33 1 6.28935 6.28935 22.0138 -8.95047
3 1 3.14482 1.0725e-15 22.0139 -8.94969
13 1 18.8691 4.75753e-16 22.0139 -8.94952
15 1 22.0139 3.14481 22.0139 -8.94965
23 1 12.5794 3.14463 22.0139 -8.94953
49 1 18.8692 9.43451 22.0138 -8.94962
344 1 1.57222 11.007 1.57218 -8.94961
345 1 4.71673 11.007 1.57155 -8.9498
346 1 7.86199 11.007 1.57194 -8.94846
347 1 11.0067 11.007 1.57087 -8.94881
348 1 14.1531 11.007 1.57008 -8.94946
349 1 17.2972 11.007 1.57193 -8.94955
350 1 20.4416 11.007 1.57229 -8.94961
688 3 10.1763 11.007 9.50522 2.27459
352 1 1.57225 14.1518 1.57221 -8.94948
511 1 18.8692 18.8693 9.43449 -8.94959
354 1 4.71696 14.1518 1.57176 -8.95004
355 1 6.28939 12.5793 -0.000142438 -8.9497
356 1 7.86185 14.1521 1.57096 -8.95179
510 1 15.7249 18.8699 9.43438 -8.94925
358 1 11.0066 14.1524 1.57094 -8.95024
509 1 12.5798 18.8707 9.43425 -8.9508
360 1 14.1528 14.1528 1.57017 -8.9511
361 1 15.7248 12.5795 -0.000380116 -8.9494
362 1 17.2972 14.152 1.57194 -8.94944
538 1 17.2969 20.4417 11.0069 -8.94958
364 1 20.4416 14.1518 1.5723 -8.94958
508 1 9.43472 18.8703 9.43434 -8.94602
366 1 1.57226 17.2968 1.57221 -8.94973
507 1 6.2884 18.8728 9.43431 -8.95147
368 1 4.7168 17.2971 1.57176 -8.94963
506 1 3.14398 18.8701 9.43445 -8.94925
370 1 7.862 17.2971 1.57193 -8.94928
371 1 9.43441 15.7247 1.70021e-05 -8.94975
372 1 11.007 17.2972 1.57196 -8.94943
373 1 12.5795 15.7246 4.22886e-05 -8.94992
374 1 14.152 17.2971 1.57207 -8.94984
505 1 22.0137 18.8693 9.43451 -8.94957
376 1 17.2972 17.2972 1.5719 -8.94874
504 1 18.8698 15.7248 9.43449 -8.94944
378 1 20.4416 17.2967 1.57232 -8.94962
534 1 4.71656 20.4424 11.007 -8.94937
380 1 1.5723 20.4416 1.57233 -8.94942
503 1 15.7267 15.7265 9.43409 -8.94713
382 1 4.71722 20.4416 1.57233 -8.94969
502 1 12.5815 15.7308 9.43042 -8.95192
384 1 7.86209 20.4416 1.57231 -8.9496
501 1 9.42978 15.7199 9.43715 -9.00216
386 1 11.007 20.4416 1.5723 -8.94962
532 1 20.4415 17.2969 11.007 -8.94957
388 1 14.1518 20.4416 1.57234 -8.94957
500 1 6.2788 15.7395 9.43087 -8.95041
390 1 17.2968 20.4416 1.57233 -8.94957
499 1 3.14066 15.7268 9.4343 -8.9486
392 1 20.4415 20.4415 1.57238 -8.94956
393 1 1.57153 11.007 4.71635 -8.94942
394 1 4.71505 11.007 4.71356 -8.9464
395 1 7.86479 11.007 4.71777 -8.94683
396 1 11.0095 11.007 4.71416 -8.98817
397 1 14.1591 11.007 4.70914 -8.94302
398 1 17.2991 11.007 4.71589 -8.94925
399 1 20.4418 11.007 4.71689 -8.94974
400 1 -0.000111577 12.5794 3.14457 -8.94958
401 1 1.57164 14.1519 4.71657 -8.94946
402 1 3.14412 12.5795 3.14384 -8.94898
403 1 4.71519 14.1526 4.71388 -8.95247
404 1 6.28935 12.5788 3.1429 -8.95118
405 1 7.85907 14.1557 4.70875 -8.95557
406 1 9.43446 12.5797 3.14326 -8.94803
407 1 11.0063 14.1547 4.71113 -8.9513
408 1 12.5812 12.5805 3.13781 -8.95765
409 1 14.1609 14.1607 4.70712 -8.93671
410 1 15.7262 12.5801 3.1427 -8.94817
411 1 17.2991 14.1529 4.71597 -8.95039
412 1 18.8697 12.5795 3.14442 -8.94944
413 1 20.4418 14.152 4.71696 -8.94983
414 1 22.0138 15.7243 3.14464 -8.94972
415 1 1.57125 17.2976 4.71633 -8.94849
416 1 3.14415 15.7246 3.14387 -8.95021
417 1 4.71475 17.2994 4.7144 -8.94553
418 1 6.28832 15.7257 3.14187 -8.95034
419 1 7.86188 17.2986 4.71566 -8.94886
420 1 9.43434 15.7258 3.1428 -8.94818
421 1 11.0073 17.2986 4.71579 -8.94786
422 1 12.5796 15.7255 3.14304 -8.94962
423 1 14.1532 17.2993 4.71568 -8.95031
424 1 15.7266 15.7267 3.14226 -8.94608
425 1 17.2974 17.2974 4.71677 -8.94914
426 1 18.8697 15.7246 3.14444 -8.94968
427 1 20.4414 17.2969 4.71707 -8.94967
428 1 22.0137 18.8692 3.14465 -8.94936
429 1 1.57221 20.4417 4.71711 -8.94959
430 1 3.14429 18.8696 3.14425 -8.94872
431 1 4.71692 20.442 4.71683 -8.94987
432 1 6.28957 18.8696 3.14439 -8.94968
433 1 7.86211 20.442 4.71689 -8.94949
434 1 9.43455 18.8696 3.14436 -8.94956
435 1 11.0071 20.442 4.71686 -8.94949
436 1 12.5795 18.8696 3.14445 -8.94925
437 1 14.152 20.4419 4.71706 -8.95018
438 1 15.7246 18.8698 3.1444 -8.94962
439 1 17.2968 20.4416 4.71718 -8.9496
440 1 18.8692 18.8692 3.14472 -8.94955
441 1 20.4415 20.4415 4.71724 -8.94966
442 1 1.56953 11.007 7.86055 -8.94779
443 1 4.71088 11.007 7.85461 -8.93541
444 1 7.87396 11.007 7.86849 -8.92484
445 1 11.0782 11.007 7.69816 -8.25545
446 1 14.1664 11.007 7.85252 -8.96258
447 1 17.3006 11.007 7.8616 -8.95121
448 1 20.4417 11.007 7.86186 -8.95015
449 1 22.0133 12.5795 6.28913 -8.94954
450 1 1.56847 14.1529 7.86096 -8.95284
451 1 3.14187 12.5795 6.28722 -8.94779
452 1 4.69874 14.165 7.84909 -8.93712
453 1 6.28563 12.5783 6.2813 -8.9609
454 1 7.8267 14.1866 7.82807 -8.85665
455 1 9.42519 12.5946 6.28922 -8.91688
456 1 11.0141 14.1598 7.84263 -8.91081
457 1 12.6102 12.6045 6.25599 -8.89766
458 1 14.1628 14.1614 7.85471 -8.93529
459 1 15.7322 12.5815 6.28622 -8.9546
460 1 17.2994 14.153 7.86178 -8.95097
461 1 18.8707 12.5796 6.28924 -8.95077
462 1 20.4414 14.1521 7.86196 -8.95055
463 1 22.0129 15.7248 6.28918 -8.95021
464 1 1.5714 17.2974 7.86189 -8.9495
465 1 3.13969 15.7281 6.28579 -8.94559
466 1 4.71406 17.3014 7.85996 -8.94893
467 1 6.27985 15.7349 6.27869 -8.93214
468 1 7.86108 17.3038 7.86075 -8.95824
469 1 9.43452 15.7309 6.28567 -8.9467
470 1 11.006 17.2987 7.86195 -8.95153
471 1 12.583 15.7317 6.28482 -8.95377
472 1 14.1533 17.2997 7.8612 -8.94969
473 1 15.7274 15.7272 6.28768 -8.94685
474 1 17.2973 17.2973 7.86198 -8.94937
475 1 18.8697 15.7247 6.28943 -8.9499
476 1 20.4415 17.2969 7.86206 -8.94956
477 1 -0.0001887 18.8693 6.28962 -8.94964
478 1 1.5722 20.4417 7.86206 -8.94957
479 1 3.14398 18.8702 6.28905 -8.94944
480 1 4.71671 20.4424 7.86179 -8.94999
481 1 6.28892 18.8716 6.28856 -8.95118
482 1 7.86214 20.4428 7.86187 -8.95108
483 1 9.43487 18.8711 6.28873 -8.94979
484 1 11.007 20.4421 7.86195 -8.94952
485 1 12.5795 18.8706 6.28939 -8.95147
486 1 14.1521 20.4421 7.86196 -8.95002
487 1 15.7248 18.8699 6.28941 -8.94951
488 1 17.2968 20.4417 7.86206 -8.94953
489 1 18.8692 18.8692 6.28964 -8.94961
490 1 20.4415 20.4415 7.86209 -8.94962
491 1 22.0122 12.5794 9.43449 -8.95143
492 1 3.13519 12.5802 9.43259 -8.95995
493 1 6.24484 12.6218 9.39471 -8.8729
494 1 9.34353 12.8075 9.44894 -7.98906
495 1 12.5959 12.6056 9.39423 -8.81611
496 1 15.7292 12.5807 9.433 -8.94995
497 1 18.8703 12.5797 9.4345 -8.94982
498 1 -0.000860756 15.7247 9.43454 -8.9497
513 1 4.71885 11.007 11.0021 -9.00323
514 1 7.61959 11.007 10.9112 -8.00814
531 1 17.2975 17.2974 11.0068 -8.94911
526 1 1.57133 17.2974 11.0071 -8.94928
527 1 4.71408 17.3004 11.0074 -8.94676
389 1 15.7243 18.8692 4.31919e-05 -8.94966
365 1 22.0139 15.7242 -2.80086e-05 -8.94959
377 1 18.8692 15.7243 -6.88474e-05 -8.94962
512 1 1.57063 11.007 11.0075 -8.94617
687 3 9.46267 11.007 11.6693 2.18742
686 1 20.4415 20.4415 20.4415 -8.9495
515 1 11.3789 11.007 11.0956 -7.20381
516 1 14.1652 11.007 11.0117 -9.02285
517 1 17.3 11.007 11.0068 -8.95125
518 1 20.4417 11.007 11.007 -8.94942
519 1 1.56917 14.1526 11.0075 -8.95168
520 1 4.7029 14.1574 11.0095 -8.95708
521 1 7.80713 14.1881 11.0318 -8.81798
522 1 11.0406 14.1591 11.0135 -8.87087
523 1 14.1606 14.1554 11.0052 -8.95543
524 1 17.2992 14.1528 11.0067 -8.95002
525 1 20.4415 14.1521 11.007 -8.95022
391 1 18.8692 18.8692 22.0138 -8.94944
385 1 9.43452 18.8693 22.0139 -8.94959
528 1 7.86046 17.3043 11.0083 -8.95877
529 1 11.0067 17.2992 11.0067 -8.95091
530 1 14.1535 17.2991 11.0059 -8.9475
685 1 18.8693 18.8693 18.8693 -8.94927
684 1 17.2967 20.4416 20.4416 -8.94948
533 1 1.57217 20.4417 11.007 -8.9496
683 1 15.7247 18.8696 18.8696 -8.9488
535 1 7.86209 20.443 11.0069 -8.95103
536 1 11.0071 20.4423 11.0068 -8.94938
537 1 14.1523 20.4421 11.0067 -8.94942
682 1 14.1519 20.4416 20.4416 -8.94964
539 1 20.4415 20.4415 11.007 -8.94963
540 1 1.57183 11.007 14.1525 -8.94828
541 1 4.71831 11.007 14.1509 -8.94296
542 1 7.87447 11.007 14.1244 -8.9195
543 1 11.0037 11.007 14.1494 -8.97028
544 1 14.1584 11.007 14.1597 -8.9387
545 1 17.2995 11.007 14.1533 -8.94805
546 1 20.4419 11.007 14.1522 -8.94962
547 1 22.0134 12.5793 12.5797 -8.94978
548 1 1.5708 14.1519 14.1523 -8.95158
549 1 3.14225 12.5788 12.5799 -8.95087
550 1 4.70903 14.1557 14.1569 -8.95313
551 1 6.28101 12.5959 12.5931 -8.90019
552 1 7.83474 14.1824 14.1882 -8.88777
553 1 9.438 12.7743 12.6481 -8.18902
554 1 11.0326 14.1851 14.1907 -8.8718
555 1 12.6227 12.6357 12.6377 -8.7841
556 1 14.1714 14.1684 14.1685 -8.92791
557 1 15.734 12.5819 12.5828 -8.95735
558 1 17.301 14.1533 14.1533 -8.95289
559 1 18.871 12.5795 12.5796 -8.95129
560 1 20.4419 14.152 14.152 -8.95057
561 1 -0.000819576 15.7247 12.5797 -8.94992
562 1 1.57131 17.2973 14.1523 -8.94931
563 1 3.14061 15.7266 12.581 -8.94905
564 1 4.71359 17.3007 14.1547 -8.94475
565 1 6.27686 15.7397 12.5896 -8.93198
566 1 7.86115 17.3036 14.1543 -8.95671
567 1 9.43579 15.727 12.585 -8.99193
568 1 11.0079 17.3046 14.1548 -8.95579
569 1 12.5865 15.7396 12.5839 -8.9568
570 1 14.1547 17.3017 14.1537 -8.95015
571 1 15.7273 15.7267 12.5793 -8.94942
572 1 17.2976 17.2974 14.1519 -8.94974
573 1 18.8698 15.7247 12.5794 -8.94957
574 1 20.4415 17.2969 14.1519 -8.94963
575 1 22.0137 18.8693 12.5794 -8.94956
576 1 1.5722 20.4417 14.1519 -8.94961
577 1 3.14397 18.87 12.5796 -8.94933
578 1 4.71665 20.4424 14.1522 -8.94979
579 1 6.28824 18.8728 12.58 -8.95162
580 1 7.86205 20.4428 14.1521 -8.95078
581 1 9.43487 18.8715 12.5797 -8.94759
582 1 11.0071 20.443 14.1522 -8.95099
583 1 12.5802 18.8723 12.5792 -8.95265
584 1 14.1523 20.4424 14.152 -8.95029
585 1 15.7248 18.8699 12.5792 -8.9495
586 1 17.2968 20.4416 14.1518 -8.94962
587 1 18.8692 18.8693 12.5794 -8.94953
588 1 20.4415 20.4415 14.1518 -8.94962
589 1 1.57195 11.007 17.297 -8.94972
590 1 4.71582 11.007 17.298 -8.94736
591 1 7.86184 11.007 17.2951 -8.93759
592 1 11.0065 11.007 17.2998 -8.94389
593 1 14.1546 11.007 17.3009 -8.94643
594 1 17.2977 11.007 17.2975 -8.94943
595 1 20.4416 11.007 17.2969 -8.94966
596 1 22.0138 12.5793 15.7245 -8.94943
597 1 1.57214 14.1517 17.2969 -8.94961
598 1 3.1442 12.5787 15.7248 -8.94888
599 1 4.71641 14.1513 17.2979 -8.95149
600 1 6.28978 12.5759 15.7263 -8.95456
601 1 7.85982 14.1544 17.305 -8.95708
602 1 9.43353 12.5851 15.7341 -8.96883
603 1 11.0081 14.1549 17.306 -8.95642
604 1 12.5826 12.5796 15.7374 -8.96096
605 1 14.154 14.1531 17.3009 -8.95225
606 1 15.7272 12.5796 15.727 -8.94786
607 1 17.2975 14.1519 17.2974 -8.94946
608 1 18.87 12.5794 15.7248 -8.9493
609 1 20.4416 14.1518 17.2968 -8.94953
610 1 22.0135 15.7244 15.7245 -8.95027
611 1 1.57171 17.2971 17.2971 -8.9496
612 1 3.14201 15.7256 15.726 -8.95015
613 1 4.7147 17.2991 17.2994 -8.94595
614 1 6.28023 15.7335 15.7351 -8.93602
615 1 7.86127 17.2989 17.2989 -8.94785
616 1 9.43383 15.7324 15.7328 -8.94199
617 1 11.0075 17.2989 17.2989 -8.94813
618 1 12.5883 15.7348 15.7353 -8.93391
619 1 14.1542 17.2994 17.2994 -8.94587
620 1 15.73 15.7289 15.7288 -8.94384
621 1 17.298 17.2977 17.2977 -8.94812
622 1 18.8702 15.7248 15.7248 -8.95027
623 1 20.4416 17.2968 17.2968 -8.94975
624 1 -0.000207826 18.8692 15.7243 -8.94954
625 1 1.57223 20.4416 17.2968 -8.94948
626 1 3.14395 18.8699 15.7249 -8.94868
627 1 4.7169 20.442 17.2971 -8.94989
628 1 6.28876 18.8714 15.7254 -8.95108
629 1 7.86195 20.4421 17.2971 -8.94941
630 1 9.43443 18.8717 15.7257 -8.94927
631 1 11.0071 20.4421 17.2971 -8.94943
632 1 12.5803 18.8717 15.7255 -8.95065
633 1 14.1522 20.4421 17.2971 -8.94977
634 1 15.7251 18.8703 15.7248 -8.94968
635 1 17.2969 20.4417 17.2968 -8.94963
636 1 18.8692 18.8692 15.7243 -8.94971
637 1 20.4415 20.4415 17.2967 -8.94965
638 1 1.57227 11.007 20.4416 -8.94964
639 1 4.71678 11.007 20.4418 -8.94962
640 1 7.86162 11.007 20.4419 -8.94784
641 1 11.007 11.007 20.4424 -8.94881
642 1 14.1525 11.007 20.4421 -8.94987
643 1 17.297 11.007 20.4416 -8.94957
644 1 20.4415 11.007 20.4415 -8.94963
645 1 -8.926e-05 12.5794 18.8692 -8.94961
646 1 1.57229 14.1518 20.4415 -8.94952
647 1 3.14437 12.5794 18.8695 -8.94918
648 1 4.71699 14.1517 20.4417 -8.94966
649 1 6.28913 12.5788 18.8701 -8.94947
650 1 7.86176 14.152 20.4429 -8.95151
651 1 9.43406 12.5791 18.8719 -8.95094
652 1 11.0069 14.1522 20.443 -8.95146
653 1 12.58 12.5792 18.8721 -8.95168
654 1 14.1523 14.1521 20.442 -8.95036
655 1 15.7251 12.5795 18.8701 -8.94899
656 1 17.2969 14.1519 20.4416 -8.94944
657 1 18.8693 12.5794 18.8693 -8.94957
658 1 20.4415 14.1518 20.4415 -8.94962
659 1 22.0139 15.7242 18.8691 -8.94967
660 1 1.57232 17.2967 20.4415 -8.94979
661 1 3.14448 15.7242 18.8694 -8.95018
662 1 4.7168 17.2971 20.4421 -8.94975
663 1 6.28838 15.7254 18.8717 -8.95081
664 1 7.86193 17.2971 20.4421 -8.94933
665 1 9.4343 15.7257 18.8718 -8.94899
666 1 11.007 17.2972 20.4421 -8.94939
667 1 12.5804 15.7256 18.8719 -8.95045
668 1 14.1522 17.2971 20.4421 -8.94963
669 1 15.725 15.7248 18.8701 -8.95017
670 1 17.2969 17.2969 20.4416 -8.94965
671 1 18.8693 15.7243 18.8692 -8.94969
672 1 20.4415 17.2967 20.4415 -8.94969
673 1 22.0138 18.8692 18.8692 -8.94956
674 1 1.57231 20.4416 20.4416 -8.9494
675 1 3.14428 18.8696 18.8696 -8.94871
676 1 4.71721 20.4416 20.4416 -8.94964
677 1 6.28944 18.8696 18.8696 -8.9494
678 1 7.86208 20.4416 20.4416 -8.94962
679 1 9.4345 18.8696 18.8696 -8.94956
680 1 11.007 20.4416 20.4416 -8.94962
681 1 12.5796 18.8696 18.8696 -8.94945
351 1 22.0139 12.5794 22.0139 -8.94964
353 1 3.1446 12.5794 22.0138 -8.94956
357 1 9.43432 12.5794 22.0139 -8.9496
359 1 12.5796 12.5795 22.0131 -8.95127
383 1 6.28963 18.8693 22.0139 -8.94952
367 1 3.14469 15.7242 22.0138 -8.94977
369 1 6.28935 15.7245 22.0138 -8.95047
375 1 15.7247 15.7246 22.0135 -8.94986
381 1 3.14466 18.8692 22.0139 -8.94952
363 1 18.8692 12.5794 22.0138 -8.94962
379 1 22.0139 18.8691 22.0139 -8.94965
387 1 12.5794 18.8693 22.0139 -8.94953
