ITEM: TIMESTEP
118
ITEM: NUMBER OF ATOMS
688
ITEM: BOX BOUNDS pp pp pp
0.0000000000000000e+00 2.2013900999999997e+01
0.0000000000000000e+00 2.2013900999999997e+01
0.0000000000000000e+00 2.2013900999999997e+01
ITEM: ATOMS id type x y z c_pot
1 1 22.0136 1.64156e-12 -3.68391e-05 -8.94895
2 1 1.57157 1.57184 1.57174 -8.94907
189 1 20.4412 4.71586 11.0071 -8.94951
4 1 4.71664 1.57179 1.57181 -8.94949
5 1 6.28931 9.11941e-13 0.000104195 -8.94944
6 1 7.86192 1.57177 1.57195 -8.94943
175 1 18.8715 9.43385 9.43396 -8.9501
8 1 11.0072 1.57177 1.57205 -8.94945
9 1 12.5797 -2.09817e-13 0.000221731 -8.94944
10 1 14.1523 1.57178 1.57217 -8.94942
174 1 15.7332 9.4316 9.43068 -8.94953
12 1 17.2973 1.57172 1.57203 -8.94944
188 1 17.2987 4.71505 11.0067 -8.94893
14 1 20.4414 1.57197 1.57199 -8.94917
181 1 17.2975 1.57162 11.0068 -8.94945
16 1 1.57151 4.71646 1.57123 -8.94983
173 1 12.6034 9.40127 9.39049 -8.80788
18 1 4.71581 4.71574 1.57058 -8.94987
172 1 9.34708 9.18249 9.44131 -7.95249
20 1 7.86155 4.71566 1.57125 -8.94919
171 1 6.24131 9.384 9.39089 -8.86534
22 1 11.0072 4.71563 1.57151 -8.94921
177 1 4.71514 1.57016 11.0073 -8.9495
24 1 14.1528 4.71558 1.57139 -8.94998
170 1 3.13246 9.43234 9.4303 -8.95992
26 1 17.2983 4.71557 1.57113 -8.94876
169 1 22.0113 9.43429 9.43396 -8.95156
28 1 20.4418 4.71653 1.57167 -8.94949
168 1 18.8704 6.28796 9.43416 -8.94952
30 1 1.57169 7.86176 1.57121 -8.94929
167 1 15.7288 6.28541 9.4329 -8.94697
32 1 4.71644 7.862 1.57065 -8.9504
166 1 12.5836 6.28076 9.43008 -8.95261
34 1 7.86161 7.86141 1.57047 -8.9519
35 1 9.43416 6.28835 0.000331585 -8.94999
36 1 11.0067 7.86108 1.57064 -8.9506
37 1 12.5798 6.28844 0.000313004 -8.95026
38 1 14.1539 7.86026 1.56909 -8.95098
165 1 9.42785 6.29576 9.43889 -9.00753
40 1 17.2986 7.86104 1.57086 -8.94922
164 1 6.27352 6.26912 9.4303 -8.9513
42 1 20.442 7.86164 1.57154 -8.94939
163 1 3.13616 6.28373 9.43303 -8.94796
162 1 -0.00255633 6.28792 9.43421 -8.94987
45 1 6.28925 9.43479 -0.000420787 -8.94962
161 1 18.8696 3.14366 9.43427 -8.94939
160 1 15.7257 3.14275 9.43391 -8.94919
48 1 15.726 9.43396 -0.00067484 -8.94944
159 1 12.5798 3.1425 9.43425 -8.95141
50 1 22.0133 6.45454e-13 3.1442 -8.94932
51 1 1.57107 1.57139 4.71609 -8.94939
52 1 3.14387 5.93882e-11 3.14379 -8.94957
53 1 4.71604 1.5708 4.71569 -8.9501
54 1 6.28932 1.23824e-11 3.14393 -8.94941
55 1 7.86193 1.57107 4.71601 -8.94946
56 1 9.43466 5.20251e-12 3.14405 -8.94949
57 1 11.0073 1.57132 4.71623 -8.94938
58 1 12.5798 2.64685e-11 3.14425 -8.94938
59 1 14.1523 1.57133 4.71664 -8.95049
60 1 15.7248 1.75062e-11 3.14439 -8.95001
61 1 17.2973 1.57159 4.71665 -8.9496
62 1 18.8693 -3.735e-13 3.14443 -8.94948
63 1 20.4412 1.57187 4.71673 -8.94949
64 1 22.0129 3.14372 3.14362 -8.94897
65 1 1.56906 4.7144 4.71423 -8.948
66 1 3.14289 3.14285 3.14269 -8.94826
67 1 4.71211 4.71161 4.7114 -8.94454
68 1 6.28886 3.14303 3.14318 -8.94936
69 1 7.86084 4.71308 4.71388 -8.94807
70 1 9.43454 3.14314 3.14354 -8.94945
71 1 11.0074 4.71399 4.71461 -8.94723
72 1 12.5799 3.14327 3.14379 -8.94907
73 1 14.1546 4.71271 4.71384 -8.94969
74 1 15.7255 3.14285 3.14353 -8.94956
75 1 17.2988 4.71474 4.7153 -8.94877
76 1 18.8697 3.14371 3.14396 -8.9493
77 1 20.4412 4.71588 4.71604 -8.94973
78 1 22.0133 6.2889 3.14347 -8.94962
79 1 1.57008 7.86117 4.71471 -8.94926
80 1 3.14271 6.28822 3.14182 -8.9506
81 1 4.71328 7.86006 4.71111 -8.95327
82 1 6.28719 6.28681 3.1398 -8.951
83 1 7.85848 7.85695 4.70748 -8.95798
84 1 9.43414 6.28671 3.14158 -8.9484
85 1 11.0065 7.85881 4.70998 -8.95326
86 1 12.5804 6.28715 3.14143 -8.95032
87 1 14.1614 7.85322 4.70553 -8.94132
88 1 15.7281 6.28579 3.14057 -8.94703
89 1 17.3009 7.85977 4.71408 -8.95
90 1 18.8706 6.28833 3.14331 -8.94953
91 1 20.442 7.86127 4.71577 -8.94971
92 1 -0.000430887 9.43423 3.14333 -8.94938
93 1 3.14308 9.43415 3.14205 -8.94874
94 1 6.28924 9.43524 3.14223 -8.95177
95 1 9.43403 9.43363 3.14389 -8.94527
96 1 12.5825 9.43288 3.13658 -8.95583
97 1 15.7283 9.43309 3.14051 -8.94836
98 1 18.8708 9.434 3.14313 -8.94931
99 1 22.0132 1.30956e-12 6.28919 -8.94945
100 1 1.57097 1.57139 7.86154 -8.94936
101 1 3.14344 1.44227e-11 6.28862 -8.94984
102 1 4.7155 1.57009 7.86111 -8.9504
103 1 6.28919 6.12032e-10 6.28874 -8.95069
104 1 7.86199 1.57041 7.86169 -8.95147
105 1 9.43478 3.56171e-10 6.28884 -8.95021
106 1 11.0068 1.57166 7.86192 -8.94957
107 1 12.5795 2.49731e-10 6.28935 -8.95013
108 1 14.1524 1.5712 7.86163 -8.95037
109 1 15.7248 -1.38167e-11 6.28921 -8.94996
110 1 17.2973 1.57164 7.8617 -8.94943
111 1 18.8693 8.79338e-13 6.28934 -8.94948
112 1 20.4412 1.57184 7.86181 -8.94944
113 1 -0.00123418 3.1435 6.28882 -8.94941
114 1 1.56885 4.71437 7.86071 -8.94915
115 1 3.14186 3.14137 6.28735 -8.94927
116 1 4.71037 4.70841 7.85785 -8.94873
117 1 6.28773 3.14003 6.2873 -8.95172
118 1 7.85935 4.70771 7.86031 -8.95962
119 1 9.43455 3.1415 6.28793 -8.94986
120 1 11.0051 4.7146 7.86178 -8.95353
121 1 12.5795 3.14245 6.28889 -8.9517
122 1 14.1544 4.71225 7.85968 -8.94984
123 1 15.7256 3.14248 6.28851 -8.94964
124 1 17.2985 4.71503 7.86115 -8.94915
125 1 18.8695 3.14367 6.28908 -8.94946
126 1 20.441 4.71583 7.86156 -8.94951
127 1 22.0113 6.28782 6.28785 -8.95058
128 1 1.56532 7.85947 7.85926 -8.95357
129 1 3.13537 6.2824 6.28223 -8.94502
130 1 4.69256 7.84394 7.84459 -8.93681
131 1 6.2753 6.2743 6.27456 -8.92922
132 1 7.81999 7.8207 7.8229 -8.84499
133 1 9.43315 6.2807 6.28373 -8.9438
134 1 11.0179 7.84816 7.83865 -8.89949
135 1 12.5848 6.28049 6.2815 -8.9494
136 1 14.1667 7.84935 7.84932 -8.93502
137 1 15.7301 6.28407 6.28474 -8.94603
138 1 17.3016 7.85954 7.86003 -8.95124
139 1 18.8707 6.28792 6.28831 -8.95014
140 1 20.4411 7.86108 7.86126 -8.95095
141 1 22.0123 9.43405 6.28778 -8.94931
142 1 3.13957 9.43373 6.28466 -8.94739
143 1 6.28446 9.43511 6.27993 -8.96116
144 1 9.4271 9.42106 6.29409 -8.93091
145 1 12.6046 9.41641 6.25824 -8.91889
146 1 15.7338 9.43171 6.28313 -8.9527
147 1 18.8717 9.43381 6.28788 -8.95048
148 1 -0.000757457 7.59134e-13 9.43439 -8.94944
149 1 3.14321 3.24008e-11 9.43425 -8.94945
150 1 6.28878 4.54669e-10 9.43439 -8.95112
151 1 9.43471 1.86236e-09 9.43433 -8.94799
152 1 12.5796 -2.8573e-11 9.43429 -8.95008
153 1 15.7251 8.05647e-12 9.43412 -8.94955
154 1 18.8694 -3.84589e-13 9.43433 -8.94948
155 1 22.0127 3.14352 9.43435 -8.94935
156 1 3.14179 3.14168 9.43409 -8.94904
157 1 6.28668 3.13862 9.43437 -8.95221
158 1 9.43412 3.14422 9.43487 -8.94514
183 1 1.56904 4.71469 11.0074 -8.94909
184 1 4.71036 4.70986 11.0083 -8.94623
11 1 15.7247 9.91958e-13 0.00021483 -8.94949
25 1 15.7251 3.14373 0.000212531 -8.94958
29 1 22.0138 6.28937 -0.000366182 -8.94944
41 1 18.87 6.28901 -0.00031182 -8.9494
176 1 1.57091 1.57145 11.0071 -8.94936
343 1 18.8705 9.43427 18.8702 -8.94935
178 1 7.86192 1.57042 11.0072 -8.95107
179 1 11.0069 1.5716 11.0068 -8.94887
180 1 14.1528 1.57107 11.0065 -8.94948
342 1 15.7267 9.43387 18.872 -8.94888
182 1 20.4413 1.57184 11.007 -8.94946
47 1 12.58 9.43424 22.0132 -8.95136
46 1 9.43411 9.43453 22.0141 -8.94883
185 1 7.85829 4.70826 11.0097 -8.95848
186 1 11.0067 4.7153 11.0076 -8.95008
187 1 14.155 4.71292 11.0061 -8.94689
341 1 12.5802 9.4345 18.8736 -8.9524
340 1 9.43395 9.4347 18.8712 -8.95
190 1 1.56661 7.86018 11.0073 -8.9525
191 1 4.69702 7.85219 11.0089 -8.95597
192 1 7.80121 7.82412 11.0366 -8.81822
193 1 11.0469 7.85554 11.0191 -8.87039
194 1 14.1661 7.85583 11.0061 -8.954
195 1 17.3016 7.85993 11.0069 -8.95049
196 1 20.4415 7.86119 11.0071 -8.95059
197 1 -0.000728125 -1.03288e-12 12.5796 -8.94943
198 1 1.57101 1.57153 14.1526 -8.9493
199 1 3.14319 3.08997e-11 12.58 -8.94935
200 1 4.71535 1.57024 14.1533 -8.95017
201 1 6.28877 6.1089e-10 12.5799 -8.95123
202 1 7.86184 1.57024 14.153 -8.9507
203 1 9.43473 2.24459e-10 12.5797 -8.94917
204 1 11.0074 1.5701 14.1529 -8.95098
205 1 12.5799 2.76436e-10 12.5792 -8.951
206 1 14.1531 1.57025 14.1525 -8.951
207 1 15.7252 -1.57911e-11 12.5792 -8.94955
208 1 17.2977 1.5715 14.152 -8.94958
209 1 18.8695 3.56198e-13 12.5794 -8.94946
210 1 20.4414 1.57187 14.1521 -8.94944
211 1 22.0128 3.14361 12.5798 -8.94934
212 1 1.5694 4.71505 14.1536 -8.94919
213 1 3.14185 3.1419 12.5807 -8.94891
214 1 4.71041 4.70962 14.1579 -8.94418
215 1 6.28673 3.13864 12.5814 -8.9525
216 1 7.86039 4.7085 14.1567 -8.95563
217 1 9.43478 3.14182 12.5808 -8.94816
218 1 11.0085 4.70755 14.1573 -8.95452
219 1 12.5807 3.14001 12.5797 -8.95377
220 1 14.1575 4.70824 14.1567 -8.95017
221 1 15.726 3.14238 12.5794 -8.9494
222 1 17.2996 4.71445 14.153 -8.94979
223 1 18.8697 3.14364 12.5795 -8.94934
224 1 20.4416 4.71599 14.1525 -8.94972
225 1 -0.0019089 6.28824 12.5803 -8.95016
226 1 1.56984 7.86156 14.1531 -8.95206
227 1 3.13711 6.28476 12.5826 -8.94878
228 1 4.70643 7.85489 14.1598 -8.94931
229 1 6.2723 6.2693 12.5934 -8.93187
230 1 7.83934 7.83277 14.1847 -8.90472
231 1 9.43574 6.28419 12.5862 -8.98437
232 1 11.0291 7.83006 14.1887 -8.88929
233 1 12.5902 6.27046 12.588 -8.95686
234 1 14.1763 7.84016 14.1748 -8.92279
235 1 15.7305 6.28437 12.581 -8.94943
236 1 17.3044 7.85855 14.1557 -8.95268
237 1 18.8711 6.28801 12.5799 -8.9498
238 1 20.4429 7.86142 14.1528 -8.95087
239 1 22.0134 9.43452 12.5799 -8.95002
240 1 3.14068 9.43462 12.5795 -8.95273
241 1 6.27355 9.41209 12.5962 -8.88825
242 1 9.43853 9.27224 12.635 -8.24011
243 1 12.6325 9.37288 12.6442 -8.77062
244 1 15.7394 9.42979 12.5863 -8.95691
245 1 18.873 9.43394 12.5805 -8.95174
246 1 22.0133 2.07379e-13 15.7248 -8.94943
247 1 1.57124 1.57168 17.2978 -8.9491
248 1 3.14335 5.6975e-11 15.7255 -8.94954
249 1 4.71592 1.57112 17.2983 -8.94989
250 1 6.2889 6.86181e-12 15.7255 -8.9502
251 1 7.86147 1.57094 17.2985 -8.94928
252 1 9.4345 2.50758e-11 15.7257 -8.95011
253 1 11.0074 1.57084 17.2985 -8.94934
254 1 12.5802 1.36958e-11 15.7254 -8.95032
255 1 14.1531 1.57081 17.2983 -8.94978
256 1 15.7255 1.8541e-11 15.7251 -8.95017
257 1 17.298 1.57132 17.2978 -8.94947
258 1 18.8696 1.74085e-15 15.7246 -8.94959
259 1 20.4416 1.57189 17.2972 -8.94949
260 1 -0.00088202 3.14379 15.7252 -8.94941
261 1 1.5706 4.71591 17.2985 -8.94949
262 1 3.14201 3.14216 15.7267 -8.94814
263 1 4.71309 4.71329 17.3016 -8.9466
264 1 6.2877 3.14081 15.7271 -8.95086
265 1 7.86037 4.71309 17.3013 -8.94763
266 1 9.43432 3.14032 15.7277 -8.94926
267 1 11.008 4.71263 17.3017 -8.94789
268 1 12.5812 3.14005 15.7272 -8.95045
269 1 14.1561 4.71201 17.3021 -8.94622
270 1 15.7271 3.14119 15.7265 -8.94955
271 1 17.3003 4.71412 17.2997 -8.94746
272 1 18.8701 3.14352 15.725 -8.94966
273 1 20.4422 4.71621 17.2978 -8.94983
274 1 22.0133 6.28889 15.7254 -8.95067
275 1 1.57192 7.86225 17.2975 -8.94948
276 1 3.13998 6.28666 15.7283 -8.94948
277 1 4.71608 7.86245 17.2989 -8.95233
278 1 6.27963 6.27908 15.737 -8.9393
279 1 7.86009 7.85874 17.3053 -8.95713
280 1 9.43375 6.27951 15.7354 -8.94139
281 1 11.008 7.85754 17.3076 -8.9562
282 1 12.5892 6.27673 15.7385 -8.93679
283 1 14.1559 7.85896 17.3046 -8.95299
284 1 15.7338 6.28133 15.7328 -8.94225
285 1 17.2997 7.86089 17.2994 -8.94919
286 1 18.8722 6.28775 15.7263 -8.95037
287 1 20.4425 7.86178 17.2977 -8.94935
288 1 22.0142 9.4345 15.7253 -8.94916
289 1 3.14422 9.43513 15.7251 -8.94801
290 1 6.29122 9.43769 15.7252 -8.95725
291 1 9.43476 9.42949 15.7295 -8.96846
292 1 12.5841 9.43292 15.7404 -8.96354
293 1 15.7302 9.43302 15.7306 -8.94721
294 1 18.8718 9.43406 15.7262 -8.94904
295 1 -0.0004095 1.66667e-12 18.8696 -8.94921
296 1 1.5717 1.57192 20.442 -8.94911
297 1 3.14388 7.50968e-13 18.87 -8.94954
298 1 4.71654 1.57184 20.4422 -8.94939
299 1 6.289 1.07075e-12 18.8702 -8.94931
300 1 7.86174 1.57173 20.4423 -8.9494
301 1 9.43443 1.26218e-12 18.8703 -8.94941
302 1 11.0071 1.5717 20.4424 -8.94941
303 1 12.5799 1.16495e-12 18.8703 -8.94933
304 1 14.1525 1.57172 20.4423 -8.94937
305 1 15.7252 7.63886e-13 18.8701 -8.94948
306 1 17.2975 1.57179 20.4422 -8.94923
307 1 18.8697 4.90744e-13 18.8697 -8.94931
308 1 20.4417 1.572 20.4418 -8.94904
309 1 22.0135 3.14411 18.8699 -8.94939
310 1 1.57182 4.71687 20.4418 -8.94995
311 1 3.14315 3.14339 18.8708 -8.94866
312 1 4.71589 4.71608 20.4428 -8.95003
313 1 6.28853 3.14315 18.871 -8.94912
314 1 7.86132 4.71567 20.4431 -8.94927
315 1 9.4343 3.1429 18.8712 -8.94936
316 1 11.0072 4.71551 20.4433 -8.94931
317 1 12.5803 3.14283 18.8712 -8.9491
318 1 14.153 4.71555 20.4433 -8.9497
319 1 15.7261 3.14286 18.8711 -8.94864
320 1 17.2981 4.71603 20.4423 -8.94962
321 1 18.8703 3.14367 18.8701 -8.94887
322 1 20.4419 4.71681 20.4417 -8.9496
323 1 22.0139 6.28948 18.8696 -8.94965
324 1 1.57201 7.86202 20.4416 -8.94939
325 1 3.14375 6.2894 18.8704 -8.95062
326 1 4.71665 7.86231 20.4419 -8.94995
327 1 6.28757 6.2877 18.8732 -8.95125
328 1 7.86149 7.86165 20.4433 -8.95162
329 1 9.43393 6.28672 18.8739 -8.94908
330 1 11.0068 7.86125 20.444 -8.95163
331 1 12.5811 6.28681 18.8742 -8.95058
332 1 14.153 7.86123 20.4431 -8.95081
333 1 15.7268 6.28763 18.8722 -8.95043
334 1 17.2982 7.86143 20.4422 -8.94926
335 1 18.8704 6.28896 18.8701 -8.94952
336 1 20.442 7.86184 20.4417 -8.94944
337 1 0.000105558 9.43447 18.8696 -8.94951
338 1 3.1441 9.43463 18.8697 -8.9491
339 1 6.28937 9.43538 18.8697 -8.94966
7 1 9.4345 4.76671e-13 22.0141 -8.94947
44 1 3.14407 9.43446 22.0132 -8.94953
17 1 3.14385 3.14396 22.0137 -8.94948
19 1 6.28906 3.14383 22.014 -8.94933
21 1 9.43442 3.14372 22.0142 -8.94942
43 1 22.0138 9.4344 22.0135 -8.94949
27 1 18.8698 3.14406 22.0138 -8.94925
39 1 15.7258 6.2883 22.0134 -8.95004
31 1 3.14413 6.28943 22.0134 -8.95004
33 1 6.28879 6.28887 22.0137 -8.95086
3 1 3.14426 -3.59219e-14 22.0139 -8.9495
13 1 18.8695 4.54197e-13 22.0139 -8.9491
15 1 22.0136 3.14436 22.0137 -8.94956
23 1 12.5798 3.14372 22.0142 -8.94929
49 1 18.8701 9.43426 22.0135 -8.94942
344 1 1.57167 11.007 1.57115 -8.94947
345 1 4.71622 11.007 1.5705 -8.94988
346 1 7.86225 11.007 1.57253 -8.9472
347 1 11.0068 11.007 1.57036 -8.95075
348 1 14.1544 11.007 1.56883 -8.94969
349 1 17.2987 11.007 1.57081 -8.94938
350 1 20.442 11.007 1.5715 -8.94944
688 3 10.1326 11.007 9.55836 2.21968
352 1 1.57169 14.1521 1.57121 -8.94929
511 1 18.8696 18.8702 9.43427 -8.94939
354 1 4.71644 14.1519 1.57065 -8.9504
355 1 6.28925 12.5791 -0.000420787 -8.94962
356 1 7.86161 14.1525 1.57047 -8.9519
510 1 15.7257 18.8712 9.43391 -8.94919
358 1 11.0067 14.1528 1.57064 -8.9506
509 1 12.5798 18.8714 9.43425 -8.95141
360 1 14.1539 14.1536 1.56909 -8.95098
361 1 15.726 12.5799 -0.00067484 -8.94944
362 1 17.2986 14.1529 1.57086 -8.94922
538 1 17.2975 20.4423 11.0068 -8.94945
364 1 20.442 14.1523 1.57154 -8.94939
508 1 9.43412 18.8697 9.43487 -8.94514
366 1 1.57151 17.2974 1.57123 -8.94983
507 1 6.28668 18.8753 9.43437 -8.95221
368 1 4.71581 17.2982 1.57058 -8.94987
506 1 3.14179 18.8722 9.43409 -8.94904
370 1 7.86155 17.2982 1.57125 -8.94919
371 1 9.43416 15.7256 0.000331585 -8.94999
372 1 11.0072 17.2983 1.57151 -8.94921
373 1 12.5798 15.7255 0.000313004 -8.95026
374 1 14.1528 17.2983 1.57139 -8.94998
505 1 22.0127 18.8704 9.43435 -8.94935
376 1 17.2983 17.2983 1.57113 -8.94876
504 1 18.8704 15.7259 9.43416 -8.94952
378 1 20.4418 17.2974 1.57167 -8.94949
534 1 4.71514 20.4437 11.0073 -8.9495
380 1 1.57157 20.4421 1.57174 -8.94907
503 1 15.7288 15.7285 9.4329 -8.94697
382 1 4.71664 20.4421 1.57181 -8.94949
502 1 12.5836 15.7331 9.43008 -8.95261
384 1 7.86192 20.4421 1.57195 -8.94943
501 1 9.42785 15.7181 9.43889 -9.00753
386 1 11.0072 20.4421 1.57205 -8.94945
532 1 20.4412 17.298 11.0071 -8.94951
388 1 14.1523 20.4421 1.57217 -8.94942
500 1 6.27352 15.7448 9.4303 -8.9513
390 1 17.2973 20.4422 1.57203 -8.94944
499 1 3.13616 15.7302 9.43303 -8.94796
392 1 20.4414 20.4419 1.57199 -8.94917
393 1 1.57025 11.007 4.71448 -8.94923
394 1 4.71369 11.007 4.71142 -8.94582
395 1 7.86546 11.007 4.72101 -8.94418
396 1 11.0085 11.007 4.70786 -8.97995
397 1 14.1608 11.007 4.70663 -8.94324
398 1 17.3011 11.007 4.71381 -8.94911
399 1 20.4421 11.007 4.71559 -8.94967
400 1 -0.000430887 12.5797 3.14333 -8.94938
401 1 1.57008 14.1527 4.71471 -8.94926
402 1 3.14308 12.5797 3.14205 -8.94874
403 1 4.71328 14.1538 4.71111 -8.95327
404 1 6.28924 12.5787 3.14223 -8.95177
405 1 7.85848 14.157 4.70748 -8.95798
406 1 9.43403 12.5803 3.14389 -8.94527
407 1 11.0065 14.1551 4.70998 -8.95326
408 1 12.5825 12.581 3.13658 -8.95583
409 1 14.1614 14.1607 4.70553 -8.94132
410 1 15.7283 12.5808 3.14051 -8.94836
411 1 17.3009 14.1541 4.71408 -8.95
412 1 18.8708 12.5799 3.14313 -8.94931
413 1 20.442 14.1526 4.71577 -8.94971
414 1 22.0133 15.725 3.14347 -8.94962
415 1 1.56906 17.2995 4.71423 -8.948
416 1 3.14271 15.7257 3.14182 -8.9506
417 1 4.71211 17.3023 4.7114 -8.94454
418 1 6.28719 15.7271 3.1398 -8.951
419 1 7.86084 17.3008 4.71388 -8.94807
420 1 9.43414 15.7272 3.14158 -8.9484
421 1 11.0074 17.2999 4.71461 -8.94723
422 1 12.5804 15.7268 3.14143 -8.95032
423 1 14.1546 17.3012 4.71384 -8.94969
424 1 15.7281 15.7281 3.14057 -8.94703
425 1 17.2988 17.2992 4.7153 -8.94877
426 1 18.8706 15.7256 3.14331 -8.94953
427 1 20.4412 17.298 4.71604 -8.94973
428 1 22.0129 18.8702 3.14362 -8.94897
429 1 1.57107 20.4425 4.71609 -8.94939
430 1 3.14289 18.871 3.14269 -8.94826
431 1 4.71604 20.4431 4.71569 -8.9501
432 1 6.28886 18.8709 3.14318 -8.94936
433 1 7.86193 20.4428 4.71601 -8.94946
434 1 9.43454 18.8708 3.14354 -8.94945
435 1 11.0073 20.4426 4.71623 -8.94938
436 1 12.5799 18.8706 3.14379 -8.94907
437 1 14.1523 20.4426 4.71664 -8.95049
438 1 15.7255 18.8711 3.14353 -8.94956
439 1 17.2973 20.4423 4.71665 -8.9496
440 1 18.8697 18.8702 3.14396 -8.9493
441 1 20.4412 20.442 4.71673 -8.94949
442 1 1.56777 11.007 7.85877 -8.94727
443 1 4.70939 11.007 7.85252 -8.9355
444 1 7.87345 11.007 7.87889 -8.92322
445 1 11.0673 11.007 7.7448 -8.32563
446 1 14.168 11.007 7.85015 -8.95886
447 1 17.3023 11.007 7.85974 -8.9507
448 1 20.4417 11.007 7.86098 -8.95
449 1 22.0123 12.5799 6.28778 -8.94931
450 1 1.56532 14.1544 7.85926 -8.95357
451 1 3.13957 12.5802 6.28466 -8.94739
452 1 4.69256 14.17 7.84459 -8.93681
453 1 6.28446 12.5788 6.27993 -8.96116
454 1 7.81999 14.1932 7.8229 -8.84499
455 1 9.4271 12.5928 6.29409 -8.93091
456 1 11.0179 14.1657 7.83865 -8.89949
457 1 12.6046 12.5975 6.25824 -8.91889
458 1 14.1667 14.1645 7.84932 -8.93502
459 1 15.7338 12.5822 6.28313 -8.9527
460 1 17.3016 14.1544 7.86003 -8.95124
461 1 18.8717 12.5801 6.28788 -8.95048
462 1 20.4411 14.1528 7.86126 -8.95095
463 1 22.0113 15.7261 6.28785 -8.95058
464 1 1.56885 17.2995 7.86071 -8.94915
465 1 3.13537 15.7315 6.28223 -8.94502
466 1 4.71037 17.3055 7.85785 -8.94873
467 1 6.2753 15.7396 6.27456 -8.92922
468 1 7.85935 17.3062 7.86031 -8.95962
469 1 9.43315 15.7332 6.28373 -8.9438
470 1 11.0051 17.2993 7.86178 -8.95353
471 1 12.5848 15.7334 6.2815 -8.9494
472 1 14.1544 17.3016 7.85968 -8.94984
473 1 15.7301 15.7298 6.28474 -8.94603
474 1 17.2985 17.2989 7.86115 -8.94915
475 1 18.8707 15.726 6.28831 -8.95014
476 1 20.441 17.2981 7.86156 -8.94951
477 1 -0.00123418 18.8704 6.28882 -8.94941
478 1 1.57097 20.4425 7.86154 -8.94936
479 1 3.14186 18.8725 6.28735 -8.94927
480 1 4.7155 20.4438 7.86111 -8.9504
481 1 6.28773 18.8739 6.2873 -8.95172
482 1 7.86199 20.4435 7.86169 -8.95147
483 1 9.43455 18.8724 6.28793 -8.94986
484 1 11.0068 20.4422 7.86192 -8.94957
485 1 12.5795 18.8715 6.28889 -8.9517
486 1 14.1524 20.4427 7.86163 -8.95037
487 1 15.7256 18.8714 6.28851 -8.94964
488 1 17.2973 20.4423 7.8617 -8.94943
489 1 18.8695 18.8702 6.28908 -8.94946
490 1 20.4412 20.4421 7.86181 -8.94944
491 1 22.0113 12.5796 9.43396 -8.95156
492 1 3.13246 12.5816 9.4303 -8.95992
493 1 6.24131 12.6299 9.39089 -8.86534
494 1 9.34708 12.8314 9.44131 -7.95248
495 1 12.6034 12.6126 9.39049 -8.80788
496 1 15.7332 12.5823 9.43068 -8.94953
497 1 18.8715 12.5801 9.43396 -8.9501
498 1 -0.00255633 15.726 9.43421 -8.94987
513 1 4.71761 11.007 10.9988 -9.00904
514 1 7.59264 11.007 10.9197 -7.99176
531 1 17.2987 17.2989 11.0067 -8.94893
526 1 1.56904 17.2992 11.0074 -8.94909
527 1 4.71036 17.304 11.0083 -8.94623
389 1 15.7251 18.8702 0.000212531 -8.94958
365 1 22.0138 15.7245 -0.000366182 -8.94944
377 1 18.87 15.7249 -0.00031182 -8.9494
512 1 1.57027 11.007 11.0067 -8.94588
687 3 9.48059 11.007 11.5802 2.16021
686 1 20.4417 20.4419 20.4418 -8.94904
515 1 11.419 11.007 11.0889 -7.17014
516 1 14.1776 11.007 11.0124 -9.02112
517 1 17.3034 11.007 11.0071 -8.95394
518 1 20.4425 11.007 11.0071 -8.94934
519 1 1.56661 14.1537 11.0073 -8.9525
520 1 4.69702 14.1617 11.0089 -8.95597
521 1 7.80121 14.1898 11.0366 -8.81822
522 1 11.0469 14.1584 11.0191 -8.87039
523 1 14.1661 14.1581 11.0061 -8.954
524 1 17.3016 14.154 11.0069 -8.95049
525 1 20.4415 14.1527 11.0071 -8.95059
391 1 18.8698 18.8698 22.0138 -8.94925
385 1 9.43442 18.8702 22.0142 -8.94942
528 1 7.85829 17.3056 11.0097 -8.95848
529 1 11.0067 17.2986 11.0076 -8.95008
530 1 14.155 17.301 11.0061 -8.94689
685 1 18.8703 18.8702 18.8701 -8.94887
684 1 17.2975 20.4421 20.4422 -8.94923
533 1 1.57091 20.4425 11.0071 -8.94936
683 1 15.7261 18.871 18.8711 -8.94864
535 1 7.86192 20.4435 11.0072 -8.95107
536 1 11.0069 20.4423 11.0068 -8.94887
537 1 14.1528 20.4428 11.0065 -8.94948
682 1 14.1525 20.4422 20.4423 -8.94937
539 1 20.4413 20.4421 11.007 -8.94946
540 1 1.57176 11.007 14.1529 -8.94812
541 1 4.7176 11.007 14.1508 -8.94013
542 1 7.87482 11.007 14.1146 -8.93107
543 1 11.0086 11.007 14.1422 -8.97695
544 1 14.1634 11.007 14.164 -8.93643
545 1 17.3026 11.007 14.1556 -8.94761
546 1 20.4431 11.007 14.1531 -8.94954
547 1 22.0134 12.5794 12.5799 -8.95002
548 1 1.56984 14.1523 14.1531 -8.95206
549 1 3.14068 12.5793 12.5795 -8.95273
550 1 4.70643 14.159 14.1598 -8.94931
551 1 6.27355 12.6018 12.5962 -8.88825
552 1 7.83934 14.1811 14.1847 -8.90472
553 1 9.43853 12.7417 12.635 -8.24011
554 1 11.0291 14.1838 14.1887 -8.88929
555 1 12.6325 12.641 12.6442 -8.77062
556 1 14.1763 14.1737 14.1748 -8.92279
557 1 15.7394 12.5841 12.5863 -8.95691
558 1 17.3044 14.1553 14.1557 -8.95268
559 1 18.873 12.58 12.5805 -8.95174
560 1 20.4429 14.1525 14.1528 -8.95087
561 1 -0.0019089 15.7257 12.5803 -8.95016
562 1 1.5694 17.2988 14.1536 -8.94919
563 1 3.13711 15.7291 12.5826 -8.94878
564 1 4.71041 17.3043 14.1579 -8.94418
565 1 6.2723 15.7446 12.5934 -8.93187
566 1 7.86039 17.3054 14.1567 -8.95563
567 1 9.43574 15.7297 12.5862 -8.98437
568 1 11.0085 17.3064 14.1573 -8.95452
569 1 12.5902 15.7434 12.588 -8.95686
570 1 14.1575 17.3057 14.1567 -8.95017
571 1 15.7305 15.7295 12.581 -8.94943
572 1 17.2996 17.2995 14.153 -8.94979
573 1 18.8711 15.7259 12.5799 -8.9498
574 1 20.4416 17.2979 14.1525 -8.94972
575 1 22.0128 18.8703 12.5798 -8.94934
576 1 1.57101 20.4424 14.1526 -8.9493
577 1 3.14185 18.872 12.5807 -8.94891
578 1 4.71535 20.4437 14.1533 -8.95017
579 1 6.28673 18.8753 12.5814 -8.9525
580 1 7.86184 20.4437 14.153 -8.9507
581 1 9.43478 18.8721 12.5808 -8.94816
582 1 11.0074 20.4438 14.1529 -8.95098
583 1 12.5807 18.8739 12.5797 -8.95377
584 1 14.1531 20.4437 14.1525 -8.951
585 1 15.726 18.8715 12.5794 -8.9494
586 1 17.2977 20.4424 14.152 -8.94958
587 1 18.8697 18.8703 12.5795 -8.94934
588 1 20.4414 20.442 14.1521 -8.94944
589 1 1.57204 11.007 17.2975 -8.94966
590 1 4.7162 11.007 17.2977 -8.94769
591 1 7.86304 11.007 17.292 -8.93527
592 1 11.0065 11.007 17.2983 -8.94188
593 1 14.1563 11.007 17.3038 -8.94661
594 1 17.2997 11.007 17.2994 -8.94919
595 1 20.4425 11.007 17.2978 -8.94949
596 1 22.0142 12.5794 15.7253 -8.94916
597 1 1.57192 14.1517 17.2975 -8.94948
598 1 3.14422 12.5788 15.7251 -8.94801
599 1 4.71608 14.1515 17.2989 -8.95233
600 1 6.29122 12.5762 15.7252 -8.95725
601 1 7.86009 14.1552 17.3053 -8.95713
602 1 9.43476 12.5844 15.7295 -8.96846
603 1 11.008 14.1564 17.3076 -8.9562
604 1 12.5841 12.581 15.7404 -8.96354
605 1 14.1559 14.1549 17.3046 -8.95299
606 1 15.7302 12.5809 15.7306 -8.94721
607 1 17.2997 14.153 17.2994 -8.94919
608 1 18.8718 12.5798 15.7262 -8.94904
609 1 20.4425 14.1521 17.2977 -8.94935
610 1 22.0133 15.725 15.7254 -8.95067
611 1 1.5706 17.298 17.2985 -8.94949
612 1 3.13998 15.7272 15.7283 -8.94948
613 1 4.71309 17.3006 17.3016 -8.9466
614 1 6.27963 15.7348 15.737 -8.9393
615 1 7.86037 17.3008 17.3013 -8.94763
616 1 9.43375 15.7344 15.7354 -8.94139
617 1 11.008 17.3013 17.3017 -8.94789
618 1 12.5892 15.7372 15.7385 -8.93679
619 1 14.1561 17.3019 17.3021 -8.94622
620 1 15.7338 15.7326 15.7328 -8.94225
621 1 17.3003 17.2998 17.2997 -8.94746
622 1 18.8722 15.7262 15.7263 -8.95037
623 1 20.4422 17.2977 17.2978 -8.94983
624 1 -0.00088202 18.8701 15.7252 -8.94941
625 1 1.57124 20.4422 17.2978 -8.9491
626 1 3.14201 18.8717 15.7267 -8.94814
627 1 4.71592 20.4428 17.2983 -8.94989
628 1 6.2877 18.8731 15.7271 -8.95086
629 1 7.86147 20.443 17.2985 -8.94928
630 1 9.43432 18.8736 15.7277 -8.94926
631 1 11.0074 20.4431 17.2985 -8.94934
632 1 12.5812 18.8738 15.7272 -8.95045
633 1 14.1531 20.4431 17.2983 -8.94978
634 1 15.7271 18.8727 15.7265 -8.94955
635 1 17.298 20.4426 17.2978 -8.94947
636 1 18.8701 18.8704 15.725 -8.94966
637 1 20.4416 20.442 17.2972 -8.94949
638 1 1.57199 11.007 20.4415 -8.94953
639 1 4.71644 11.007 20.4416 -8.9497
640 1 7.86159 11.007 20.4414 -8.94677
641 1 11.0067 11.007 20.4425 -8.94821
642 1 14.1535 11.007 20.443 -8.95013
643 1 17.2983 11.007 20.4421 -8.94942
644 1 20.442 11.007 20.4417 -8.94948
645 1 0.000105558 12.5794 18.8696 -8.94951
646 1 1.57201 14.1519 20.4416 -8.94939
647 1 3.1441 12.5793 18.8697 -8.9491
648 1 4.71665 14.1516 20.4419 -8.94995
649 1 6.28937 12.5785 18.8697 -8.94966
650 1 7.86149 14.1523 20.4433 -8.95162
651 1 9.43395 12.5792 18.8712 -8.95
652 1 11.0068 14.1527 20.444 -8.95163
653 1 12.5802 12.5794 18.8736 -8.9524
654 1 14.153 14.1527 20.4431 -8.95081
655 1 15.7267 12.58 18.872 -8.94888
656 1 17.2982 14.1525 20.4422 -8.94926
657 1 18.8705 12.5796 18.8702 -8.94935
658 1 20.442 14.1521 20.4417 -8.94944
659 1 22.0139 15.7244 18.8696 -8.94965
660 1 1.57182 17.297 20.4418 -8.94995
661 1 3.14375 15.7245 18.8704 -8.95062
662 1 4.71589 17.2978 20.4428 -8.95003
663 1 6.28757 15.7262 18.8732 -8.95125
664 1 7.86132 17.2982 20.4431 -8.94927
665 1 9.43393 15.7272 18.8739 -8.94908
666 1 11.0072 17.2984 20.4433 -8.94931
667 1 12.5811 15.7271 18.8742 -8.95058
668 1 14.153 17.2984 20.4433 -8.9497
669 1 15.7268 15.7263 18.8722 -8.95043
670 1 17.2981 17.2979 20.4423 -8.94962
671 1 18.8704 15.7249 18.8701 -8.94952
672 1 20.4419 17.2971 20.4417 -8.9496
673 1 22.0135 18.8698 18.8699 -8.94939
674 1 1.5717 20.442 20.442 -8.94911
675 1 3.14315 18.8705 18.8708 -8.94866
676 1 4.71654 20.4421 20.4422 -8.94939
677 1 6.28853 18.8708 18.871 -8.94912
678 1 7.86174 20.4422 20.4423 -8.9494
679 1 9.4343 18.871 18.8712 -8.94936
680 1 11.0071 20.4422 20.4424 -8.94941
681 1 12.5803 18.8711 18.8712 -8.9491
351 1 22.0138 12.5795 22.0135 -8.94949
353 1 3.14407 12.5794 22.0132 -8.94953
357 1 9.43411 12.5794 22.0141 -8.94883
359 1 12.58 12.5797 22.0132 -8.95136
383 1 6.28906 18.8701 22.014 -8.94933
367 1 3.14413 15.7245 22.0134 -8.95004
369 1 6.28879 15.725 22.0137 -8.95086
375 1 15.7258 15.7256 22.0134 -8.95004
381 1 3.14385 18.8699 22.0137 -8.94948
363 1 18.8701 12.5796 22.0135 -8.94942
379 1 22.0136 18.8695 22.0137 -8.94956
387 1 12.5798 18.8702 22.0142 -8.94929
