ITEM: TIMESTEP
77
ITEM: NUMBER OF ATOMS
688
ITEM: BOX BOUNDS pp pp pp
0.0000000000000000e+00 2.2013900999999997e+01
0.0000000000000000e+00 2.2013900999999997e+01
0.0000000000000000e+00 2.2013900999999997e+01
ITEM: ATOMS id type x y z c_pot
1 1 22.0137 8.44417e-16 -2.58308e-06 -8.94915
2 1 1.57191 1.57205 1.57202 -8.9492
189 1 20.4414 4.7163 11.007 -8.94951
4 1 4.71694 1.572 1.57203 -8.94958
5 1 6.28951 1.03853e-15 4.15663e-05 -8.94952
6 1 7.86202 1.57197 1.57206 -8.94949
175 1 18.871 9.43403 9.43426 -8.94991
8 1 11.0071 1.57196 1.57209 -8.94951
9 1 12.5795 6.57556e-16 7.0739e-05 -8.94953
10 1 14.152 1.57199 1.57219 -8.94947
174 1 15.7314 9.4323 9.43143 -8.94971
12 1 17.2971 1.57194 1.57214 -8.94951
188 1 17.2983 4.71558 11.0067 -8.9489
14 1 20.4415 1.57217 1.57219 -8.94934
181 1 17.2973 1.57184 11.0068 -8.94949
16 1 1.57182 4.71677 1.57165 -8.94981
173 1 12.6003 9.40441 9.39059 -8.81027
18 1 4.71618 4.7161 1.571 -8.94976
172 1 9.34435 9.19072 9.44683 -7.96997
20 1 7.86175 4.71605 1.57143 -8.94917
171 1 6.2419 9.38632 9.39154 -8.86746
22 1 11.0071 4.71599 1.57159 -8.94926
177 1 4.71573 1.57059 11.0071 -8.94943
24 1 14.1524 4.716 1.57158 -8.9499
170 1 3.1333 9.43301 9.43115 -8.96027
26 1 17.2979 4.71598 1.57135 -8.94863
169 1 22.0115 9.43445 9.43429 -8.95153
28 1 20.4417 4.71685 1.57197 -8.94956
168 1 18.8703 6.28839 9.43436 -8.94949
30 1 1.57187 7.86191 1.57164 -8.94933
167 1 15.7281 6.2861 9.43336 -8.94696
32 1 4.71662 7.86209 1.57103 -8.95027
166 1 12.5829 6.28164 9.42972 -8.95191
34 1 7.86177 7.86163 1.57059 -8.95207
35 1 9.43423 6.28861 0.000206066 -8.94992
36 1 11.0066 7.86119 1.5706 -8.95056
37 1 12.5797 6.28872 0.000174926 -8.95016
38 1 14.1535 7.86053 1.56927 -8.95123
165 1 9.42832 6.29612 9.43851 -9.00566
40 1 17.2981 7.86137 1.57122 -8.94922
164 1 6.27485 6.27044 9.4302 -8.95061
42 1 20.4418 7.86185 1.57189 -8.94946
163 1 3.13761 6.28494 9.43353 -8.94818
162 1 -0.00194129 6.28845 9.43442 -8.94983
45 1 6.28922 9.43474 -0.00029188 -8.94962
161 1 18.8695 3.14404 9.43439 -8.94945
160 1 15.7254 3.14314 9.4341 -8.94917
48 1 15.7256 9.43412 -0.000644142 -8.94939
159 1 12.5797 3.1427 9.43422 -8.95131
50 1 22.0135 1.79998e-16 3.14453 -8.94944
51 1 1.57158 1.57172 4.71657 -8.94945
52 1 3.14427 1.01258e-15 3.1442 -8.9496
53 1 4.71645 1.57119 4.71617 -8.95005
54 1 6.2895 8.78127e-16 3.14423 -8.94948
55 1 7.86206 1.57134 4.71631 -8.94948
56 1 9.43462 5.72538e-16 3.14424 -8.94952
57 1 11.0073 1.57148 4.71641 -8.94942
58 1 12.5796 1.04858e-15 3.14436 -8.94943
59 1 14.1522 1.57154 4.71681 -8.95046
60 1 15.7246 6.0142e-16 3.14452 -8.94999
61 1 17.2971 1.57186 4.71691 -8.94959
62 1 18.8693 6.18329e-16 3.14464 -8.94954
63 1 20.4414 1.57211 4.71703 -8.94958
64 1 22.0133 3.14413 3.1441 -8.9491
65 1 1.56985 4.71513 4.71505 -8.94808
66 1 3.14346 3.1434 3.14332 -8.9484
67 1 4.71308 4.7126 4.71241 -8.94487
68 1 6.28919 3.1435 3.14362 -8.94945
69 1 7.86127 4.71373 4.71441 -8.94832
70 1 9.43458 3.1435 3.14378 -8.94947
71 1 11.0074 4.71434 4.71495 -8.94738
72 1 12.5797 3.14359 3.14399 -8.94909
73 1 14.1542 4.71316 4.71444 -8.95013
74 1 15.7252 3.14327 3.14384 -8.94962
75 1 17.2984 4.71539 4.71591 -8.94886
76 1 18.8695 3.14413 3.14432 -8.9494
77 1 20.4413 4.71639 4.71654 -8.94972
78 1 22.0136 6.28924 3.14402 -8.94967
79 1 1.57063 7.86153 4.71547 -8.94931
80 1 3.14324 6.28866 3.14257 -8.95052
81 1 4.71389 7.86054 4.71192 -8.95316
82 1 6.28755 6.28723 3.14033 -8.95075
83 1 7.85855 7.8571 4.70754 -8.95694
84 1 9.43422 6.28714 3.14183 -8.94818
85 1 11.0065 7.85874 4.71007 -8.95241
86 1 12.5801 6.28747 3.14182 -8.94994
87 1 14.162 7.85252 4.70538 -8.93918
88 1 15.7279 6.28605 3.14091 -8.94643
89 1 17.3005 7.86011 4.71475 -8.95017
90 1 18.8703 6.28873 3.14378 -8.94959
91 1 20.442 7.86156 4.71631 -8.94979
92 1 -0.000325204 9.43435 3.14387 -8.94945
93 1 3.14341 9.43428 3.14267 -8.94876
94 1 6.28937 9.43525 3.14233 -8.95154
95 1 9.43448 9.43403 3.14384 -8.94664
96 1 12.5821 9.43314 3.1368 -8.95717
97 1 15.7277 9.43326 3.14107 -8.9481
98 1 18.8705 9.43417 3.14366 -8.94934
99 1 22.0135 2.00457e-16 6.28947 -8.94953
100 1 1.57153 1.57174 7.86181 -8.94942
101 1 3.14394 5.48785e-16 6.28902 -8.94981
102 1 4.71603 1.57054 7.86137 -8.95032
103 1 6.28938 1.10569e-15 6.28899 -8.95056
104 1 7.86216 1.57061 7.86173 -8.9513
105 1 9.4348 1.64447e-15 6.28899 -8.95016
106 1 11.0069 1.57168 7.86191 -8.94944
107 1 12.5795 1.4722e-15 6.28941 -8.95008
108 1 14.1523 1.57137 7.86176 -8.95032
109 1 15.7247 3.32431e-16 6.28938 -8.94988
110 1 17.2972 1.57187 7.86188 -8.94945
111 1 18.8693 -1.67527e-16 6.28953 -8.94952
112 1 20.4414 1.57207 7.86197 -8.94951
113 1 -0.000760186 3.14401 6.28923 -8.94951
114 1 1.56984 4.71522 7.86123 -8.94926
115 1 3.14268 3.14218 6.288 -8.94928
116 1 4.71162 4.70965 7.85844 -8.94869
117 1 6.28831 3.1408 6.28779 -8.95158
118 1 7.86013 4.70855 7.86054 -8.95922
119 1 9.43476 3.14184 6.28818 -8.94996
120 1 11.0052 4.71502 7.86195 -8.95275
121 1 12.5795 3.1427 6.28913 -8.95176
122 1 14.1541 4.71276 7.86019 -8.94976
123 1 15.7254 3.14297 6.28889 -8.94956
124 1 17.2981 4.71562 7.86157 -8.9492
125 1 18.8694 3.14412 6.28939 -8.94952
126 1 20.4413 4.71633 7.86184 -8.94951
127 1 22.0119 6.28838 6.28845 -8.95051
128 1 1.56631 7.86007 7.85997 -8.95347
129 1 3.13671 6.2835 6.28336 -8.94504
130 1 4.69424 7.84536 7.84575 -8.93667
131 1 6.27685 6.27581 6.27577 -8.93027
132 1 7.82202 7.82289 7.82469 -8.84956
133 1 9.43358 6.28126 6.28428 -8.9449
134 1 11.016 7.85088 7.83973 -8.90449
135 1 12.5842 6.28082 6.28251 -8.95159
136 1 14.1655 7.8502 7.851 -8.9347
137 1 15.7294 6.28485 6.28581 -8.94623
138 1 17.3009 7.86008 7.86085 -8.95121
139 1 18.8704 6.28845 6.28887 -8.9501
140 1 20.4413 7.86139 7.86165 -8.95085
141 1 22.0126 9.43422 6.28837 -8.94939
142 1 3.14024 9.43402 6.28551 -8.94743
143 1 6.28481 9.43533 6.28012 -8.96156
144 1 9.42565 9.41957 6.29232 -8.92337
145 1 12.608 9.41276 6.25615 -8.90938
146 1 15.7338 9.43173 6.28401 -8.95356
147 1 18.8715 9.434 6.28851 -8.95071
148 1 -0.000416103 1.50877e-15 9.43447 -8.94953
149 1 3.14377 1.63196e-15 9.43433 -8.94944
150 1 6.28906 1.34398e-15 9.43437 -8.95096
151 1 9.43479 1.18675e-15 9.43426 -8.94816
152 1 12.5797 1.27683e-15 9.43431 -8.95002
153 1 15.7249 6.99836e-16 9.43425 -8.94954
154 1 18.8693 1.22161e-16 9.43443 -8.94954
155 1 22.0132 3.14399 9.43445 -8.94943
156 1 3.14269 3.14248 9.43423 -8.94907
157 1 6.28743 3.13935 9.43434 -8.95219
158 1 9.4344 3.1441 9.4346 -8.94513
183 1 1.5699 4.71541 11.0073 -8.94913
184 1 4.71166 4.71103 11.008 -8.94621
11 1 15.7245 1.69503e-15 8.73567e-05 -8.94956
25 1 15.7248 3.14412 0.000123637 -8.9496
29 1 22.0138 6.28953 -0.000194317 -8.94948
41 1 18.8697 6.28932 -0.000222189 -8.94946
176 1 1.57147 1.57176 11.007 -8.94945
343 1 18.87 9.43439 18.8698 -8.94943
178 1 7.86212 1.57055 11.007 -8.95108
179 1 11.0069 1.57157 11.0067 -8.94898
180 1 14.1527 1.57127 11.0065 -8.9494
342 1 15.7261 9.43409 18.8713 -8.94886
182 1 20.4414 1.57206 11.007 -8.94954
47 1 12.5798 9.43436 22.0131 -8.9514
46 1 9.43419 9.4346 22.0141 -8.94905
185 1 7.85925 4.70873 11.0094 -8.95936
186 1 11.0065 4.71534 11.0073 -8.951
187 1 14.1544 4.7136 11.0058 -8.94697
341 1 12.5801 9.43466 18.8733 -8.95223
340 1 9.43387 9.43475 18.8718 -8.95028
190 1 1.56738 7.86072 11.0075 -8.95241
191 1 4.69861 7.85366 11.0092 -8.95666
192 1 7.80136 7.8236 11.0351 -8.81464
193 1 11.0459 7.85501 11.0168 -8.8681
194 1 14.164 7.85696 11.0055 -8.95508
195 1 17.3007 7.86047 11.0067 -8.95042
196 1 20.4415 7.86144 11.0071 -8.95046
197 1 -0.000407013 1.49465e-15 12.5795 -8.94953
198 1 1.57153 1.57182 14.1522 -8.94941
199 1 3.14375 1.22044e-15 12.5797 -8.94938
200 1 4.71587 1.57065 14.1528 -8.95006
201 1 6.28903 8.53685e-16 12.5796 -8.95111
202 1 7.86199 1.57045 14.1525 -8.95077
203 1 9.43475 1.12593e-15 12.5795 -8.94907
204 1 11.0073 1.57029 14.1525 -8.95104
205 1 12.5798 1.44325e-15 12.5791 -8.95092
206 1 14.1528 1.57062 14.1522 -8.9508
207 1 15.725 1.57738e-15 12.5792 -8.94951
208 1 17.2973 1.57181 14.1519 -8.94959
209 1 18.8694 1.35115e-15 12.5794 -8.94952
210 1 20.4414 1.57209 14.1519 -8.9495
211 1 22.0132 3.14403 12.5796 -8.94941
212 1 1.57003 4.71564 14.1531 -8.94921
213 1 3.14267 3.14262 12.5802 -8.949
214 1 4.71133 4.71064 14.1569 -8.94403
215 1 6.28732 3.13929 12.5808 -8.95235
216 1 7.86074 4.7089 14.1559 -8.95648
217 1 9.43488 3.14214 12.5803 -8.94735
218 1 11.0082 4.70788 14.1564 -8.95544
219 1 12.5805 3.14036 12.5794 -8.95358
220 1 14.1567 4.70935 14.1556 -8.95005
221 1 15.7256 3.14297 12.5792 -8.94944
222 1 17.2989 4.71526 14.1525 -8.94979
223 1 18.8696 3.14404 12.5794 -8.94939
224 1 20.4415 4.71643 14.1522 -8.94969
225 1 -0.00157891 6.28865 12.58 -8.95009
226 1 1.57011 7.86188 14.1527 -8.95204
227 1 3.13818 6.28568 12.5821 -8.94888
228 1 4.70715 7.85614 14.159 -8.95116
229 1 6.27335 6.27044 12.5926 -8.93112
230 1 7.83658 7.83132 14.1875 -8.89647
231 1 9.43578 6.28681 12.5862 -8.98828
232 1 11.0313 7.8285 14.1911 -8.88061
233 1 12.5892 6.27132 12.5868 -8.95664
234 1 14.1749 7.84164 14.173 -8.9248
235 1 15.7294 6.28538 12.5802 -8.94956
236 1 17.3032 7.85935 14.1547 -8.95292
237 1 18.8706 6.28849 12.5796 -8.94973
238 1 20.4425 7.86168 14.1525 -8.95081
239 1 22.0133 9.43462 12.5799 -8.94982
240 1 3.14152 9.43508 12.5796 -8.95209
241 1 6.27685 9.41417 12.595 -8.89315
242 1 9.43814 9.25428 12.6408 -8.22047
243 1 12.6287 9.37424 12.6425 -8.77485
244 1 15.7372 9.4306 12.585 -8.95715
245 1 18.8722 9.43418 12.5801 -8.95155
246 1 22.0135 -5.95257e-16 15.7245 -8.94953
247 1 1.57165 1.57191 17.2973 -8.94921
248 1 3.14387 7.00309e-17 15.7249 -8.94954
249 1 4.71632 1.57137 17.2977 -8.94995
250 1 6.28917 2.86142e-16 15.725 -8.95026
251 1 7.86165 1.5712 17.2979 -8.94932
252 1 9.43451 7.73303e-16 15.7253 -8.95013
253 1 11.0073 1.57113 17.298 -8.94936
254 1 12.5799 6.16123e-16 15.725 -8.95034
255 1 14.1527 1.57115 17.2978 -8.94982
256 1 15.7251 9.57299e-16 15.7247 -8.95005
257 1 17.2975 1.57166 17.2973 -8.94952
258 1 18.8694 4.3434e-16 15.7244 -8.94963
259 1 20.4415 1.57211 17.2969 -8.94957
260 1 -0.000641215 3.14417 15.7247 -8.94945
261 1 1.57092 4.71627 17.298 -8.94957
262 1 3.14268 3.14277 15.726 -8.9482
263 1 4.71339 4.71361 17.3011 -8.94616
264 1 6.28809 3.14126 15.7264 -8.95108
265 1 7.86056 4.71354 17.3006 -8.94751
266 1 9.43435 3.14072 15.727 -8.94931
267 1 11.0078 4.71321 17.3009 -8.9478
268 1 12.5809 3.1406 15.7265 -8.95065
269 1 14.1556 4.7127 17.3013 -8.94585
270 1 15.7264 3.142 15.7258 -8.94955
271 1 17.2995 4.71487 17.299 -8.94763
272 1 18.8698 3.14401 15.7246 -8.94969
273 1 20.442 4.71659 17.2974 -8.94985
274 1 22.0133 6.28919 15.725 -8.95062
275 1 1.57189 7.86233 17.2973 -8.94954
276 1 3.14048 6.28729 15.7275 -8.94988
277 1 4.71604 7.86262 17.2987 -8.95213
278 1 6.27923 6.27899 15.7371 -8.93768
279 1 7.85975 7.85883 17.3059 -8.95741
280 1 9.43367 6.27968 15.7352 -8.94135
281 1 11.0081 7.85782 17.3077 -8.95656
282 1 12.5894 6.27692 15.738 -8.93514
283 1 14.1553 7.85963 17.3035 -8.95284
284 1 15.7328 6.28249 15.7314 -8.94277
285 1 17.2989 7.86139 17.2986 -8.94926
286 1 18.8715 6.28832 15.7256 -8.95043
287 1 20.4421 7.86195 17.2973 -8.94941
288 1 22.0139 9.43456 15.725 -8.94924
289 1 3.14417 9.43532 15.725 -8.94831
290 1 6.29076 9.43805 15.7257 -8.95621
291 1 9.43422 9.42876 15.7314 -8.96881
292 1 12.5834 9.43347 15.7398 -8.96269
293 1 15.7291 9.43356 15.7293 -8.94741
294 1 18.8711 9.43427 15.7256 -8.94912
295 1 -0.00025051 5.86114e-16 18.8693 -8.94937
296 1 1.57196 1.57208 20.4418 -8.94919
297 1 3.14424 3.04263e-16 18.8697 -8.94961
298 1 4.71686 1.57202 20.4419 -8.94948
299 1 6.28929 1.04436e-15 18.8698 -8.94938
300 1 7.86192 1.57194 20.442 -8.94948
301 1 9.43447 4.83048e-16 18.8699 -8.94947
302 1 11.0071 1.57193 20.442 -8.94949
303 1 12.5797 1.25979e-15 18.8698 -8.9494
304 1 14.1522 1.57196 20.442 -8.94947
305 1 15.7248 1.54799e-15 18.8697 -8.94953
306 1 17.2971 1.57202 20.4419 -8.9493
307 1 18.8694 8.25846e-16 18.8694 -8.94945
308 1 20.4416 1.57217 20.4417 -8.94921
309 1 22.0136 3.14438 18.8696 -8.94947
310 1 1.57199 4.71705 20.4417 -8.94991
311 1 3.14352 3.14368 18.8704 -8.94857
312 1 4.71618 4.71631 20.4426 -8.94995
313 1 6.28887 3.14351 18.8705 -8.94914
314 1 7.86153 4.71602 20.4428 -8.94924
315 1 9.43438 3.14333 18.8706 -8.94941
316 1 11.0071 4.71593 20.4429 -8.94929
317 1 12.58 3.14332 18.8706 -8.94916
318 1 14.1527 4.716 20.4429 -8.94966
319 1 15.7256 3.14338 18.8705 -8.94858
320 1 17.2976 4.71648 20.442 -8.94966
321 1 18.8699 3.14407 18.8697 -8.949
322 1 20.4417 4.71706 20.4416 -8.94966
323 1 22.0138 6.28962 18.8694 -8.94967
324 1 1.57204 7.86206 20.4416 -8.94941
325 1 3.14393 6.28954 18.8701 -8.9505
326 1 4.71669 7.86228 20.4419 -8.94983
327 1 6.28768 6.28788 18.873 -8.95118
328 1 7.86152 7.86174 20.4434 -8.95171
329 1 9.434 6.28711 18.8735 -8.94904
330 1 11.0068 7.86143 20.4438 -8.95171
331 1 12.581 6.28726 18.8736 -8.95058
332 1 14.1527 7.86151 20.4427 -8.9507
333 1 15.7262 6.28825 18.8714 -8.9504
334 1 17.2977 7.86172 20.4419 -8.94928
335 1 18.8699 6.28931 18.8697 -8.94959
336 1 20.4417 7.86198 20.4416 -8.94951
337 1 -9.15526e-05 9.43449 18.8695 -8.94955
338 1 3.14403 9.43461 18.8698 -8.94907
339 1 6.28915 9.43537 18.87 -8.94957
7 1 9.43452 2.90416e-16 22.014 -8.94954
44 1 3.14417 9.43446 22.0135 -8.94953
17 1 3.14419 3.14422 22.0138 -8.94948
19 1 6.28933 3.14414 22.014 -8.94938
21 1 9.43447 3.14405 22.014 -8.94947
43 1 22.0138 9.43446 22.0137 -8.94955
27 1 18.8696 3.14437 22.0138 -8.94929
39 1 15.7253 6.28869 22.0133 -8.95004
31 1 3.14433 6.28954 22.0136 -8.94995
33 1 6.28897 6.28904 22.0138 -8.95084
3 1 3.14456 9.07006e-16 22.0139 -8.94959
13 1 18.8693 8.97936e-16 22.0139 -8.94925
15 1 22.0137 3.14459 22.0138 -8.94961
23 1 12.5796 3.14407 22.0141 -8.94937
49 1 18.8697 9.43439 22.0137 -8.94949
344 1 1.57182 11.007 1.57158 -8.94951
345 1 4.71634 11.007 1.57083 -8.9499
346 1 7.86218 11.007 1.57228 -8.94764
347 1 11.0068 11.007 1.57087 -8.94932
348 1 14.154 11.007 1.56904 -8.94967
349 1 17.2981 11.007 1.5712 -8.94941
350 1 20.4418 11.007 1.57186 -8.94951
688 3 10.1526 11.007 9.53234 2.23096
352 1 1.57187 14.152 1.57164 -8.94933
511 1 18.8695 18.8699 9.43439 -8.94945
354 1 4.71662 14.1518 1.57103 -8.95027
355 1 6.28922 12.5792 -0.00029188 -8.94962
356 1 7.86177 14.1523 1.57059 -8.95207
510 1 15.7254 18.8708 9.4341 -8.94917
358 1 11.0066 14.1527 1.5706 -8.95056
509 1 12.5797 18.8712 9.43422 -8.95131
360 1 14.1535 14.1534 1.56927 -8.95123
361 1 15.7256 12.5798 -0.000644142 -8.94939
362 1 17.2981 14.1525 1.57122 -8.94922
538 1 17.2973 20.4421 11.0068 -8.94949
364 1 20.4418 14.152 1.57189 -8.94946
508 1 9.4344 18.8698 9.4346 -8.94513
366 1 1.57182 17.2971 1.57165 -8.94981
507 1 6.28743 18.8745 9.43434 -8.95219
368 1 4.71618 17.2978 1.571 -8.94976
506 1 3.14269 18.8714 9.43423 -8.94907
370 1 7.86175 17.2978 1.57143 -8.94917
371 1 9.43423 15.7253 0.000206066 -8.94992
372 1 11.0071 17.2979 1.57159 -8.94926
373 1 12.5797 15.7252 0.000174926 -8.95016
374 1 14.1524 17.2979 1.57158 -8.9499
505 1 22.0132 18.8699 9.43445 -8.94943
376 1 17.2979 17.2979 1.57135 -8.94863
504 1 18.8703 15.7255 9.43436 -8.94949
378 1 20.4417 17.2971 1.57197 -8.94956
534 1 4.71573 20.4433 11.0071 -8.94943
380 1 1.57191 20.4419 1.57202 -8.9492
503 1 15.7281 15.7278 9.43336 -8.94696
382 1 4.71694 20.4419 1.57203 -8.94958
502 1 12.5829 15.7323 9.42972 -8.95191
384 1 7.86202 20.4419 1.57206 -8.94949
501 1 9.42832 15.7178 9.43851 -9.00566
386 1 11.0071 20.4419 1.57209 -8.94951
532 1 20.4414 17.2976 11.007 -8.94951
388 1 14.152 20.4419 1.57219 -8.94947
500 1 6.27485 15.7435 9.4302 -8.95061
390 1 17.2971 20.442 1.57214 -8.94951
499 1 3.13761 15.729 9.43353 -8.94818
392 1 20.4415 20.4417 1.57219 -8.94934
393 1 1.57065 11.007 4.71519 -8.94928
394 1 4.71411 11.007 4.71194 -8.94598
395 1 7.86543 11.007 4.71989 -8.94474
396 1 11.0092 11.007 4.71211 -8.98379
397 1 14.1609 11.007 4.70691 -8.94297
398 1 17.3007 11.007 4.71455 -8.94917
399 1 20.4421 11.007 4.71615 -8.94972
400 1 -0.000325204 12.5795 3.14387 -8.94945
401 1 1.57063 14.1524 4.71547 -8.94931
402 1 3.14341 12.5796 3.14267 -8.94876
403 1 4.71389 14.1534 4.71192 -8.95316
404 1 6.28937 12.5787 3.14233 -8.95154
405 1 7.85855 14.1568 4.70754 -8.95694
406 1 9.43448 12.5799 3.14384 -8.94664
407 1 11.0065 14.1552 4.71007 -8.95241
408 1 12.5821 12.5808 3.1368 -8.95717
409 1 14.162 14.1614 4.70538 -8.93918
410 1 15.7277 12.5806 3.14107 -8.9481
411 1 17.3005 14.1538 4.71475 -8.95017
412 1 18.8705 12.5797 3.14366 -8.94934
413 1 20.442 14.1523 4.71631 -8.94979
414 1 22.0136 15.7247 3.14402 -8.94967
415 1 1.56985 17.2988 4.71505 -8.94808
416 1 3.14324 15.7252 3.14257 -8.95052
417 1 4.71308 17.3013 4.71241 -8.94487
418 1 6.28755 15.7267 3.14033 -8.95075
419 1 7.86127 17.3002 4.71441 -8.94832
420 1 9.43422 15.7268 3.14183 -8.94818
421 1 11.0074 17.2996 4.71495 -8.94738
422 1 12.5801 15.7264 3.14182 -8.94994
423 1 14.1542 17.3007 4.71444 -8.95013
424 1 15.7279 15.7279 3.14091 -8.94643
425 1 17.2984 17.2985 4.71591 -8.94886
426 1 18.8703 15.7252 3.14378 -8.94959
427 1 20.4413 17.2975 4.71654 -8.94972
428 1 22.0133 18.8698 3.1441 -8.9491
429 1 1.57158 20.4422 4.71657 -8.94945
430 1 3.14346 18.8705 3.14332 -8.9484
431 1 4.71645 20.4427 4.71617 -8.95005
432 1 6.28919 18.8704 3.14362 -8.94945
433 1 7.86206 20.4426 4.71631 -8.94948
434 1 9.43458 18.8704 3.14378 -8.94947
435 1 11.0073 20.4424 4.71641 -8.94942
436 1 12.5797 18.8703 3.14399 -8.94909
437 1 14.1522 20.4424 4.71681 -8.95046
438 1 15.7252 18.8706 3.14384 -8.94962
439 1 17.2971 20.442 4.71691 -8.94959
440 1 18.8695 18.8698 3.14432 -8.9494
441 1 20.4414 20.4418 4.71703 -8.94958
442 1 1.56823 11.007 7.85946 -8.94736
443 1 4.70985 11.007 7.85289 -8.93492
444 1 7.87426 11.007 7.87567 -8.92363
445 1 11.0725 11.007 7.72221 -8.29325
446 1 14.1678 11.007 7.84999 -8.96003
447 1 17.3018 11.007 7.86053 -8.95098
448 1 20.4417 11.007 7.86143 -8.95006
449 1 22.0126 12.5797 6.28837 -8.94939
450 1 1.56631 14.1538 7.85997 -8.95347
451 1 3.14024 12.5799 6.28551 -8.94743
452 1 4.69424 14.1685 7.84575 -8.93667
453 1 6.28481 12.5786 6.28012 -8.96156
454 1 7.82202 14.191 7.82469 -8.84956
455 1 9.42565 12.5943 6.29232 -8.92337
456 1 11.016 14.163 7.83973 -8.90449
457 1 12.608 12.6011 6.25615 -8.90938
458 1 14.1655 14.1637 7.851 -8.9347
459 1 15.7338 12.5822 6.28401 -8.95356
460 1 17.3009 14.1538 7.86085 -8.95121
461 1 18.8715 12.5799 6.28851 -8.95071
462 1 20.4413 14.1525 7.86165 -8.95085
463 1 22.0119 15.7255 6.28845 -8.95051
464 1 1.56984 17.2987 7.86123 -8.94926
465 1 3.13671 15.7304 6.28336 -8.94504
466 1 4.71162 17.3043 7.85844 -8.94869
467 1 6.27685 15.7381 6.27577 -8.93027
468 1 7.86013 17.3053 7.86054 -8.95922
469 1 9.43358 15.7326 6.28428 -8.9449
470 1 11.0052 17.2989 7.86195 -8.95275
471 1 12.5842 15.7331 6.28251 -8.95159
472 1 14.1541 17.3011 7.86019 -8.94976
473 1 15.7294 15.729 6.28581 -8.94623
474 1 17.2981 17.2983 7.86157 -8.9492
475 1 18.8704 15.7255 6.28887 -8.9501
476 1 20.4413 17.2976 7.86184 -8.94951
477 1 -0.000760186 18.8699 6.28923 -8.94951
478 1 1.57153 20.4422 7.86181 -8.94942
479 1 3.14268 18.8717 6.288 -8.94928
480 1 4.71603 20.4434 7.86137 -8.95032
481 1 6.28831 18.8731 6.28779 -8.95158
482 1 7.86216 20.4433 7.86173 -8.9513
483 1 9.43476 18.8721 6.28818 -8.94996
484 1 11.0069 20.4422 7.86191 -8.94944
485 1 12.5795 18.8712 6.28913 -8.95176
486 1 14.1523 20.4425 7.86176 -8.95032
487 1 15.7254 18.8709 6.28889 -8.94956
488 1 17.2972 20.442 7.86188 -8.94945
489 1 18.8694 18.8698 6.28939 -8.94952
490 1 20.4414 20.4418 7.86197 -8.94951
491 1 22.0115 12.5794 9.43429 -8.95153
492 1 3.1333 12.5809 9.43115 -8.96027
493 1 6.2419 12.6276 9.39154 -8.86746
494 1 9.34435 12.8232 9.44683 -7.96997
495 1 12.6003 12.6095 9.39059 -8.81027
496 1 15.7314 12.5816 9.43143 -8.94971
497 1 18.871 12.5799 9.43426 -8.94991
498 1 -0.00194129 15.7254 9.43442 -8.94983
513 1 4.71925 11.007 10.9997 -9.00697
514 1 7.60315 11.007 10.9138 -8.0027
531 1 17.2983 17.2983 11.0067 -8.9489
526 1 1.5699 17.2985 11.0073 -8.94913
527 1 4.71166 17.3029 11.008 -8.94621
389 1 15.7248 18.8698 0.000123637 -8.9496
365 1 22.0138 15.7244 -0.000194317 -8.94948
377 1 18.8697 15.7246 -0.000222189 -8.94946
512 1 1.57054 11.007 11.0072 -8.94556
687 3 9.47489 11.007 11.6173 2.15582
686 1 20.4416 20.4417 20.4417 -8.94921
515 1 11.4048 11.007 11.0915 -7.18313
516 1 14.1723 11.007 11.0123 -9.02205
517 1 17.3019 11.007 11.007 -8.95298
518 1 20.4421 11.007 11.0071 -8.94915
519 1 1.56738 14.1532 11.0075 -8.95241
520 1 4.69861 14.1602 11.0092 -8.95666
521 1 7.80136 14.1903 11.0351 -8.81464
522 1 11.0459 14.1589 11.0168 -8.8681
523 1 14.164 14.1569 11.0055 -8.95508
524 1 17.3007 14.1534 11.0067 -8.95042
525 1 20.4415 14.1525 11.0071 -8.95046
391 1 18.8696 18.8695 22.0138 -8.94929
385 1 9.43447 18.8699 22.014 -8.94947
528 1 7.85925 17.3052 11.0094 -8.95936
529 1 11.0065 17.2986 11.0073 -8.951
530 1 14.1544 17.3003 11.0058 -8.94697
685 1 18.8699 18.8698 18.8697 -8.949
684 1 17.2971 20.4419 20.4419 -8.9493
533 1 1.57147 20.4421 11.007 -8.94945
683 1 15.7256 18.8705 18.8705 -8.94858
535 1 7.86212 20.4433 11.007 -8.95108
536 1 11.0069 20.4423 11.0067 -8.94898
537 1 14.1527 20.4426 11.0065 -8.9494
682 1 14.1522 20.4419 20.442 -8.94947
539 1 20.4414 20.4418 11.007 -8.94954
540 1 1.57177 11.007 14.1528 -8.94806
541 1 4.71836 11.007 14.1507 -8.94073
542 1 7.87575 11.007 14.1171 -8.92676
543 1 11.0059 11.007 14.1443 -8.97485
544 1 14.1612 11.007 14.1626 -8.93687
545 1 17.3013 11.007 14.1546 -8.94769
546 1 20.4426 11.007 14.1527 -8.94952
547 1 22.0133 12.5793 12.5799 -8.94982
548 1 1.57011 14.152 14.1527 -8.95204
549 1 3.14152 12.5788 12.5796 -8.95209
550 1 4.70715 14.1578 14.159 -8.95116
551 1 6.27685 12.5997 12.595 -8.89315
552 1 7.83658 14.1826 14.1875 -8.89647
553 1 9.43814 12.7596 12.6408 -8.22047
554 1 11.0313 14.1854 14.1911 -8.88061
555 1 12.6287 12.6397 12.6425 -8.77485
556 1 14.1749 14.1723 14.173 -8.9248
557 1 15.7372 12.5833 12.585 -8.95715
558 1 17.3032 14.1545 14.1547 -8.95292
559 1 18.8722 12.5797 12.5801 -8.95155
560 1 20.4425 14.1522 14.1525 -8.95081
561 1 -0.00157891 15.7253 12.58 -8.95009
562 1 1.57003 17.2983 14.1531 -8.94921
563 1 3.13818 15.7282 12.5821 -8.94888
564 1 4.71133 17.3033 14.1569 -8.94403
565 1 6.27335 15.7435 12.5926 -8.93112
566 1 7.86074 17.305 14.1559 -8.95648
567 1 9.43578 15.7271 12.5862 -8.98828
568 1 11.0082 17.306 14.1564 -8.95544
569 1 12.5892 15.7426 12.5868 -8.95664
570 1 14.1567 17.3045 14.1556 -8.95005
571 1 15.7294 15.7285 12.5802 -8.94956
572 1 17.2989 17.2986 14.1525 -8.94979
573 1 18.8706 15.7254 12.5796 -8.94973
574 1 20.4415 17.2975 14.1522 -8.94969
575 1 22.0132 18.8699 12.5796 -8.94941
576 1 1.57153 20.4421 14.1522 -8.94941
577 1 3.14267 18.8713 12.5802 -8.949
578 1 4.71587 20.4433 14.1528 -8.95006
579 1 6.28732 18.8746 12.5808 -8.95235
580 1 7.86199 20.4434 14.1525 -8.95077
581 1 9.43488 18.8718 12.5803 -8.94735
582 1 11.0073 20.4436 14.1525 -8.95104
583 1 12.5805 18.8735 12.5794 -8.95358
584 1 14.1528 20.4433 14.1522 -8.9508
585 1 15.7256 18.8709 12.5792 -8.94944
586 1 17.2973 20.4421 14.1519 -8.94959
587 1 18.8696 18.8699 12.5794 -8.94939
588 1 20.4414 20.4418 14.1519 -8.9495
589 1 1.57183 11.007 17.2974 -8.94972
590 1 4.71588 11.007 17.298 -8.94743
591 1 7.86263 11.007 17.2931 -8.93569
592 1 11.0062 11.007 17.2989 -8.94231
593 1 14.1557 11.007 17.3029 -8.94636
594 1 17.299 11.007 17.2987 -8.94927
595 1 20.4421 11.007 17.2974 -8.94957
596 1 22.0139 12.5793 15.725 -8.94924
597 1 1.57189 14.1516 17.2973 -8.94954
598 1 3.14417 12.5786 15.725 -8.94831
599 1 4.71604 14.1513 17.2987 -8.95213
600 1 6.29076 12.5758 15.7257 -8.95621
601 1 7.85975 14.1551 17.3059 -8.95741
602 1 9.43422 12.5851 15.7314 -8.96881
603 1 11.0081 14.1561 17.3077 -8.95656
604 1 12.5834 12.5804 15.7398 -8.96269
605 1 14.1553 14.1543 17.3035 -8.95284
606 1 15.7291 12.5803 15.7293 -8.94741
607 1 17.2989 14.1525 17.2986 -8.94926
608 1 18.8711 12.5796 15.7256 -8.94912
609 1 20.4421 14.1519 17.2973 -8.94941
610 1 22.0133 15.7247 15.725 -8.95062
611 1 1.57092 17.2976 17.298 -8.94957
612 1 3.14048 15.7266 15.7275 -8.94988
613 1 4.71339 17.3003 17.3011 -8.94616
614 1 6.27923 15.7349 15.7371 -8.93768
615 1 7.86056 17.3004 17.3006 -8.94751
616 1 9.43367 15.7342 15.7352 -8.94135
617 1 11.0078 17.3007 17.3009 -8.9478
618 1 12.5894 15.737 15.738 -8.93514
619 1 14.1556 17.3012 17.3013 -8.94585
620 1 15.7328 15.7314 15.7314 -8.94277
621 1 17.2995 17.299 17.299 -8.94763
622 1 18.8715 15.7256 15.7256 -8.95043
623 1 20.442 17.2973 17.2974 -8.94985
624 1 -0.000641215 18.8697 15.7247 -8.94945
625 1 1.57165 20.442 17.2973 -8.94921
626 1 3.14268 18.8711 15.726 -8.9482
627 1 4.71632 20.4425 17.2977 -8.94995
628 1 6.28809 18.8726 15.7264 -8.95108
629 1 7.86165 20.4427 17.2979 -8.94932
630 1 9.43435 18.8732 15.727 -8.94931
631 1 11.0073 20.4428 17.298 -8.94936
632 1 12.5809 18.8733 15.7265 -8.95065
633 1 14.1527 20.4427 17.2978 -8.94982
634 1 15.7264 18.8719 15.7258 -8.94955
635 1 17.2975 20.4422 17.2973 -8.94952
636 1 18.8698 18.8699 15.7246 -8.94969
637 1 20.4415 20.4418 17.2969 -8.94957
638 1 1.57197 11.007 20.4416 -8.94957
639 1 4.7164 11.007 20.4418 -8.94966
640 1 7.86149 11.007 20.4417 -8.94702
641 1 11.0068 11.007 20.4427 -8.94815
642 1 14.1532 11.007 20.4427 -8.95006
643 1 17.2978 11.007 20.4419 -8.94945
644 1 20.4418 11.007 20.4417 -8.94955
645 1 -9.15526e-05 12.5794 18.8695 -8.94955
646 1 1.57204 14.1518 20.4416 -8.94941
647 1 3.14403 12.5793 18.8698 -8.94907
648 1 4.71669 14.1516 20.4419 -8.94983
649 1 6.28915 12.5785 18.87 -8.94957
650 1 7.86152 14.1522 20.4434 -8.95171
651 1 9.43387 12.5792 18.8718 -8.95028
652 1 11.0068 14.1525 20.4438 -8.95171
653 1 12.5801 12.5792 18.8733 -8.95223
654 1 14.1527 14.1524 20.4427 -8.9507
655 1 15.7261 12.5798 18.8713 -8.94886
656 1 17.2977 14.1522 20.4419 -8.94928
657 1 18.87 12.5795 18.8698 -8.94943
658 1 20.4417 14.1519 20.4416 -8.94951
659 1 22.0138 15.7243 18.8694 -8.94967
660 1 1.57199 17.2969 20.4417 -8.94991
661 1 3.14393 15.7244 18.8701 -8.9505
662 1 4.71618 17.2976 20.4426 -8.94995
663 1 6.28768 15.726 18.873 -8.95118
664 1 7.86153 17.2979 20.4428 -8.94924
665 1 9.434 15.7268 18.8735 -8.94904
666 1 11.0071 17.298 20.4429 -8.94929
667 1 12.581 15.7266 18.8736 -8.95058
668 1 14.1527 17.2979 20.4429 -8.94966
669 1 15.7262 15.7257 18.8714 -8.9504
670 1 17.2976 17.2974 20.442 -8.94966
671 1 18.8699 15.7246 18.8697 -8.94959
672 1 20.4417 17.2968 20.4416 -8.94966
673 1 22.0136 18.8695 18.8696 -8.94947
674 1 1.57196 20.4418 20.4418 -8.94919
675 1 3.14352 18.8702 18.8704 -8.94857
676 1 4.71686 20.4419 20.4419 -8.94948
677 1 6.28887 18.8704 18.8705 -8.94914
678 1 7.86192 20.442 20.442 -8.94948
679 1 9.43438 18.8706 18.8706 -8.94941
680 1 11.0071 20.442 20.442 -8.94949
681 1 12.58 18.8706 18.8706 -8.94916
351 1 22.0138 12.5794 22.0137 -8.94955
353 1 3.14417 12.5794 22.0135 -8.94953
357 1 9.43419 12.5793 22.0141 -8.94905
359 1 12.5798 12.5795 22.0131 -8.9514
383 1 6.28933 18.8698 22.014 -8.94938
367 1 3.14433 15.7244 22.0136 -8.94995
369 1 6.28897 15.7249 22.0138 -8.95084
375 1 15.7253 15.7252 22.0133 -8.95004
381 1 3.14419 18.8697 22.0138 -8.94948
363 1 18.8697 12.5795 22.0137 -8.94949
379 1 22.0137 18.8693 22.0138 -8.94961
387 1 12.5796 18.8698 22.0141 -8.94937
