ITEM: TIMESTEP
82
ITEM: NUMBER OF ATOMS
688
ITEM: BOX BOUNDS pp pp pp
0.0000000000000000e+00 2.2013900999999997e+01
0.0000000000000000e+00 2.2013900999999997e+01
0.0000000000000000e+00 2.2013900999999997e+01
ITEM: ATOMS id type x y z c_pot
1 1 22.0137 8.19925e-16 -5.25472e-06 -8.94912
2 1 1.57187 1.57202 1.57199 -8.94918
189 1 20.4413 4.71624 11.007 -8.94951
4 1 4.7169 1.57197 1.572 -8.94956
5 1 6.28949 9.45218e-16 4.87557e-05 -8.94951
6 1 7.86201 1.57194 1.57204 -8.94948
175 1 18.8711 9.43401 9.43423 -8.94994
8 1 11.0071 1.57193 1.57207 -8.9495
9 1 12.5795 4.43076e-16 8.62856e-05 -8.94951
10 1 14.1521 1.57196 1.57218 -8.94946
174 1 15.7317 9.43222 9.43131 -8.94969
12 1 17.2971 1.57191 1.57212 -8.9495
188 1 17.2984 4.7155 11.0067 -8.9489
14 1 20.4415 1.57214 1.57216 -8.94931
181 1 17.2974 1.57181 11.0068 -8.94948
16 1 1.57178 4.71673 1.57159 -8.94981
173 1 12.6008 9.40401 9.3905 -8.80979
18 1 4.71613 4.71604 1.57094 -8.94977
172 1 9.34465 9.18977 9.44642 -7.96844
20 1 7.86173 4.716 1.5714 -8.94917
171 1 6.24176 9.38594 9.39141 -8.86705
22 1 11.0071 4.71594 1.57157 -8.94925
177 1 4.71565 1.57053 11.0071 -8.94944
24 1 14.1525 4.71594 1.57154 -8.94991
170 1 3.13317 9.43293 9.43103 -8.96024
26 1 17.298 4.71592 1.57131 -8.94864
169 1 22.0115 9.43443 9.43426 -8.95153
28 1 20.4418 4.7168 1.57193 -8.94955
168 1 18.8703 6.28833 9.43434 -8.9495
30 1 1.57184 7.86189 1.57159 -8.94932
167 1 15.7282 6.286 9.43329 -8.94695
32 1 4.71659 7.86208 1.57098 -8.95028
166 1 12.583 6.28152 9.42974 -8.95197
34 1 7.86175 7.8616 1.57057 -8.95207
35 1 9.43422 6.28857 0.000225459 -8.94993
36 1 11.0066 7.86117 1.5706 -8.95057
37 1 12.5797 6.28868 0.000192324 -8.95017
38 1 14.1536 7.86049 1.56923 -8.9512
165 1 9.42823 6.29613 9.43858 -9.00588
40 1 17.2981 7.86132 1.57116 -8.94921
164 1 6.27462 6.27021 9.4302 -8.95068
42 1 20.4418 7.86183 1.57184 -8.94945
163 1 3.13739 6.28476 9.43346 -8.94815
162 1 -0.00202979 6.28838 9.4344 -8.94983
45 1 6.28921 9.43475 -0.000306152 -8.94962
161 1 18.8695 3.14399 9.43437 -8.94944
160 1 15.7255 3.14308 9.43407 -8.94917
48 1 15.7257 9.4341 -0.000655933 -8.94939
159 1 12.5797 3.14268 9.43422 -8.95133
50 1 22.0135 3.31318e-16 3.14449 -8.94943
51 1 1.57151 1.57168 4.71651 -8.94944
52 1 3.14422 8.97225e-16 3.14415 -8.9496
53 1 4.7164 1.57114 4.7161 -8.95006
54 1 6.28948 9.11985e-16 3.14419 -8.94947
55 1 7.86205 1.5713 4.71626 -8.94948
56 1 9.43463 6.31862e-16 3.14421 -8.94952
57 1 11.0073 1.57145 4.71638 -8.94942
58 1 12.5797 9.64703e-16 3.14434 -8.94942
59 1 14.1522 1.5715 4.71679 -8.95047
60 1 15.7246 1.54271e-16 3.1445 -8.95
61 1 17.2972 1.57182 4.71687 -8.94959
62 1 18.8693 7.03079e-16 3.14462 -8.94953
63 1 20.4414 1.57208 4.71699 -8.94957
64 1 22.0132 3.14407 3.14404 -8.94908
65 1 1.56974 4.71503 4.71493 -8.94806
66 1 3.14338 3.14333 3.14324 -8.94838
67 1 4.71295 4.71245 4.71226 -8.94482
68 1 6.28915 3.14342 3.14355 -8.94943
69 1 7.86122 4.71363 4.71432 -8.94829
70 1 9.43458 3.14345 3.14373 -8.94947
71 1 11.0074 4.71428 4.71489 -8.94736
72 1 12.5797 3.14354 3.14395 -8.94909
73 1 14.1542 4.71308 4.71434 -8.95008
74 1 15.7253 3.14321 3.14379 -8.94962
75 1 17.2984 4.71529 4.71583 -8.94885
76 1 18.8695 3.14407 3.14427 -8.94938
77 1 20.4413 4.71633 4.71648 -8.94973
78 1 22.0135 6.2892 3.14394 -8.94967
79 1 1.57054 7.86148 4.71536 -8.9493
80 1 3.14316 6.28859 3.14246 -8.95054
81 1 4.7138 7.86047 4.71179 -8.95319
82 1 6.2875 6.28716 3.14024 -8.95078
83 1 7.85853 7.85706 4.70751 -8.95707
84 1 9.43421 6.28707 3.14178 -8.9482
85 1 11.0065 7.85873 4.71004 -8.95252
86 1 12.5802 6.28742 3.14175 -8.94999
87 1 14.1619 7.85258 4.70535 -8.93948
88 1 15.7279 6.28599 3.14084 -8.9465
89 1 17.3006 7.86005 4.71465 -8.95015
90 1 18.8704 6.28867 3.14371 -8.94958
91 1 20.442 7.86153 4.71624 -8.94978
92 1 -0.000341953 9.43434 3.14379 -8.94943
93 1 3.14336 9.43426 3.14258 -8.94875
94 1 6.28936 9.43525 3.14231 -8.95157
95 1 9.43444 9.43399 3.14387 -8.94646
96 1 12.5821 9.43311 3.13676 -8.95701
97 1 15.7278 9.43323 3.14097 -8.94812
98 1 18.8705 9.43415 3.14358 -8.94933
99 1 22.0135 6.79244e-16 6.28944 -8.94952
100 1 1.57146 1.57169 7.86178 -8.94941
101 1 3.14388 7.76607e-16 6.28897 -8.94982
102 1 4.71596 1.57047 7.86133 -8.95034
103 1 6.28936 1.13966e-15 6.28895 -8.95058
104 1 7.86214 1.57058 7.86172 -8.95133
105 1 9.43481 1.82865e-15 6.28896 -8.95017
106 1 11.0069 1.57168 7.86191 -8.94945
107 1 12.5795 1.43616e-15 6.2894 -8.95009
108 1 14.1523 1.57134 7.86175 -8.95033
109 1 15.7247 1.99263e-16 6.28935 -8.9499
110 1 17.2972 1.57184 7.86186 -8.94944
111 1 18.8693 -1.43695e-16 6.28951 -8.94951
112 1 20.4414 1.57204 7.86196 -8.9495
113 1 -0.000821367 3.14394 6.28918 -8.94949
114 1 1.5697 4.7151 7.86116 -8.94925
115 1 3.14257 3.14206 6.2879 -8.94928
116 1 4.71143 4.70945 7.85834 -8.94869
117 1 6.28824 3.14068 6.28772 -8.9516
118 1 7.86002 4.70844 7.86051 -8.95928
119 1 9.43474 3.14178 6.28814 -8.94995
120 1 11.0052 4.71499 7.86193 -8.95285
121 1 12.5795 3.14266 6.2891 -8.95176
122 1 14.1541 4.71267 7.86011 -8.94977
123 1 15.7254 3.14289 6.28884 -8.94957
124 1 17.2982 4.71553 7.86152 -8.94919
125 1 18.8695 3.14406 6.28935 -8.94951
126 1 20.4412 4.71626 7.86181 -8.94951
127 1 22.0118 6.2883 6.28838 -8.95052
128 1 1.56616 7.85999 7.85988 -8.95349
129 1 3.13651 6.28333 6.28319 -8.94503
130 1 4.69397 7.84514 7.84556 -8.93666
131 1 6.27662 6.27558 6.27558 -8.93014
132 1 7.82172 7.82259 7.82446 -8.84913
133 1 9.43351 6.28116 6.28419 -8.94475
134 1 11.0163 7.85055 7.83958 -8.90395
135 1 12.5843 6.28076 6.28235 -8.95132
136 1 14.1657 7.85006 7.85073 -8.93472
137 1 15.7295 6.28473 6.28566 -8.94619
138 1 17.301 7.86 7.86074 -8.95122
139 1 18.8704 6.28838 6.2888 -8.95011
140 1 20.4412 7.86135 7.86161 -8.95086
141 1 22.0125 9.4342 6.2883 -8.94938
142 1 3.14013 9.43398 6.28538 -8.94743
143 1 6.28474 9.43529 6.28007 -8.96152
144 1 9.42581 9.41974 6.2926 -8.92429
145 1 12.6076 9.41324 6.25639 -8.91073
146 1 15.7338 9.43171 6.28387 -8.95344
147 1 18.8716 9.43397 6.28843 -8.95069
148 1 -0.000457905 1.8032e-15 9.43446 -8.94952
149 1 3.14369 1.62764e-15 9.43432 -8.94944
150 1 6.28903 1.4331e-15 9.43437 -8.95099
151 1 9.43479 1.32384e-15 9.43426 -8.94812
152 1 12.5797 1.30791e-15 9.4343 -8.95002
153 1 15.725 8.5041e-16 9.43423 -8.94954
154 1 18.8694 -5.43664e-17 9.43442 -8.94953
155 1 22.0131 3.14393 9.43444 -8.94941
156 1 3.14257 3.14236 9.43421 -8.94906
157 1 6.28733 3.13924 9.43434 -8.95221
158 1 9.43437 3.14413 9.43463 -8.94512
183 1 1.56978 4.71531 11.0073 -8.94913
184 1 4.71146 4.71085 11.0081 -8.9462
11 1 15.7245 1.50743e-15 0.00010186 -8.94955
25 1 15.7248 3.14406 0.000133714 -8.9496
29 1 22.0138 6.28951 -0.000215852 -8.94948
41 1 18.8697 6.28928 -0.000235982 -8.94945
176 1 1.5714 1.57172 11.007 -8.94943
343 1 18.87 9.43438 18.8698 -8.94942
178 1 7.8621 1.57053 11.007 -8.95109
179 1 11.0069 1.57158 11.0067 -8.94895
180 1 14.1527 1.57124 11.0065 -8.9494
342 1 15.7262 9.43406 18.8714 -8.94886
182 1 20.4414 1.57203 11.007 -8.94953
47 1 12.5798 9.43435 22.0132 -8.9514
46 1 9.43418 9.4346 22.0141 -8.94901
185 1 7.85912 4.70867 11.0094 -8.9593
186 1 11.0065 4.71536 11.0074 -8.95092
187 1 14.1544 4.7135 11.0059 -8.94694
341 1 12.5801 9.43465 18.8733 -8.95226
340 1 9.43387 9.43474 18.8717 -8.95024
190 1 1.56726 7.86066 11.0075 -8.95244
191 1 4.69834 7.85344 11.0092 -8.95658
192 1 7.80119 7.82359 11.0353 -8.8149
193 1 11.0462 7.85506 11.0171 -8.86825
194 1 14.1643 7.85681 11.0056 -8.95497
195 1 17.3008 7.8604 11.0068 -8.95044
196 1 20.4415 7.86141 11.0071 -8.95048
197 1 -0.000447673 1.38138e-15 12.5795 -8.94952
198 1 1.57146 1.57178 14.1523 -8.94939
199 1 3.14367 1.05569e-15 12.5797 -8.94937
200 1 4.7158 1.57058 14.1529 -8.95008
201 1 6.289 9.2506e-16 12.5797 -8.95113
202 1 7.86197 1.57042 14.1526 -8.95076
203 1 9.43476 1.09419e-15 12.5795 -8.94906
204 1 11.0073 1.57025 14.1526 -8.95103
205 1 12.5798 1.63497e-15 12.5791 -8.95094
206 1 14.1529 1.57056 14.1522 -8.95084
207 1 15.725 1.4707e-15 12.5792 -8.94951
208 1 17.2974 1.57177 14.1519 -8.94959
209 1 18.8694 1.19213e-15 12.5794 -8.94951
210 1 20.4414 1.57206 14.1519 -8.94949
211 1 22.0131 3.14397 12.5797 -8.94939
212 1 1.56993 4.71555 14.1532 -8.94921
213 1 3.14255 3.14252 12.5803 -8.94899
214 1 4.71118 4.71047 14.157 -8.94403
215 1 6.28723 3.13918 12.5809 -8.95238
216 1 7.8607 4.70883 14.156 -8.95641
217 1 9.43487 3.14212 12.5804 -8.94741
218 1 11.0082 4.70782 14.1565 -8.95535
219 1 12.5805 3.1403 12.5794 -8.95362
220 1 14.1568 4.70917 14.1558 -8.95006
221 1 15.7256 3.14288 12.5792 -8.94944
222 1 17.299 4.71514 14.1525 -8.94979
223 1 18.8696 3.14399 12.5794 -8.94938
224 1 20.4415 4.71637 14.1522 -8.94969
225 1 -0.00163086 6.28859 12.5801 -8.9501
226 1 1.57006 7.86185 14.1528 -8.95205
227 1 3.13801 6.28555 12.5822 -8.94887
228 1 4.70703 7.85597 14.1591 -8.95095
229 1 6.27315 6.27023 12.5928 -8.93116
230 1 7.83684 7.83143 14.1872 -8.89757
231 1 9.43577 6.28661 12.5863 -8.9878
232 1 11.0311 7.82861 14.1909 -8.88174
233 1 12.5893 6.27117 12.587 -8.95664
234 1 14.1751 7.8414 14.1732 -8.92456
235 1 15.7296 6.28523 12.5803 -8.94955
236 1 17.3034 7.85924 14.1548 -8.9529
237 1 18.8707 6.28842 12.5796 -8.94974
238 1 20.4426 7.86165 14.1525 -8.95082
239 1 22.0133 9.43461 12.5799 -8.94984
240 1 3.14143 9.43503 12.5796 -8.95217
241 1 6.27644 9.41388 12.5951 -8.89249
242 1 9.43818 9.25652 12.6399 -8.22326
243 1 12.6292 9.37403 12.6428 -8.77458
244 1 15.7375 9.43049 12.5852 -8.95711
245 1 18.8723 9.43415 12.5801 -8.95158
246 1 22.0135 -6.76287e-16 15.7245 -8.94951
247 1 1.57159 1.57188 17.2973 -8.94919
248 1 3.1438 -2.21416e-17 15.725 -8.94954
249 1 4.71626 1.57133 17.2978 -8.94995
250 1 6.28913 1.60736e-16 15.7251 -8.95025
251 1 7.86163 1.57116 17.298 -8.94931
252 1 9.43451 7.12471e-16 15.7253 -8.95013
253 1 11.0073 1.57108 17.2981 -8.94936
254 1 12.58 7.22384e-16 15.7251 -8.95034
255 1 14.1528 1.5711 17.2978 -8.94982
256 1 15.7251 8.64782e-16 15.7248 -8.95007
257 1 17.2976 1.57161 17.2974 -8.94951
258 1 18.8694 3.40671e-16 15.7244 -8.94963
259 1 20.4415 1.57208 17.2969 -8.94956
260 1 -0.000677731 3.14412 15.7248 -8.94944
261 1 1.57087 4.71622 17.298 -8.94956
262 1 3.14258 3.14268 15.7261 -8.94819
263 1 4.71332 4.71354 17.3012 -8.94621
264 1 6.28803 3.14118 15.7265 -8.95106
265 1 7.86052 4.71346 17.3008 -8.94752
266 1 9.43434 3.14065 15.7271 -8.94931
267 1 11.0079 4.71311 17.301 -8.9478
268 1 12.5809 3.1405 15.7266 -8.95064
269 1 14.1557 4.71259 17.3015 -8.94589
270 1 15.7265 3.14188 15.7259 -8.94955
271 1 17.2996 4.71476 17.2991 -8.94761
272 1 18.8698 3.14394 15.7247 -8.94969
273 1 20.442 4.71654 17.2974 -8.94985
274 1 22.0133 6.28915 15.7251 -8.95064
275 1 1.57189 7.86233 17.2973 -8.94953
276 1 3.14039 6.2872 15.7276 -8.94983
277 1 4.71603 7.86261 17.2987 -8.95216
278 1 6.27924 6.27896 15.7371 -8.93785
279 1 7.85977 7.8588 17.3059 -8.9574
280 1 9.43367 6.27961 15.7352 -8.94133
281 1 11.0081 7.85776 17.3078 -8.95654
282 1 12.5894 6.27684 15.7381 -8.93531
283 1 14.1554 7.85953 17.3036 -8.95287
284 1 15.7329 6.28231 15.7316 -8.94269
285 1 17.299 7.86132 17.2987 -8.94925
286 1 18.8716 6.28824 15.7257 -8.95043
287 1 20.4421 7.86193 17.2974 -8.9494
288 1 22.0139 9.43456 15.725 -8.94922
289 1 3.14417 9.43531 15.725 -8.94827
290 1 6.29083 9.43802 15.7256 -8.95634
291 1 9.43429 9.42883 15.7312 -8.96876
292 1 12.5835 9.4334 15.7399 -8.9628
293 1 15.7292 9.43348 15.7295 -8.94738
294 1 18.8712 9.43424 15.7257 -8.9491
295 1 -0.000273475 6.0832e-16 18.8694 -8.94935
296 1 1.57192 1.57206 20.4418 -8.94917
297 1 3.14419 1.80775e-16 18.8697 -8.9496
298 1 4.71682 1.57199 20.442 -8.94946
299 1 6.28925 9.8903e-16 18.8699 -8.94937
300 1 7.86189 1.57191 20.442 -8.94947
301 1 9.43447 1.70113e-17 18.8699 -8.94946
302 1 11.0071 1.57189 20.4421 -8.94948
303 1 12.5797 1.34556e-15 18.8699 -8.94939
304 1 14.1522 1.57192 20.442 -8.94945
305 1 15.7249 1.69573e-15 18.8698 -8.94953
306 1 17.2972 1.57199 20.4419 -8.94929
307 1 18.8695 1.1476e-15 18.8694 -8.94943
308 1 20.4416 1.57215 20.4417 -8.94919
309 1 22.0136 3.14434 18.8696 -8.94946
310 1 1.57196 4.71703 20.4417 -8.94992
311 1 3.14346 3.14363 18.8705 -8.94858
312 1 4.71613 4.71627 20.4426 -8.94997
313 1 6.28882 3.14345 18.8706 -8.94913
314 1 7.8615 4.71596 20.4428 -8.94924
315 1 9.43437 3.14326 18.8707 -8.9494
316 1 11.0071 4.71587 20.4429 -8.94929
317 1 12.5801 3.14325 18.8707 -8.94915
318 1 14.1528 4.71593 20.4429 -8.94967
319 1 15.7257 3.1433 18.8706 -8.94858
320 1 17.2977 4.71642 20.442 -8.94965
321 1 18.8699 3.14401 18.8698 -8.94898
322 1 20.4417 4.71703 20.4416 -8.94965
323 1 22.0138 6.28961 18.8694 -8.94966
324 1 1.57202 7.86205 20.4416 -8.9494
325 1 3.14389 6.28952 18.8701 -8.95052
326 1 4.71667 7.86229 20.4419 -8.94985
327 1 6.28764 6.28785 18.873 -8.9512
328 1 7.86151 7.86172 20.4434 -8.95171
329 1 9.43398 6.28704 18.8736 -8.94904
330 1 11.0068 7.86141 20.4439 -8.95171
331 1 12.581 6.28719 18.8737 -8.95058
332 1 14.1528 7.86148 20.4428 -8.95072
333 1 15.7262 6.28816 18.8715 -8.95041
334 1 17.2977 7.86168 20.4419 -8.94927
335 1 18.87 6.28926 18.8698 -8.94958
336 1 20.4418 7.86196 20.4416 -8.9495
337 1 -7.55152e-05 9.43449 18.8695 -8.94955
338 1 3.14402 9.43461 18.8698 -8.94907
339 1 6.28917 9.43538 18.87 -8.94958
7 1 9.43452 -2.91819e-17 22.014 -8.94953
44 1 3.14415 9.43446 22.0135 -8.94953
17 1 3.14414 3.14418 22.0138 -8.94947
19 1 6.28929 3.14409 22.014 -8.94937
21 1 9.43447 3.144 22.014 -8.94946
43 1 22.0138 9.43445 22.0137 -8.94954
27 1 18.8696 3.14432 22.0138 -8.94928
39 1 15.7254 6.28863 22.0133 -8.95005
31 1 3.1443 6.28953 22.0136 -8.94996
33 1 6.28894 6.28901 22.0138 -8.95085
3 1 3.14452 9.85443e-16 22.0139 -8.94958
13 1 18.8693 9.54423e-16 22.0139 -8.94923
15 1 22.0137 3.14456 22.0137 -8.9496
23 1 12.5796 3.14402 22.0141 -8.94935
49 1 18.8698 9.43437 22.0137 -8.94948
344 1 1.57179 11.007 1.57153 -8.94951
345 1 4.71632 11.007 1.57078 -8.9499
346 1 7.8622 11.007 1.57232 -8.94757
347 1 11.0068 11.007 1.57083 -8.94948
348 1 14.1541 11.007 1.56899 -8.94968
349 1 17.2982 11.007 1.57114 -8.9494
350 1 20.4418 11.007 1.57181 -8.9495
688 3 10.1507 11.007 9.53496 2.23089
352 1 1.57184 14.152 1.57159 -8.94932
511 1 18.8695 18.8699 9.43437 -8.94944
354 1 4.71659 14.1518 1.57098 -8.95028
355 1 6.28921 12.5792 -0.000306152 -8.94962
356 1 7.86175 14.1523 1.57057 -8.95207
510 1 15.7255 18.8708 9.43407 -8.94917
358 1 11.0066 14.1527 1.5706 -8.95057
509 1 12.5797 18.8712 9.43422 -8.95133
360 1 14.1536 14.1534 1.56923 -8.9512
361 1 15.7257 12.5798 -0.000655933 -8.94939
362 1 17.2981 14.1526 1.57116 -8.94921
538 1 17.2974 20.4421 11.0068 -8.94948
364 1 20.4418 14.1521 1.57184 -8.94945
508 1 9.43437 18.8698 9.43463 -8.94512
366 1 1.57178 17.2972 1.57159 -8.94981
507 1 6.28733 18.8747 9.43434 -8.95221
368 1 4.71613 17.2979 1.57094 -8.94977
506 1 3.14257 18.8715 9.43421 -8.94906
370 1 7.86173 17.2979 1.5714 -8.94917
371 1 9.43422 15.7253 0.000225459 -8.94993
372 1 11.0071 17.298 1.57157 -8.94925
373 1 12.5797 15.7252 0.000192324 -8.95017
374 1 14.1525 17.298 1.57154 -8.94991
505 1 22.0131 18.87 9.43444 -8.94941
376 1 17.298 17.298 1.57131 -8.94864
504 1 18.8703 15.7256 9.43434 -8.9495
378 1 20.4418 17.2971 1.57193 -8.94955
534 1 4.71565 20.4434 11.0071 -8.94944
380 1 1.57187 20.4419 1.57199 -8.94918
503 1 15.7282 15.7279 9.43329 -8.94695
382 1 4.7169 20.4419 1.572 -8.94956
502 1 12.583 15.7324 9.42974 -8.95197
384 1 7.86201 20.442 1.57204 -8.94948
501 1 9.42823 15.7178 9.43858 -9.00588
386 1 11.0071 20.442 1.57207 -8.9495
532 1 20.4413 17.2977 11.007 -8.94951
388 1 14.1521 20.4419 1.57218 -8.94946
500 1 6.27462 15.7437 9.4302 -8.95068
390 1 17.2971 20.442 1.57212 -8.9495
499 1 3.13739 15.7291 9.43346 -8.94815
392 1 20.4415 20.4418 1.57216 -8.94931
393 1 1.57059 11.007 4.71509 -8.94927
394 1 4.71405 11.007 4.71185 -8.94596
395 1 7.86545 11.007 4.72005 -8.94464
396 1 11.0091 11.007 4.71162 -8.98324
397 1 14.1609 11.007 4.70682 -8.94301
398 1 17.3007 11.007 4.71444 -8.94916
399 1 20.4421 11.007 4.71608 -8.94972
400 1 -0.000341953 12.5796 3.14379 -8.94943
401 1 1.57054 14.1524 4.71536 -8.9493
402 1 3.14336 12.5796 3.14258 -8.94875
403 1 4.7138 14.1534 4.71179 -8.95319
404 1 6.28936 12.5787 3.14231 -8.95157
405 1 7.85853 14.1568 4.70751 -8.95707
406 1 9.43444 12.5799 3.14387 -8.94646
407 1 11.0065 14.1552 4.71004 -8.95252
408 1 12.5821 12.5808 3.13676 -8.95701
409 1 14.1619 14.1613 4.70535 -8.93948
410 1 15.7278 12.5807 3.14097 -8.94812
411 1 17.3006 14.1539 4.71465 -8.95015
412 1 18.8705 12.5798 3.14358 -8.94933
413 1 20.442 14.1524 4.71624 -8.94978
414 1 22.0135 15.7247 3.14394 -8.94967
415 1 1.56974 17.2989 4.71493 -8.94806
416 1 3.14316 15.7253 3.14246 -8.95054
417 1 4.71295 17.3014 4.71226 -8.94482
418 1 6.2875 15.7267 3.14024 -8.95078
419 1 7.86122 17.3003 4.71432 -8.94829
420 1 9.43421 15.7268 3.14178 -8.9482
421 1 11.0074 17.2996 4.71489 -8.94736
422 1 12.5802 15.7265 3.14175 -8.94999
423 1 14.1542 17.3008 4.71434 -8.95008
424 1 15.7279 15.7279 3.14084 -8.9465
425 1 17.2984 17.2986 4.71583 -8.94885
426 1 18.8704 15.7252 3.14371 -8.94958
427 1 20.4413 17.2976 4.71648 -8.94973
428 1 22.0132 18.8698 3.14404 -8.94908
429 1 1.57151 20.4422 4.71651 -8.94944
430 1 3.14338 18.8706 3.14324 -8.94838
431 1 4.7164 20.4428 4.7161 -8.95006
432 1 6.28915 18.8705 3.14355 -8.94943
433 1 7.86205 20.4426 4.71626 -8.94948
434 1 9.43458 18.8705 3.14373 -8.94947
435 1 11.0073 20.4424 4.71638 -8.94942
436 1 12.5797 18.8704 3.14395 -8.94909
437 1 14.1522 20.4424 4.71679 -8.95047
438 1 15.7253 18.8707 3.14379 -8.94962
439 1 17.2972 20.4421 4.71687 -8.94959
440 1 18.8695 18.8698 3.14427 -8.94938
441 1 20.4414 20.4418 4.71699 -8.94957
442 1 1.56816 11.007 7.85936 -8.94734
443 1 4.70977 11.007 7.85281 -8.93499
444 1 7.87412 11.007 7.87615 -8.92365
445 1 11.0718 11.007 7.72529 -8.29633
446 1 14.1678 11.007 7.84994 -8.95983
447 1 17.3019 11.007 7.86042 -8.95094
448 1 20.4417 11.007 7.86137 -8.95005
449 1 22.0125 12.5797 6.2883 -8.94938
450 1 1.56616 14.1539 7.85988 -8.95349
451 1 3.14013 12.5799 6.28538 -8.94743
452 1 4.69397 14.1688 7.84556 -8.93666
453 1 6.28474 12.5786 6.28007 -8.96152
454 1 7.82172 14.1913 7.82446 -8.84913
455 1 9.42581 12.5942 6.2926 -8.92429
456 1 11.0163 14.1633 7.83958 -8.90395
457 1 12.6076 12.6007 6.25639 -8.91073
458 1 14.1657 14.1638 7.85073 -8.93472
459 1 15.7338 12.5822 6.28387 -8.95344
460 1 17.301 14.1539 7.86074 -8.95122
461 1 18.8716 12.5799 6.28843 -8.95069
462 1 20.4412 14.1525 7.86161 -8.95086
463 1 22.0118 15.7256 6.28838 -8.95052
464 1 1.5697 17.2988 7.86116 -8.94925
465 1 3.13651 15.7306 6.28319 -8.94503
466 1 4.71143 17.3044 7.85834 -8.94869
467 1 6.27662 15.7383 6.27558 -8.93014
468 1 7.86002 17.3055 7.86051 -8.95928
469 1 9.43351 15.7327 6.28419 -8.94475
470 1 11.0052 17.2989 7.86193 -8.95285
471 1 12.5843 15.7331 6.28235 -8.95132
472 1 14.1541 17.3012 7.86011 -8.94977
473 1 15.7295 15.7292 6.28566 -8.94619
474 1 17.2982 17.2984 7.86152 -8.94919
475 1 18.8704 15.7255 6.2888 -8.95011
476 1 20.4412 17.2976 7.86181 -8.94951
477 1 -0.000821367 18.87 6.28918 -8.94949
478 1 1.57146 20.4422 7.86178 -8.94941
479 1 3.14257 18.8718 6.2879 -8.94928
480 1 4.71596 20.4434 7.86133 -8.95034
481 1 6.28824 18.8732 6.28772 -8.9516
482 1 7.86214 20.4433 7.86172 -8.95133
483 1 9.43474 18.8721 6.28814 -8.94995
484 1 11.0069 20.4422 7.86191 -8.94945
485 1 12.5795 18.8712 6.2891 -8.95176
486 1 14.1523 20.4426 7.86175 -8.95033
487 1 15.7254 18.871 6.28884 -8.94957
488 1 17.2972 20.4421 7.86186 -8.94944
489 1 18.8695 18.8698 6.28935 -8.94951
490 1 20.4414 20.4419 7.86196 -8.9495
491 1 22.0115 12.5795 9.43426 -8.95153
492 1 3.13317 12.581 9.43103 -8.96024
493 1 6.24176 12.628 9.39141 -8.86705
494 1 9.34465 12.8241 9.44642 -7.96844
495 1 12.6008 12.6099 9.3905 -8.80979
496 1 15.7317 12.5817 9.43131 -8.94969
497 1 18.8711 12.5799 9.43423 -8.94994
498 1 -0.00202979 15.7255 9.4344 -8.94983
513 1 4.7191 11.007 10.9996 -9.00728
514 1 7.60156 11.007 10.9144 -8.00223
531 1 17.2984 17.2984 11.0067 -8.9489
526 1 1.56978 17.2986 11.0073 -8.94913
527 1 4.71146 17.3031 11.0081 -8.9462
389 1 15.7248 18.8698 0.000133714 -8.9496
365 1 22.0138 15.7244 -0.000215852 -8.94948
377 1 18.8697 15.7246 -0.000235982 -8.94945
512 1 1.57052 11.007 11.0071 -8.94558
687 3 9.47593 11.007 11.6126 2.15625
686 1 20.4416 20.4418 20.4417 -8.94919
515 1 11.4064 11.007 11.0908 -7.18143
516 1 14.173 11.007 11.0123 -9.02198
517 1 17.3021 11.007 11.007 -8.95312
518 1 20.4422 11.007 11.0071 -8.94916
519 1 1.56726 14.1532 11.0075 -8.95244
520 1 4.69834 14.1605 11.0092 -8.95658
521 1 7.80119 14.1903 11.0353 -8.8149
522 1 11.0462 14.1588 11.0171 -8.86825
523 1 14.1643 14.1571 11.0056 -8.95497
524 1 17.3008 14.1535 11.0068 -8.95044
525 1 20.4415 14.1525 11.0071 -8.95048
391 1 18.8696 18.8696 22.0138 -8.94928
385 1 9.43447 18.8699 22.014 -8.94946
528 1 7.85912 17.3052 11.0094 -8.9593
529 1 11.0065 17.2985 11.0074 -8.95092
530 1 14.1544 17.3004 11.0059 -8.94694
685 1 18.8699 18.8699 18.8698 -8.94898
684 1 17.2972 20.4419 20.4419 -8.94929
533 1 1.5714 20.4422 11.007 -8.94943
683 1 15.7257 18.8706 18.8706 -8.94858
535 1 7.8621 20.4434 11.007 -8.95109
536 1 11.0069 20.4423 11.0067 -8.94895
537 1 14.1527 20.4427 11.0065 -8.9494
682 1 14.1522 20.442 20.442 -8.94945
539 1 20.4414 20.4419 11.007 -8.94953
540 1 1.57177 11.007 14.1528 -8.94806
541 1 4.7183 11.007 14.1507 -8.94062
542 1 7.87572 11.007 14.1166 -8.92737
543 1 11.0062 11.007 14.1439 -8.97513
544 1 14.1615 11.007 14.1628 -8.93677
545 1 17.3015 11.007 14.1548 -8.94768
546 1 20.4426 11.007 14.1528 -8.94952
547 1 22.0133 12.5793 12.5799 -8.94984
548 1 1.57006 14.1521 14.1528 -8.95205
549 1 3.14143 12.5789 12.5796 -8.95217
550 1 4.70703 14.1579 14.1591 -8.95095
551 1 6.27644 12.6 12.5951 -8.89249
552 1 7.83684 14.1825 14.1872 -8.89757
553 1 9.43818 12.7574 12.6399 -8.22326
554 1 11.0311 14.1853 14.1909 -8.88174
555 1 12.6292 12.6399 12.6428 -8.77458
556 1 14.1751 14.1725 14.1732 -8.92456
557 1 15.7375 12.5834 12.5852 -8.95711
558 1 17.3034 14.1547 14.1548 -8.9529
559 1 18.8723 12.5798 12.5801 -8.95158
560 1 20.4426 14.1522 14.1525 -8.95082
561 1 -0.00163086 15.7253 12.5801 -8.9501
562 1 1.56993 17.2983 14.1532 -8.94921
563 1 3.13801 15.7284 12.5822 -8.94887
564 1 4.71118 17.3034 14.157 -8.94403
565 1 6.27315 15.7437 12.5928 -8.93116
566 1 7.8607 17.3051 14.156 -8.95641
567 1 9.43577 15.7273 12.5863 -8.9878
568 1 11.0082 17.3061 14.1565 -8.95535
569 1 12.5893 15.7427 12.587 -8.95664
570 1 14.1568 17.3047 14.1558 -8.95006
571 1 15.7296 15.7287 12.5803 -8.94955
572 1 17.299 17.2988 14.1525 -8.94979
573 1 18.8707 15.7255 12.5796 -8.94974
574 1 20.4415 17.2975 14.1522 -8.94969
575 1 22.0131 18.8699 12.5797 -8.94939
576 1 1.57146 20.4421 14.1523 -8.94939
577 1 3.14255 18.8714 12.5803 -8.94899
578 1 4.7158 20.4433 14.1529 -8.95008
579 1 6.28723 18.8747 12.5809 -8.95238
580 1 7.86197 20.4435 14.1526 -8.95076
581 1 9.43487 18.8718 12.5804 -8.94741
582 1 11.0073 20.4436 14.1526 -8.95103
583 1 12.5805 18.8736 12.5794 -8.95362
584 1 14.1529 20.4433 14.1522 -8.95084
585 1 15.7256 18.871 12.5792 -8.94944
586 1 17.2974 20.4421 14.1519 -8.94959
587 1 18.8696 18.8699 12.5794 -8.94938
588 1 20.4414 20.4418 14.1519 -8.94949
589 1 1.57184 11.007 17.2974 -8.94971
590 1 4.71591 11.007 17.2979 -8.94745
591 1 7.86269 11.007 17.2929 -8.93558
592 1 11.0062 11.007 17.2988 -8.94222
593 1 14.1558 11.007 17.3031 -8.94638
594 1 17.2991 11.007 17.2988 -8.94926
595 1 20.4421 11.007 17.2975 -8.94956
596 1 22.0139 12.5793 15.725 -8.94922
597 1 1.57189 14.1516 17.2973 -8.94953
598 1 3.14417 12.5786 15.725 -8.94827
599 1 4.71603 14.1513 17.2987 -8.95216
600 1 6.29083 12.5759 15.7256 -8.95634
601 1 7.85977 14.1551 17.3059 -8.9574
602 1 9.43429 12.5851 15.7312 -8.96876
603 1 11.0081 14.1561 17.3078 -8.95654
604 1 12.5835 12.5805 15.7399 -8.9628
605 1 14.1554 14.1544 17.3036 -8.95287
606 1 15.7292 12.5804 15.7295 -8.94738
607 1 17.299 14.1526 17.2987 -8.94925
608 1 18.8712 12.5797 15.7257 -8.9491
609 1 20.4421 14.152 17.2974 -8.9494
610 1 22.0133 15.7247 15.7251 -8.95064
611 1 1.57087 17.2977 17.298 -8.94956
612 1 3.14039 15.7267 15.7276 -8.94983
613 1 4.71332 17.3004 17.3012 -8.94621
614 1 6.27924 15.7349 15.7371 -8.93785
615 1 7.86052 17.3004 17.3008 -8.94752
616 1 9.43367 15.7343 15.7352 -8.94133
617 1 11.0079 17.3008 17.301 -8.9478
618 1 12.5894 15.7371 15.7381 -8.93531
619 1 14.1557 17.3013 17.3015 -8.94589
620 1 15.7329 15.7316 15.7316 -8.94269
621 1 17.2996 17.2991 17.2991 -8.94761
622 1 18.8716 15.7257 15.7257 -8.95043
623 1 20.442 17.2974 17.2974 -8.94985
624 1 -0.000677731 18.8698 15.7248 -8.94944
625 1 1.57159 20.442 17.2973 -8.94919
626 1 3.14258 18.8712 15.7261 -8.94819
627 1 4.71626 20.4426 17.2978 -8.94995
628 1 6.28803 18.8727 15.7265 -8.95106
629 1 7.86163 20.4427 17.298 -8.94931
630 1 9.43434 18.8733 15.7271 -8.94931
631 1 11.0073 20.4428 17.2981 -8.94936
632 1 12.5809 18.8734 15.7266 -8.95064
633 1 14.1528 20.4428 17.2978 -8.94982
634 1 15.7265 18.872 15.7259 -8.94955
635 1 17.2976 20.4423 17.2974 -8.94951
636 1 18.8698 18.87 15.7247 -8.94969
637 1 20.4415 20.4418 17.2969 -8.94956
638 1 1.57196 11.007 20.4416 -8.94956
639 1 4.71639 11.007 20.4418 -8.94966
640 1 7.86149 11.007 20.4417 -8.94698
641 1 11.0067 11.007 20.4426 -8.94814
642 1 14.1532 11.007 20.4428 -8.95008
643 1 17.2978 11.007 20.442 -8.94945
644 1 20.4418 11.007 20.4417 -8.94954
645 1 -7.55152e-05 12.5794 18.8695 -8.94955
646 1 1.57202 14.1518 20.4416 -8.9494
647 1 3.14402 12.5793 18.8698 -8.94907
648 1 4.71667 14.1516 20.4419 -8.94985
649 1 6.28917 12.5785 18.87 -8.94958
650 1 7.86151 14.1522 20.4434 -8.95171
651 1 9.43387 12.5792 18.8717 -8.95024
652 1 11.0068 14.1525 20.4439 -8.95171
653 1 12.5801 12.5793 18.8733 -8.95226
654 1 14.1528 14.1524 20.4428 -8.95072
655 1 15.7262 12.5798 18.8714 -8.94886
656 1 17.2977 14.1522 20.4419 -8.94927
657 1 18.87 12.5795 18.8698 -8.94942
658 1 20.4418 14.1519 20.4416 -8.9495
659 1 22.0138 15.7243 18.8694 -8.94966
660 1 1.57196 17.2969 20.4417 -8.94992
661 1 3.14389 15.7244 18.8701 -8.95052
662 1 4.71613 17.2976 20.4426 -8.94997
663 1 6.28764 15.7261 18.873 -8.9512
664 1 7.8615 17.2979 20.4428 -8.94924
665 1 9.43398 15.7269 18.8736 -8.94904
666 1 11.0071 17.298 20.4429 -8.94929
667 1 12.581 15.7267 18.8737 -8.95058
668 1 14.1528 17.298 20.4429 -8.94967
669 1 15.7262 15.7257 18.8715 -8.95041
670 1 17.2977 17.2975 20.442 -8.94965
671 1 18.87 15.7246 18.8698 -8.94958
672 1 20.4417 17.2969 20.4416 -8.94965
673 1 22.0136 18.8696 18.8696 -8.94946
674 1 1.57192 20.4418 20.4418 -8.94917
675 1 3.14346 18.8703 18.8705 -8.94858
676 1 4.71682 20.4419 20.442 -8.94946
677 1 6.28882 18.8705 18.8706 -8.94913
678 1 7.86189 20.442 20.442 -8.94947
679 1 9.43437 18.8706 18.8707 -8.9494
680 1 11.0071 20.442 20.4421 -8.94948
681 1 12.5801 18.8707 18.8707 -8.94915
351 1 22.0138 12.5794 22.0137 -8.94954
353 1 3.14415 12.5794 22.0135 -8.94953
357 1 9.43418 12.5793 22.0141 -8.94901
359 1 12.5798 12.5796 22.0132 -8.9514
383 1 6.28929 18.8698 22.014 -8.94937
367 1 3.1443 15.7244 22.0136 -8.94996
369 1 6.28894 15.7249 22.0138 -8.95085
375 1 15.7254 15.7253 22.0133 -8.95005
381 1 3.14414 18.8697 22.0138 -8.94947
363 1 18.8698 12.5795 22.0137 -8.94948
379 1 22.0137 18.8693 22.0137 -8.9496
387 1 12.5796 18.8699 22.0141 -8.94935
