ITEM: TIMESTEP
110
ITEM: NUMBER OF ATOMS
688
ITEM: BOX BOUNDS pp pp pp
0.0000000000000000e+00 2.2013900999999997e+01
0.0000000000000000e+00 2.2013900999999997e+01
0.0000000000000000e+00 2.2013900999999997e+01
ITEM: ATOMS id type x y z c_pot
1 1 22.0136 2.49352e-14 -2.84247e-05 -8.94898
2 1 1.57163 1.57187 1.57179 -8.94909
189 1 20.4412 4.71593 11.0071 -8.94951
4 1 4.7167 1.57182 1.57185 -8.9495
5 1 6.28934 1.58856e-14 9.21226e-05 -8.94945
6 1 7.86194 1.5718 1.57196 -8.94944
175 1 18.8714 9.43389 9.43402 -8.95007
8 1 11.0071 1.5718 1.57205 -8.94946
9 1 12.5797 -2.58391e-15 0.000189165 -8.94946
10 1 14.1522 1.57181 1.57217 -8.94943
174 1 15.7329 9.43173 9.43079 -8.94958
12 1 17.2973 1.57175 1.57204 -8.94946
188 1 17.2987 4.71513 11.0067 -8.94892
14 1 20.4414 1.572 1.57202 -8.9492
181 1 17.2975 1.57166 11.0068 -8.94945
16 1 1.57156 4.71651 1.5713 -8.94982
173 1 12.6029 9.4018 9.39041 -8.80829
18 1 4.71587 4.71579 1.57065 -8.94985
172 1 9.34645 9.18415 9.44262 -7.9562
20 1 7.86159 4.71572 1.57127 -8.94919
171 1 6.24133 9.38434 9.39095 -8.8657
22 1 11.0072 4.71568 1.57151 -8.94922
177 1 4.71524 1.57023 11.0072 -8.94949
24 1 14.1527 4.71564 1.57141 -8.94996
170 1 3.13259 9.43246 9.43044 -8.96
26 1 17.2982 4.71563 1.57116 -8.94873
169 1 22.0113 9.43432 9.43403 -8.95156
28 1 20.4418 4.71659 1.57172 -8.9495
168 1 18.8704 6.28803 9.43421 -8.94952
30 1 1.57171 7.86179 1.57128 -8.94929
167 1 15.7287 6.28552 9.43297 -8.94697
32 1 4.71647 7.86202 1.57071 -8.95037
166 1 12.5835 6.28091 9.42997 -8.95246
34 1 7.86164 7.86145 1.57049 -8.95194
35 1 9.43417 6.28839 0.000315237 -8.94998
36 1 11.0067 7.86109 1.57063 -8.9506
37 1 12.5798 6.28848 0.00028865 -8.95024
38 1 14.1539 7.8603 1.56911 -8.95103
165 1 9.4279 6.2959 9.43885 -9.00714
40 1 17.2985 7.86109 1.57091 -8.94921
164 1 6.27368 6.26929 9.43026 -8.95115
42 1 20.4419 7.86168 1.5716 -8.9494
163 1 3.13638 6.28393 9.43311 -8.948
162 1 -0.00245683 6.28802 9.43426 -8.94987
45 1 6.28923 9.43478 -0.000393051 -8.94962
161 1 18.8696 3.14372 9.43429 -8.9494
160 1 15.7256 3.14281 9.43394 -8.94918
48 1 15.726 9.43399 -0.000679121 -8.94943
159 1 12.5798 3.14254 9.43424 -8.95141
50 1 22.0133 8.78488e-15 3.14426 -8.94934
51 1 1.57116 1.57144 4.71617 -8.9494
52 1 3.14395 1.35609e-12 3.14387 -8.94958
53 1 4.71612 1.57086 4.71577 -8.95009
54 1 6.28936 6.02127e-13 3.14398 -8.94942
55 1 7.86196 1.57111 4.71605 -8.94946
56 1 9.43465 -9.75031e-14 3.14407 -8.94949
57 1 11.0073 1.57134 4.71626 -8.94939
58 1 12.5798 7.77899e-13 3.14426 -8.94939
59 1 14.1523 1.57136 4.71667 -8.95049
60 1 15.7247 4.27455e-13 3.14441 -8.95001
61 1 17.2973 1.57163 4.7167 -8.9496
62 1 18.8693 -5.44896e-14 3.14447 -8.94949
63 1 20.4413 1.57191 4.71679 -8.94951
64 1 22.013 3.14379 3.1437 -8.94899
65 1 1.56919 4.71452 4.71437 -8.948
66 1 3.14299 3.14294 3.1428 -8.94829
67 1 4.71227 4.71176 4.71156 -8.9446
68 1 6.28892 3.1431 3.14325 -8.94937
69 1 7.86092 4.71318 4.71396 -8.94811
70 1 9.43456 3.14319 3.14357 -8.94945
71 1 11.0074 4.71403 4.71465 -8.94725
72 1 12.5799 3.14331 3.14381 -8.94907
73 1 14.1545 4.71277 4.71393 -8.94978
74 1 15.7255 3.14291 3.14358 -8.94957
75 1 17.2988 4.71484 4.7154 -8.94878
76 1 18.8696 3.14378 3.14402 -8.94932
77 1 20.4412 4.71597 4.71613 -8.94973
78 1 22.0134 6.28896 3.14357 -8.94963
79 1 1.57016 7.86123 4.71484 -8.94927
80 1 3.14279 6.28829 3.14194 -8.95059
81 1 4.71337 7.86013 4.71122 -8.95325
82 1 6.28725 6.28687 3.13987 -8.95096
83 1 7.85849 7.85696 4.70748 -8.95778
84 1 9.43415 6.28677 3.14161 -8.94835
85 1 11.0065 7.85879 4.70999 -8.95312
86 1 12.5803 6.28719 3.14148 -8.95025
87 1 14.1616 7.85306 4.70545 -8.94095
88 1 15.7281 6.2858 3.1406 -8.94692
89 1 17.3008 7.85981 4.71418 -8.95002
90 1 18.8706 6.28839 3.14339 -8.94954
91 1 20.442 7.86132 4.71586 -8.94972
92 1 -0.000415398 9.43426 3.14342 -8.94939
93 1 3.14313 9.43418 3.14215 -8.94874
94 1 6.28927 9.43524 3.14224 -8.95174
95 1 9.43413 9.43371 3.14391 -8.9455
96 1 12.5825 9.43292 3.13661 -8.95609
97 1 15.7282 9.43311 3.14058 -8.94831
98 1 18.8708 9.43402 3.14322 -8.94931
99 1 22.0132 1.45244e-14 6.28925 -8.94946
100 1 1.57107 1.57145 7.86159 -8.94936
101 1 3.14353 3.92227e-13 6.28869 -8.94984
102 1 4.7156 1.57016 7.86115 -8.9504
103 1 6.28923 3.14389e-11 6.28878 -8.95067
104 1 7.86203 1.57045 7.86169 -8.95144
105 1 9.43479 9.80126e-12 6.28886 -8.95021
106 1 11.0068 1.57167 7.86192 -8.94953
107 1 12.5795 1.33301e-11 6.28936 -8.95012
108 1 14.1524 1.57122 7.86165 -8.95037
109 1 15.7248 -6.8094e-13 6.28924 -8.94995
110 1 17.2973 1.57168 7.86173 -8.94943
111 1 18.8693 -1.49141e-14 6.28938 -8.94949
112 1 20.4413 1.57188 7.86184 -8.94945
113 1 -0.0011488 3.14358 6.2889 -8.94943
114 1 1.56901 4.71451 7.8608 -8.94917
115 1 3.142 3.1415 6.28745 -8.94927
116 1 4.71056 4.70859 7.85793 -8.94871
117 1 6.28784 3.14015 6.28738 -8.95169
118 1 7.85949 4.70787 7.86036 -8.95955
119 1 9.43459 3.14155 6.28797 -8.94988
120 1 11.0051 4.7147 7.86181 -8.95338
121 1 12.5795 3.14249 6.28893 -8.95172
122 1 14.1543 4.71232 7.85975 -8.94982
123 1 15.7256 3.14255 6.28858 -8.94962
124 1 17.2984 4.71513 7.86123 -8.94916
125 1 18.8695 3.14375 6.28914 -8.94947
126 1 20.4411 4.71591 7.86162 -8.94951
127 1 22.0114 6.28791 6.28796 -8.95057
128 1 1.56547 7.85957 7.85939 -8.95356
129 1 3.13557 6.28257 6.2824 -8.94501
130 1 4.6928 7.84415 7.84475 -8.93675
131 1 6.27556 6.27454 6.27475 -8.92944
132 1 7.82034 7.8211 7.82327 -8.84598
133 1 9.43321 6.28078 6.28382 -8.94399
134 1 11.0175 7.8487 7.83887 -8.90055
135 1 12.5847 6.28054 6.28165 -8.94984
136 1 14.1665 7.84947 7.84957 -8.93491
137 1 15.73 6.28418 6.28491 -8.94606
138 1 17.3015 7.85963 7.86017 -8.95123
139 1 18.8706 6.28801 6.28841 -8.95014
140 1 20.4412 7.86113 7.86134 -8.95094
141 1 22.0123 9.43408 6.28789 -8.94933
142 1 3.13966 9.43378 6.28479 -8.94739
143 1 6.2845 9.43513 6.27994 -8.96125
144 1 9.4268 9.42078 6.29384 -8.92941
145 1 12.6052 9.41574 6.25782 -8.91683
146 1 15.7338 9.43169 6.28325 -8.95285
147 1 18.8717 9.43384 6.288 -8.95053
148 1 -0.000692311 4.82571e-14 9.4344 -8.94946
149 1 3.14331 1.11597e-12 9.43426 -8.94945
150 1 6.28884 1.24242e-11 9.43438 -8.9511
151 1 9.43474 1.96592e-10 9.43431 -8.94801
152 1 12.5796 -6.31394e-12 9.43429 -8.95007
153 1 15.7251 -1.99182e-13 9.43414 -8.94954
154 1 18.8694 -1.60889e-14 9.43435 -8.94949
155 1 22.0128 3.1436 9.43437 -8.94936
156 1 3.14195 3.14181 9.43411 -8.94904
157 1 6.28681 3.13873 9.43436 -8.95223
158 1 9.43418 3.14422 9.43482 -8.94511
183 1 1.56918 4.71482 11.0074 -8.9491
184 1 4.71056 4.71004 11.0083 -8.94621
11 1 15.7247 1.59221e-14 0.000189501 -8.9495
25 1 15.7251 3.14379 0.000194273 -8.94958
29 1 22.0138 6.2894 -0.000334727 -8.94945
41 1 18.87 6.28906 -0.000298997 -8.9494
176 1 1.57101 1.5715 11.0071 -8.94937
343 1 18.8704 9.43429 18.8701 -8.94936
178 1 7.86197 1.57045 11.0071 -8.95108
179 1 11.0069 1.5716 11.0068 -8.94888
180 1 14.1528 1.5711 11.0065 -8.94946
342 1 15.7266 9.43391 18.8718 -8.94888
182 1 20.4413 1.57188 11.007 -8.94947
47 1 12.5799 9.43427 22.0132 -8.95137
46 1 9.43413 9.43455 22.0141 -8.94886
185 1 7.85846 4.70835 11.0097 -8.9587
186 1 11.0067 4.71535 11.0076 -8.9503
187 1 14.1549 4.71304 11.0061 -8.94689
341 1 12.5802 9.43453 18.8736 -8.95238
340 1 9.43393 9.43471 18.8714 -8.95004
190 1 1.56673 7.86029 11.0074 -8.9525
191 1 4.69723 7.85242 11.009 -8.95611
192 1 7.80106 7.82392 11.0364 -8.81736
193 1 11.0468 7.85542 11.0187 -8.86984
194 1 14.1658 7.85603 11.006 -8.95423
195 1 17.3015 7.86003 11.0068 -8.95049
196 1 20.4415 7.86123 11.0072 -8.95057
197 1 -0.000669099 -4.98386e-14 12.5796 -8.94945
198 1 1.5711 1.57158 14.1525 -8.94932
199 1 3.14328 1.36538e-12 12.5799 -8.94936
200 1 4.71543 1.5703 14.1532 -8.95015
201 1 6.28882 3.10013e-11 12.5798 -8.95122
202 1 7.86187 1.57027 14.1529 -8.95071
203 1 9.43474 -2.25438e-12 12.5797 -8.94913
204 1 11.0073 1.57013 14.1528 -8.95099
205 1 12.5799 1.36777e-11 12.5792 -8.95099
206 1 14.1531 1.5703 14.1524 -8.95098
207 1 15.7252 -6.4732e-13 12.5792 -8.94954
208 1 17.2976 1.57155 14.152 -8.94958
209 1 18.8694 -2.30876e-14 12.5794 -8.94947
210 1 20.4414 1.57191 14.1521 -8.94945
211 1 22.0129 3.14368 12.5798 -8.94935
212 1 1.5695 4.71515 14.1535 -8.94919
213 1 3.14198 3.14202 12.5806 -8.94892
214 1 4.71054 4.70976 14.1577 -8.94412
215 1 6.28682 3.13873 12.5813 -8.95248
216 1 7.86045 4.70855 14.1566 -8.95583
217 1 9.4348 3.14191 12.5807 -8.94794
218 1 11.0084 4.70759 14.1571 -8.95473
219 1 12.5807 3.14006 12.5797 -8.95375
220 1 14.1574 4.7084 14.1565 -8.95014
221 1 15.7259 3.14247 12.5794 -8.94941
222 1 17.2995 4.71458 14.1529 -8.94979
223 1 18.8697 3.14371 12.5795 -8.94935
224 1 20.4416 4.71607 14.1525 -8.94972
225 1 -0.00186106 6.28832 12.5802 -8.95015
226 1 1.56988 7.86163 14.153 -8.95207
227 1 3.13726 6.28491 12.5825 -8.94879
228 1 4.70653 7.85511 14.1597 -8.94968
229 1 6.27242 6.26944 12.5933 -8.93167
230 1 7.83875 7.83244 14.1853 -8.90322
231 1 9.43574 6.28485 12.5862 -8.9851
232 1 11.0296 7.8297 14.1893 -8.8877
233 1 12.5901 6.27058 12.5878 -8.95678
234 1 14.1761 7.8404 14.1745 -8.92319
235 1 15.7304 6.28453 12.5808 -8.94946
236 1 17.3042 7.85869 14.1555 -8.95273
237 1 18.871 6.28809 12.5799 -8.94979
238 1 20.4428 7.86148 14.1528 -8.95086
239 1 22.0134 9.43455 12.5799 -8.94998
240 1 3.14085 9.43472 12.5795 -8.95261
241 1 6.27418 9.41245 12.596 -8.88919
242 1 9.43846 9.26879 12.6359 -8.23653
243 1 12.6318 9.37313 12.6439 -8.77148
244 1 15.739 9.42993 12.586 -8.95693
245 1 18.8729 9.43399 12.5804 -8.9517
246 1 22.0133 2.52358e-15 15.7247 -8.94945
247 1 1.5713 1.57171 17.2977 -8.94911
248 1 3.14343 1.27091e-12 15.7254 -8.94954
249 1 4.71598 1.57116 17.2982 -8.9499
250 1 6.28895 2.45285e-13 15.7254 -8.95022
251 1 7.8615 1.57098 17.2984 -8.94929
252 1 9.43451 1.05062e-12 15.7257 -8.95012
253 1 11.0074 1.57087 17.2984 -8.94934
254 1 12.5801 3.9056e-13 15.7253 -8.95033
255 1 14.1531 1.57086 17.2982 -8.94979
256 1 15.7254 4.1318e-13 15.725 -8.95015
257 1 17.2979 1.57137 17.2977 -8.94948
258 1 18.8695 -3.7965e-14 15.7245 -8.9496
259 1 20.4416 1.57193 17.2972 -8.9495
260 1 -0.000845695 3.14386 15.7251 -8.94941
261 1 1.57064 4.71597 17.2984 -8.9495
262 1 3.14211 3.14225 15.7266 -8.94814
263 1 4.71311 4.71332 17.3015 -8.94651
264 1 6.28776 3.14087 15.727 -8.95091
265 1 7.86039 4.71314 17.3012 -8.9476
266 1 9.43432 3.14036 15.7276 -8.94928
267 1 11.0079 4.7127 17.3016 -8.94786
268 1 12.5812 3.14012 15.7271 -8.9505
269 1 14.156 4.7121 17.302 -8.94614
270 1 15.727 3.14132 15.7264 -8.94954
271 1 17.3002 4.71424 17.2996 -8.94749
272 1 18.8701 3.1436 15.7249 -8.94967
273 1 20.4422 4.71628 17.2977 -8.94984
274 1 22.0133 6.28895 15.7254 -8.95067
275 1 1.57191 7.86227 17.2975 -8.94949
276 1 3.14004 6.28676 15.7282 -8.94956
277 1 4.71605 7.86248 17.2989 -8.95231
278 1 6.2795 6.27901 15.7371 -8.93899
279 1 7.86001 7.85873 17.3055 -8.9572
280 1 9.43372 6.27949 15.7354 -8.94137
281 1 11.008 7.85756 17.3077 -8.95629
282 1 12.5893 6.27669 15.7385 -8.93646
283 1 14.1558 7.85907 17.3044 -8.95297
284 1 15.7337 6.28151 15.7325 -8.94235
285 1 17.2995 7.86097 17.2993 -8.9492
286 1 18.8721 6.28785 15.7261 -8.95038
287 1 20.4424 7.86181 17.2976 -8.94936
288 1 22.0141 9.43451 15.7252 -8.94917
289 1 3.14421 9.43518 15.7251 -8.94806
290 1 6.29115 9.43778 15.7252 -8.95707
291 1 9.43466 9.42932 15.7298 -8.96853
292 1 12.5839 9.43302 15.7403 -8.96339
293 1 15.73 9.43311 15.7304 -8.94724
294 1 18.8717 9.4341 15.7261 -8.94905
295 1 -0.0003848 2.46024e-14 18.8696 -8.94924
296 1 1.57174 1.57195 20.442 -8.94912
297 1 3.14394 3.42526e-15 18.87 -8.94956
298 1 4.71659 1.57186 20.4421 -8.94941
299 1 6.28905 2.1088e-14 18.8702 -8.94932
300 1 7.86177 1.57176 20.4423 -8.94941
301 1 9.43443 2.45661e-14 18.8703 -8.94942
302 1 11.0071 1.57173 20.4423 -8.94942
303 1 12.5799 1.27931e-14 18.8702 -8.94934
304 1 14.1524 1.57176 20.4423 -8.94938
305 1 15.7251 7.63289e-15 18.8701 -8.94949
306 1 17.2974 1.57183 20.4421 -8.94924
307 1 18.8697 9.29132e-15 18.8697 -8.94934
308 1 20.4417 1.57203 20.4418 -8.94907
309 1 22.0135 3.14416 18.8699 -8.94941
310 1 1.57184 4.7169 20.4418 -8.94995
311 1 3.1432 3.14343 18.8708 -8.94864
312 1 4.71592 4.71611 20.4428 -8.95002
313 1 6.28858 3.1432 18.8709 -8.94911
314 1 7.86135 4.71571 20.4431 -8.94926
315 1 9.43431 3.14295 18.8711 -8.94937
316 1 11.0072 4.71557 20.4432 -8.9493
317 1 12.5802 3.1429 18.8711 -8.94911
318 1 14.153 4.71561 20.4432 -8.9497
319 1 15.726 3.14294 18.871 -8.94862
320 1 17.298 4.71611 20.4422 -8.94963
321 1 18.8702 3.14374 18.8701 -8.94889
322 1 20.4419 4.71686 20.4417 -8.94961
323 1 22.0139 6.28951 18.8696 -8.94965
324 1 1.572 7.86203 20.4416 -8.94939
325 1 3.14376 6.28943 18.8703 -8.9506
326 1 4.71664 7.8623 20.4419 -8.94993
327 1 6.28756 6.28772 18.8732 -8.95125
328 1 7.86149 7.86166 20.4434 -8.95165
329 1 9.43393 6.28676 18.8739 -8.94907
330 1 11.0068 7.86128 20.444 -8.95166
331 1 12.5811 6.28687 18.8742 -8.95058
332 1 14.153 7.86128 20.4431 -8.95079
333 1 15.7267 6.28774 18.8721 -8.95043
334 1 17.2981 7.86148 20.4421 -8.94926
335 1 18.8704 6.28902 18.87 -8.94953
336 1 20.442 7.86187 20.4417 -8.94945
337 1 5.75214e-05 9.43447 18.8696 -8.94952
338 1 3.14407 9.43463 18.8697 -8.94909
339 1 6.28932 9.43538 18.8697 -8.94965
7 1 9.43451 3.69883e-14 22.014 -8.94948
44 1 3.14407 9.43446 22.0133 -8.94953
17 1 3.14391 3.144 22.0137 -8.94948
19 1 6.2891 3.14388 22.014 -8.94933
21 1 9.43443 3.14377 22.0141 -8.94942
43 1 22.0138 9.43441 22.0135 -8.9495
27 1 18.8698 3.14411 22.0138 -8.94925
39 1 15.7257 6.28836 22.0134 -8.95004
31 1 3.14416 6.28945 22.0134 -8.95003
33 1 6.28881 6.28889 22.0137 -8.95087
3 1 3.14431 4.51907e-15 22.0139 -8.94952
13 1 18.8694 8.34542e-15 22.0139 -8.94912
15 1 22.0137 3.1444 22.0137 -8.94957
23 1 12.5798 3.14377 22.0142 -8.9493
49 1 18.8701 9.43429 22.0136 -8.94943
344 1 1.57169 11.007 1.57123 -8.94948
345 1 4.71623 11.007 1.57055 -8.94989
346 1 7.86225 11.007 1.5725 -8.94727
347 1 11.0068 11.007 1.57048 -8.95048
348 1 14.1544 11.007 1.56884 -8.94969
349 1 17.2986 11.007 1.57087 -8.94938
350 1 20.442 11.007 1.57156 -8.94945
688 3 10.1364 11.0072 9.55331 2.22152
352 1 1.57171 14.1521 1.57128 -8.94929
511 1 18.8696 18.8702 9.43429 -8.9494
354 1 4.71647 14.1519 1.57071 -8.95037
355 1 6.28923 12.5791 -0.000393051 -8.94962
356 1 7.86164 14.1524 1.57049 -8.95194
510 1 15.7256 18.8711 9.43394 -8.94918
358 1 11.0067 14.1528 1.57063 -8.9506
509 1 12.5798 18.8714 9.43424 -8.95141
360 1 14.1539 14.1536 1.56911 -8.95103
361 1 15.726 12.5799 -0.000679121 -8.94943
362 1 17.2985 14.1528 1.57091 -8.94921
538 1 17.2975 20.4422 11.0068 -8.94945
364 1 20.4419 14.1522 1.5716 -8.9494
508 1 9.43418 18.8697 9.43482 -8.94512
366 1 1.57156 17.2974 1.5713 -8.94982
507 1 6.28681 18.8752 9.43436 -8.95223
368 1 4.71587 17.2981 1.57065 -8.94985
506 1 3.14195 18.8721 9.43411 -8.94904
370 1 7.86159 17.2982 1.57127 -8.94919
371 1 9.43417 15.7255 0.000315237 -8.94998
372 1 11.0072 17.2982 1.57151 -8.94922
373 1 12.5798 15.7254 0.00028865 -8.95024
374 1 14.1527 17.2983 1.57141 -8.94996
505 1 22.0128 18.8703 9.43437 -8.94936
376 1 17.2982 17.2983 1.57116 -8.94873
504 1 18.8704 15.7259 9.43421 -8.94952
378 1 20.4418 17.2973 1.57172 -8.9495
534 1 4.71524 20.4437 11.0072 -8.94949
380 1 1.57163 20.442 1.57179 -8.94909
503 1 15.7287 15.7284 9.43297 -8.94697
382 1 4.7167 20.4421 1.57185 -8.9495
502 1 12.5835 15.733 9.42997 -8.95246
384 1 7.86194 20.4421 1.57196 -8.94944
501 1 9.4279 15.718 9.43885 -9.00711
386 1 11.0071 20.4421 1.57205 -8.94946
532 1 20.4412 17.298 11.0071 -8.94951
388 1 14.1522 20.4421 1.57217 -8.94943
500 1 6.27368 15.7446 9.43026 -8.95114
390 1 17.2973 20.4421 1.57204 -8.94946
499 1 3.13638 15.73 9.43311 -8.948
392 1 20.4414 20.4419 1.57202 -8.9492
393 1 1.57031 11.007 4.7146 -8.94923
394 1 4.71376 11.007 4.71148 -8.94584
395 1 7.86547 11.007 4.72084 -8.94427
396 1 11.0087 11.007 4.70864 -8.98073
397 1 14.1608 11.007 4.70663 -8.94322
398 1 17.3011 11.007 4.71392 -8.94912
399 1 20.4421 11.007 4.71569 -8.94968
400 1 -0.000415398 12.5796 3.14342 -8.94939
401 1 1.57016 14.1527 4.71484 -8.94927
402 1 3.14313 12.5797 3.14215 -8.94874
403 1 4.71337 14.1538 4.71122 -8.95325
404 1 6.28927 12.5787 3.14224 -8.95174
405 1 7.85849 14.1569 4.70748 -8.95779
406 1 9.43413 12.5802 3.14391 -8.9455
407 1 11.0065 14.1551 4.70999 -8.95312
408 1 12.5825 12.581 3.13661 -8.95609
409 1 14.1616 14.1608 4.70545 -8.94095
410 1 15.7282 12.5808 3.14058 -8.94831
411 1 17.3008 14.1541 4.71418 -8.95002
412 1 18.8708 12.5799 3.14322 -8.94931
413 1 20.442 14.1526 4.71586 -8.94972
414 1 22.0134 15.7249 3.14357 -8.94963
415 1 1.56919 17.2994 4.71437 -8.948
416 1 3.14279 15.7256 3.14194 -8.95059
417 1 4.71227 17.3021 4.71156 -8.9446
418 1 6.28725 15.727 3.13987 -8.95096
419 1 7.86092 17.3007 4.71396 -8.94811
420 1 9.43415 15.7271 3.14161 -8.94835
421 1 11.0074 17.2999 4.71465 -8.94725
422 1 12.5803 15.7267 3.14148 -8.95025
423 1 14.1545 17.3011 4.71393 -8.94978
424 1 15.7281 15.7281 3.1406 -8.94692
425 1 17.2988 17.2991 4.7154 -8.94878
426 1 18.8706 15.7255 3.14339 -8.94954
427 1 20.4412 17.2979 4.71613 -8.94973
428 1 22.013 18.8701 3.1437 -8.94899
429 1 1.57116 20.4425 4.71617 -8.9494
430 1 3.14299 18.871 3.1428 -8.94829
431 1 4.71612 20.443 4.71577 -8.95009
432 1 6.28892 18.8708 3.14325 -8.94937
433 1 7.86196 20.4428 4.71605 -8.94946
434 1 9.43456 18.8707 3.14357 -8.94945
435 1 11.0073 20.4426 4.71626 -8.94939
436 1 12.5799 18.8706 3.14381 -8.94907
437 1 14.1523 20.4425 4.71667 -8.95049
438 1 15.7255 18.871 3.14358 -8.94957
439 1 17.2973 20.4423 4.7167 -8.9496
440 1 18.8696 18.8701 3.14402 -8.94932
441 1 20.4413 20.442 4.71679 -8.94951
442 1 1.56783 11.007 7.85889 -8.94728
443 1 4.70945 11.007 7.85255 -8.93538
444 1 7.87354 11.007 7.87838 -8.92311
445 1 11.0688 11.007 7.73973 -8.3195
446 1 14.168 11.007 7.85003 -8.95912
447 1 17.3023 11.007 7.85986 -8.95074
448 1 20.4417 11.007 7.86107 -8.95001
449 1 22.0123 12.5798 6.28789 -8.94933
450 1 1.56547 14.1543 7.85939 -8.95356
451 1 3.13966 12.5801 6.28479 -8.94739
452 1 4.6928 14.1698 7.84475 -8.93675
453 1 6.2845 12.5788 6.27994 -8.96125
454 1 7.82034 14.1928 7.82326 -8.84611
455 1 9.4268 12.5931 6.29384 -8.92941
456 1 11.0175 14.1652 7.83887 -8.90057
457 1 12.6052 12.5982 6.25782 -8.91683
458 1 14.1665 14.1644 7.84957 -8.93491
459 1 15.7338 12.5822 6.28325 -8.95285
460 1 17.3015 14.1543 7.86017 -8.95123
461 1 18.8717 12.5801 6.288 -8.95053
462 1 20.4412 14.1528 7.86134 -8.95094
463 1 22.0114 15.726 6.28796 -8.95057
464 1 1.56901 17.2994 7.8608 -8.94917
465 1 3.13557 15.7313 6.2824 -8.94501
466 1 4.71056 17.3053 7.85793 -8.94871
467 1 6.27556 15.7394 6.27475 -8.92944
468 1 7.85949 17.306 7.86036 -8.95955
469 1 9.43321 15.7331 6.28382 -8.94399
470 1 11.0051 17.2992 7.86181 -8.95338
471 1 12.5847 15.7334 6.28165 -8.94984
472 1 14.1543 17.3016 7.85975 -8.94982
473 1 15.73 15.7297 6.28491 -8.94606
474 1 17.2984 17.2988 7.86123 -8.94916
475 1 18.8706 15.7259 6.28841 -8.95014
476 1 20.4411 17.298 7.86162 -8.94951
477 1 -0.0011488 18.8703 6.2889 -8.94943
478 1 1.57107 20.4425 7.86159 -8.94936
479 1 3.142 18.8724 6.28745 -8.94927
480 1 4.7156 20.4437 7.86115 -8.9504
481 1 6.28784 18.8738 6.28738 -8.95169
482 1 7.86203 20.4435 7.86169 -8.95144
483 1 9.43459 18.8724 6.28797 -8.94988
484 1 11.0068 20.4422 7.86192 -8.94953
485 1 12.5795 18.8714 6.28893 -8.95172
486 1 14.1524 20.4427 7.86165 -8.95037
487 1 15.7256 18.8713 6.28858 -8.94962
488 1 17.2973 20.4422 7.86173 -8.94943
489 1 18.8695 18.8702 6.28914 -8.94947
490 1 20.4413 20.442 7.86184 -8.94945
491 1 22.0113 12.5796 9.43403 -8.95156
492 1 3.13259 12.5814 9.43044 -8.96
493 1 6.24133 12.6296 9.39095 -8.86568
494 1 9.34655 12.8295 9.44264 -7.95542
495 1 12.6029 12.6121 9.39041 -8.8083
496 1 15.7329 12.5822 9.43079 -8.94958
497 1 18.8714 12.58 9.43402 -8.95007
498 1 -0.00245683 15.7259 9.43426 -8.94987
513 1 4.71798 11.007 10.9989 -9.00865
514 1 7.59461 11.007 10.9184 -7.99427
531 1 17.2987 17.2988 11.0067 -8.94892
526 1 1.56918 17.2991 11.0074 -8.9491
527 1 4.71056 17.3039 11.0083 -8.94621
389 1 15.7251 18.8701 0.000194273 -8.94958
365 1 22.0138 15.7245 -0.000334727 -8.94945
377 1 18.87 15.7248 -0.000298997 -8.9494
512 1 1.57034 11.007 11.0068 -8.94579
687 3 9.47957 11.007 11.5873 2.15942
686 1 20.4417 20.4419 20.4418 -8.94907
515 1 11.4164 11.007 11.0892 -7.17261
516 1 14.1767 11.007 11.0124 -9.02131
517 1 17.3031 11.007 11.0071 -8.95378
518 1 20.4424 11.007 11.0071 -8.94929
519 1 1.56673 14.1536 11.0074 -8.9525
520 1 4.69723 14.1615 11.009 -8.95611
521 1 7.80106 14.19 11.0364 -8.81749
522 1 11.0469 14.1585 11.0187 -8.86985
523 1 14.1658 14.1579 11.006 -8.95423
524 1 17.3015 14.1539 11.0068 -8.95049
525 1 20.4415 14.1527 11.0072 -8.95057
391 1 18.8698 18.8698 22.0138 -8.94925
385 1 9.43443 18.8701 22.0141 -8.94942
528 1 7.85846 17.3056 11.0097 -8.9587
529 1 11.0067 17.2986 11.0076 -8.9503
530 1 14.1549 17.3009 11.0061 -8.94689
685 1 18.8702 18.8702 18.8701 -8.94889
684 1 17.2974 20.4421 20.4421 -8.94924
533 1 1.57101 20.4424 11.0071 -8.94937
683 1 15.726 18.871 18.871 -8.94862
535 1 7.86197 20.4435 11.0071 -8.95108
536 1 11.0069 20.4423 11.0068 -8.94888
537 1 14.1528 20.4428 11.0065 -8.94946
682 1 14.1524 20.4421 20.4423 -8.94938
539 1 20.4413 20.442 11.007 -8.94947
540 1 1.57177 11.007 14.1529 -8.94809
541 1 4.71779 11.007 14.1507 -8.94019
542 1 7.87513 11.007 14.1149 -8.93032
543 1 11.008 11.007 14.1425 -8.97662
544 1 14.163 11.007 14.1638 -8.93648
545 1 17.3023 11.007 14.1554 -8.94762
546 1 20.443 11.007 14.153 -8.94953
547 1 22.0134 12.5794 12.5799 -8.94998
548 1 1.56988 14.1523 14.153 -8.95207
549 1 3.14085 12.5792 12.5795 -8.95261
550 1 4.70653 14.1588 14.1597 -8.94968
551 1 6.27418 12.6015 12.596 -8.88919
552 1 7.83875 14.1815 14.1853 -8.90322
553 1 9.43846 12.7451 12.6359 -8.23654
554 1 11.0296 14.1842 14.1893 -8.8877
555 1 12.6318 12.6408 12.6439 -8.77148
556 1 14.1761 14.1735 14.1745 -8.92319
557 1 15.739 12.584 12.586 -8.95693
558 1 17.3042 14.1552 14.1555 -8.95273
559 1 18.8729 12.5799 12.5804 -8.9517
560 1 20.4428 14.1524 14.1528 -8.95086
561 1 -0.00186106 15.7256 12.5802 -8.95015
562 1 1.5695 17.2988 14.1535 -8.94919
563 1 3.13726 15.729 12.5825 -8.94879
564 1 4.71054 17.3041 14.1577 -8.94412
565 1 6.27242 15.7445 12.5933 -8.93166
566 1 7.86045 17.3053 14.1566 -8.95583
567 1 9.43574 15.729 12.5862 -8.98509
568 1 11.0084 17.3063 14.1571 -8.95473
569 1 12.5901 15.7433 12.5878 -8.95678
570 1 14.1574 17.3055 14.1565 -8.95014
571 1 15.7304 15.7294 12.5808 -8.94946
572 1 17.2995 17.2993 14.1529 -8.94979
573 1 18.871 15.7258 12.5799 -8.94979
574 1 20.4416 17.2978 14.1525 -8.94972
575 1 22.0129 18.8702 12.5798 -8.94935
576 1 1.5711 20.4423 14.1525 -8.94932
577 1 3.14198 18.8719 12.5806 -8.94892
578 1 4.71543 20.4436 14.1532 -8.95015
579 1 6.28682 18.8752 12.5813 -8.95248
580 1 7.86187 20.4436 14.1529 -8.95071
581 1 9.4348 18.872 12.5807 -8.94794
582 1 11.0073 20.4438 14.1528 -8.95099
583 1 12.5807 18.8738 12.5797 -8.95375
584 1 14.1531 20.4436 14.1524 -8.95098
585 1 15.7259 18.8714 12.5794 -8.94941
586 1 17.2976 20.4424 14.152 -8.94958
587 1 18.8697 18.8702 12.5795 -8.94935
588 1 20.4414 20.442 14.1521 -8.94945
589 1 1.57199 11.007 17.2975 -8.94967
590 1 4.71613 11.007 17.2977 -8.94763
591 1 7.86297 11.007 17.2922 -8.93527
592 1 11.0064 11.007 17.2984 -8.94192
593 1 14.1562 11.007 17.3037 -8.94655
594 1 17.2996 11.007 17.2993 -8.9492
595 1 20.4424 11.007 17.2977 -8.94951
596 1 22.0141 12.5794 15.7252 -8.94917
597 1 1.57191 14.1516 17.2975 -8.94949
598 1 3.14421 12.5787 15.7251 -8.94806
599 1 4.71605 14.1514 17.2989 -8.95231
600 1 6.29115 12.5761 15.7252 -8.95707
601 1 7.86001 14.1552 17.3055 -8.9572
602 1 9.43466 12.5846 15.7298 -8.96853
603 1 11.008 14.1563 17.3077 -8.95629
604 1 12.5839 12.5809 15.7403 -8.96339
605 1 14.1558 14.1548 17.3044 -8.95297
606 1 15.73 12.5808 15.7304 -8.94724
607 1 17.2995 14.1529 17.2993 -8.9492
608 1 18.8717 12.5798 15.7261 -8.94905
609 1 20.4424 14.1521 17.2976 -8.94936
610 1 22.0133 15.725 15.7254 -8.95067
611 1 1.57064 17.2979 17.2984 -8.9495
612 1 3.14004 15.7271 15.7282 -8.94956
613 1 4.71311 17.3006 17.3015 -8.94651
614 1 6.2795 15.7349 15.7371 -8.93899
615 1 7.86039 17.3008 17.3012 -8.9476
616 1 9.43372 15.7344 15.7354 -8.94137
617 1 11.0079 17.3012 17.3016 -8.94786
618 1 12.5893 15.7372 15.7385 -8.93646
619 1 14.156 17.3018 17.302 -8.94614
620 1 15.7337 15.7324 15.7325 -8.94235
621 1 17.3002 17.2997 17.2996 -8.94749
622 1 18.8721 15.7261 15.7261 -8.95038
623 1 20.4422 17.2976 17.2977 -8.94984
624 1 -0.000845695 18.87 15.7251 -8.94941
625 1 1.5713 20.4422 17.2977 -8.94911
626 1 3.14211 18.8717 15.7266 -8.94814
627 1 4.71598 20.4427 17.2982 -8.9499
628 1 6.28776 18.873 15.727 -8.95091
629 1 7.8615 20.4429 17.2984 -8.94929
630 1 9.43432 18.8735 15.7276 -8.94928
631 1 11.0074 20.443 17.2984 -8.94934
632 1 12.5812 18.8738 15.7271 -8.9505
633 1 14.1531 20.443 17.2982 -8.94979
634 1 15.727 18.8726 15.7264 -8.94954
635 1 17.2979 20.4425 17.2977 -8.94948
636 1 18.8701 18.8703 15.7249 -8.94967
637 1 20.4416 20.442 17.2972 -8.9495
638 1 1.57197 11.007 20.4416 -8.94953
639 1 4.71641 11.007 20.4416 -8.9497
640 1 7.86156 11.007 20.4415 -8.9468
641 1 11.0067 11.007 20.4426 -8.94817
642 1 14.1534 11.007 20.443 -8.95013
643 1 17.2982 11.007 20.4421 -8.94942
644 1 20.442 11.007 20.4417 -8.9495
645 1 5.75214e-05 12.5794 18.8696 -8.94952
646 1 1.572 14.1519 20.4416 -8.94939
647 1 3.14407 12.5793 18.8697 -8.94909
648 1 4.71664 14.1516 20.4419 -8.94993
649 1 6.28932 12.5785 18.8697 -8.94965
650 1 7.86149 14.1522 20.4434 -8.95165
651 1 9.43393 12.5792 18.8714 -8.95004
652 1 11.0068 14.1526 20.444 -8.95166
653 1 12.5802 12.5794 18.8736 -8.95238
654 1 14.153 14.1526 20.4431 -8.95079
655 1 15.7266 12.58 18.8718 -8.94888
656 1 17.2981 14.1524 20.4421 -8.94926
657 1 18.8704 12.5796 18.8701 -8.94936
658 1 20.442 14.152 20.4417 -8.94945
659 1 22.0139 15.7244 18.8696 -8.94965
660 1 1.57184 17.297 20.4418 -8.94995
661 1 3.14376 15.7245 18.8703 -8.9506
662 1 4.71592 17.2978 20.4428 -8.95002
663 1 6.28756 15.7262 18.8732 -8.95125
664 1 7.86135 17.2982 20.4431 -8.94926
665 1 9.43393 15.7271 18.8739 -8.94907
666 1 11.0072 17.2983 20.4432 -8.9493
667 1 12.5811 15.727 18.8742 -8.95058
668 1 14.153 17.2983 20.4432 -8.9497
669 1 15.7267 15.7262 18.8721 -8.95043
670 1 17.298 17.2978 20.4422 -8.94963
671 1 18.8704 15.7249 18.87 -8.94953
672 1 20.4419 17.297 20.4417 -8.94961
673 1 22.0135 18.8697 18.8699 -8.94941
674 1 1.57174 20.442 20.442 -8.94912
675 1 3.1432 18.8705 18.8708 -8.94864
676 1 4.71659 20.442 20.4421 -8.94941
677 1 6.28858 18.8707 18.8709 -8.94911
678 1 7.86177 20.4421 20.4423 -8.94941
679 1 9.43431 18.8709 18.8711 -8.94937
680 1 11.0071 20.4422 20.4423 -8.94942
681 1 12.5802 18.871 18.8711 -8.94911
351 1 22.0138 12.5795 22.0135 -8.9495
353 1 3.14407 12.5794 22.0133 -8.94953
357 1 9.43413 12.5794 22.0141 -8.94886
359 1 12.5799 12.5796 22.0132 -8.95137
383 1 6.2891 18.87 22.014 -8.94933
367 1 3.14416 15.7245 22.0134 -8.95003
369 1 6.28881 15.725 22.0137 -8.95087
375 1 15.7257 15.7255 22.0134 -8.95004
381 1 3.14391 18.8699 22.0137 -8.94948
363 1 18.8701 12.5796 22.0136 -8.94943
379 1 22.0137 18.8695 22.0137 -8.94957
387 1 12.5798 18.8701 22.0142 -8.9493
