ITEM: TIMESTEP
63
ITEM: NUMBER OF ATOMS
688
ITEM: BOX BOUNDS pp pp pp
0.0000000000000000e+00 2.2013900999999997e+01
0.0000000000000000e+00 2.2013900999999997e+01
0.0000000000000000e+00 2.2013900999999997e+01
ITEM: ATOMS id type x y z c_pot
1 1 22.0138 7.28084e-16 4.12743e-06 -8.94944
2 1 1.57225 1.57229 1.57229 -8.94938
189 1 20.4415 4.71686 11.007 -8.94956
4 1 4.71719 1.57227 1.57229 -8.94968
5 1 6.28966 1.34868e-15 4.26588e-06 -8.94962
6 1 7.86208 1.57225 1.57227 -8.94959
175 1 18.8705 9.43418 9.43447 -8.94981
8 1 11.007 1.57224 1.57226 -8.9496
9 1 12.5794 2.15206e-16 7.54634e-07 -8.94962
10 1 14.1518 1.57226 1.57231 -8.94955
174 1 15.7297 9.43304 9.43269 -8.94996
12 1 17.2968 1.57223 1.5723 -8.94956
188 1 17.2977 4.7163 11.0068 -8.94904
14 1 20.4415 1.57235 1.57236 -8.94953
181 1 17.2969 1.57215 11.0069 -8.94956
16 1 1.5722 4.7171 1.57212 -8.94975
173 1 12.5966 9.40784 9.39331 -8.81544
18 1 4.71669 4.71664 1.57162 -8.94965
172 1 9.34329 9.20309 9.44932 -7.98646
20 1 7.86197 4.71664 1.57182 -8.94924
171 1 6.24414 9.39084 9.39388 -8.87147
22 1 11.007 4.71659 1.57188 -8.94939
177 1 4.71641 1.57131 11.007 -8.94936
24 1 14.152 4.71666 1.57197 -8.94985
170 1 3.13476 9.43364 9.43233 -8.96011
26 1 17.2973 4.71659 1.57179 -8.94868
169 1 22.012 9.43453 9.43449 -8.95146
28 1 20.4416 4.71714 1.57227 -8.94961
168 1 18.8699 6.28895 9.43448 -8.94945
30 1 1.57218 7.86204 1.57213 -8.94944
167 1 15.727 6.28714 9.43396 -8.94706
32 1 4.71689 7.86213 1.57161 -8.95009
166 1 12.5818 6.28274 9.43016 -8.95179
34 1 7.86184 7.86178 1.57085 -8.9519
35 1 9.43437 6.28905 3.85444e-05 -8.94978
36 1 11.0066 7.86139 1.57081 -8.95033
37 1 12.5795 6.28916 5.35515e-05 -8.94997
38 1 14.1529 7.86099 1.56994 -8.95118
165 1 9.42944 6.29471 9.43748 -9.00287
40 1 17.2973 7.8618 1.5718 -8.94937
164 1 6.27788 6.27344 9.43065 -8.95036
42 1 20.4416 7.86204 1.57224 -8.94956
163 1 3.14002 6.28669 9.43417 -8.94852
162 1 -0.00106514 6.28906 9.43454 -8.94973
45 1 6.28934 9.43463 -0.000171833 -8.94968
161 1 18.8693 3.14452 9.43448 -8.94956
160 1 15.725 3.14378 9.43434 -8.94922
48 1 15.7249 9.43433 -0.000445434 -8.94938
159 1 12.5798 3.14303 9.43424 -8.95094
50 1 22.0138 4.16881e-16 3.14477 -8.94959
51 1 1.57212 1.57214 4.71704 -8.94957
52 1 3.14463 1.0239e-15 3.1446 -8.9496
53 1 4.71685 1.57173 4.71672 -8.94992
54 1 6.28964 9.5319e-16 3.14462 -8.94955
55 1 7.86211 1.57181 4.71678 -8.94948
56 1 9.43455 6.04907e-16 3.14459 -8.94959
57 1 11.0071 1.57183 4.71677 -8.94947
58 1 12.5795 1.46673e-15 3.14461 -8.94951
59 1 14.152 1.57188 4.71702 -8.95026
60 1 15.7244 6.81121e-16 3.1447 -8.94985
61 1 17.2968 1.5722 4.71715 -8.94959
62 1 18.8691 -1.21376e-16 3.1448 -8.94961
63 1 20.4415 1.57235 4.71723 -8.94965
64 1 22.0136 3.14458 3.14458 -8.9493
65 1 1.57098 4.71612 4.71611 -8.94838
66 1 3.14415 3.14412 3.14409 -8.94863
67 1 4.71442 4.71413 4.71399 -8.94538
68 1 6.28952 3.14419 3.14425 -8.94963
69 1 7.86178 4.71495 4.71539 -8.94874
70 1 9.43456 3.14412 3.14424 -8.94954
71 1 11.0073 4.71511 4.71561 -8.94775
72 1 12.5795 3.14415 3.14435 -8.94921
73 1 14.1534 4.71424 4.71543 -8.95033
74 1 15.7247 3.14397 3.1443 -8.94962
75 1 17.2976 4.71631 4.71664 -8.94907
76 1 18.8692 3.1446 3.14467 -8.94952
77 1 20.4414 4.71693 4.717 -8.94969
78 1 22.0138 6.28956 3.14456 -8.94972
79 1 1.57145 7.8619 4.71638 -8.94941
80 1 3.14398 6.28919 3.14363 -8.95028
81 1 4.71492 7.86118 4.71344 -8.95266
82 1 6.28816 6.28797 3.14152 -8.95041
83 1 7.85892 7.85787 4.70839 -8.95582
84 1 9.43432 6.28792 3.14255 -8.94814
85 1 11.0063 7.85908 4.71081 -8.95156
86 1 12.5797 6.28816 3.14277 -8.94963
87 1 14.1613 7.85285 4.70658 -8.93722
88 1 15.7269 6.28695 3.14194 -8.94606
89 1 17.2995 7.86079 4.71575 -8.95037
90 1 18.8698 6.28923 3.14433 -8.94967
91 1 20.4418 7.86188 4.71687 -8.94983
92 1 -0.000149827 9.43447 3.14447 -8.94956
93 1 3.14397 9.43441 3.14361 -8.94891
94 1 6.28937 9.43516 3.14273 -8.95125
95 1 9.43452 9.43424 3.14337 -8.94784
96 1 12.5814 9.43334 3.13751 -8.95769
97 1 15.7265 9.4337 3.14234 -8.94809
98 1 18.8698 9.43438 3.1443 -8.94942
99 1 22.0138 2.27004e-16 6.28965 -8.94962
100 1 1.57211 1.57216 7.86204 -8.94954
101 1 3.14448 1.10387e-15 6.28945 -8.94971
102 1 4.7166 1.5713 7.86172 -8.95007
103 1 6.2895 1.39056e-15 6.28932 -8.95037
104 1 7.86216 1.571 7.86184 -8.95112
105 1 9.43469 1.1024e-15 6.28929 -8.95005
106 1 11.007 1.57175 7.86194 -8.94948
107 1 12.5795 1.08667e-15 6.28952 -8.95003
108 1 14.1522 1.57173 7.86193 -8.95008
109 1 15.7244 1.02226e-15 6.28956 -8.94974
110 1 17.2969 1.57218 7.86204 -8.94951
111 1 18.8691 -1.85135e-16 6.28965 -8.94959
112 1 20.4415 1.57232 7.86208 -8.94961
113 1 -0.000267698 3.14456 6.28957 -8.94962
114 1 1.57112 4.71627 7.8618 -8.94945
115 1 3.14375 3.1434 6.28887 -8.9494
116 1 4.71357 4.7119 7.85962 -8.94887
117 1 6.28883 3.14201 6.28841 -8.95128
118 1 7.86095 4.70977 7.86072 -8.9585
119 1 9.43487 3.14257 6.28861 -8.94985
120 1 11.0058 4.71518 7.86199 -8.95179
121 1 12.5795 3.14318 6.28936 -8.95157
122 1 14.1535 4.71388 7.86101 -8.94971
123 1 15.7249 3.14378 6.28933 -8.9495
124 1 17.2975 4.7164 7.86193 -8.94933
125 1 18.8692 3.14459 6.28961 -8.94959
126 1 20.4414 4.7169 7.86203 -8.94955
127 1 22.0127 6.28902 6.28907 -8.95029
128 1 1.56799 7.8608 7.86079 -8.95302
129 1 3.13904 6.28533 6.28527 -8.94543
130 1 4.69769 7.84806 7.84829 -8.93701
131 1 6.27925 6.27832 6.27804 -8.93176
132 1 7.82568 7.82633 7.82736 -8.85533
133 1 9.43432 6.28254 6.28534 -8.94632
134 1 11.0144 7.85356 7.84189 -8.90971
135 1 12.5833 6.28182 6.28433 -8.95342
136 1 14.1634 7.85192 7.85387 -8.93522
137 1 15.7278 6.28634 6.28733 -8.94666
138 1 17.2998 7.86079 7.86166 -8.95104
139 1 18.8699 6.28908 6.28936 -8.94995
140 1 20.4414 7.86173 7.86192 -8.95063
141 1 22.0131 9.43439 6.289 -8.94951
142 1 3.1415 9.43435 6.28687 -8.94768
143 1 6.28545 9.43555 6.28096 -8.96115
144 1 9.42519 9.41918 6.2898 -8.91741
145 1 12.6099 9.41007 6.25585 -8.89835
146 1 15.7327 9.4322 6.28576 -8.9544
147 1 18.8709 9.43423 6.28913 -8.95079
148 1 -0.000112075 1.58289e-15 9.43452 -8.94962
149 1 3.14439 1.53311e-15 9.43445 -8.94949
150 1 6.28927 1.11093e-15 9.43441 -8.95066
151 1 9.43473 1.17145e-15 9.43434 -8.94875
152 1 12.5796 1.2637e-15 9.43439 -8.94996
153 1 15.7246 8.45668e-16 9.43443 -8.94957
154 1 18.8692 1.06269e-15 9.43451 -8.94962
155 1 22.0136 3.14453 9.43451 -8.94954
156 1 3.14377 3.1436 9.43442 -8.9492
157 1 6.28824 3.14069 9.43431 -8.95168
158 1 9.43467 3.14371 9.43436 -8.94572
183 1 1.57107 4.71629 11.0071 -8.94924
184 1 4.7136 4.71301 11.0076 -8.94658
11 1 15.7243 1.22804e-15 1.07149e-05 -8.94964
25 1 15.7244 3.14458 5.3517e-05 -8.94965
29 1 22.0139 6.28966 -4.56717e-05 -8.94958
41 1 18.8693 6.2896 -9.45077e-05 -8.9496
176 1 1.57207 1.57215 11.007 -8.94958
343 1 18.8694 9.43448 18.8694 -8.94955
178 1 7.86212 1.57082 11.0069 -8.95104
179 1 11.007 1.57154 11.0067 -8.94928
180 1 14.1524 1.57166 11.0067 -8.94939
342 1 15.7253 9.43433 18.8703 -8.94893
182 1 20.4415 1.57231 11.007 -8.94962
47 1 12.5796 9.43441 22.0131 -8.95132
46 1 9.43429 9.43457 22.014 -8.94948
185 1 7.8603 4.70937 11.0085 -8.95909
186 1 11.0066 4.71483 11.0068 -8.95108
187 1 14.1536 4.71458 11.0058 -8.94735
341 1 12.58 9.43473 18.8724 -8.95182
340 1 9.43399 9.43479 18.872 -8.9508
190 1 1.56877 7.86123 11.0075 -8.95186
191 1 4.70192 7.85593 11.0095 -8.9571
192 1 7.80552 7.82512 11.0325 -8.81653
193 1 11.042 7.85475 11.0141 -8.86986
194 1 14.1612 7.85818 11.0052 -8.95552
195 1 17.2995 7.86097 11.0067 -8.95011
196 1 20.4415 7.86172 11.0071 -8.95027
197 1 -0.000108219 1.35206e-15 12.5794 -8.94963
198 1 1.57211 1.57218 14.1519 -8.94957
199 1 3.1444 1.43689e-15 12.5795 -8.94948
200 1 4.71652 1.57136 14.1523 -8.94985
201 1 6.28926 8.98986e-16 12.5795 -8.9508
202 1 7.86205 1.57092 14.1522 -8.95079
203 1 9.43467 1.10014e-15 12.5794 -8.94938
204 1 11.0071 1.57076 14.1522 -8.95102
205 1 12.5797 1.56644e-15 12.5793 -8.95068
206 1 14.1524 1.57132 14.152 -8.9504
207 1 15.7246 8.47203e-16 12.5793 -8.94954
208 1 17.2969 1.57219 14.1518 -8.94962
209 1 18.8692 1.33044e-15 12.5794 -8.9496
210 1 20.4415 1.57233 14.1518 -8.9496
211 1 22.0136 3.14453 12.5794 -8.94953
212 1 1.57106 4.71639 14.1524 -8.94928
213 1 3.14374 3.14366 12.5797 -8.94925
214 1 4.71309 4.71263 14.1552 -8.94452
215 1 6.28807 3.14063 12.5802 -8.95182
216 1 7.86109 4.7099 14.1546 -8.95677
217 1 9.43489 3.1423 12.5798 -8.9474
218 1 11.008 4.70889 14.1551 -8.95584
219 1 12.5802 3.14125 12.5792 -8.9529
220 1 14.1552 4.71158 14.1541 -8.95011
221 1 15.725 3.14381 12.5792 -8.94948
222 1 17.2978 4.7163 14.152 -8.94975
223 1 18.8693 3.14453 12.5794 -8.9495
224 1 20.4415 4.71693 14.1519 -8.94964
225 1 -0.000980521 6.28911 12.5797 -8.94996
226 1 1.57063 7.86201 14.1524 -8.95172
227 1 3.14007 6.28699 12.5812 -8.94902
228 1 4.70856 7.85782 14.1574 -8.95285
229 1 6.27602 6.27326 12.5904 -8.93161
230 1 7.83481 7.83121 14.1885 -8.89039
231 1 9.43579 6.28719 12.5854 -8.99109
232 1 11.0326 7.82838 14.1913 -8.87441
233 1 12.5871 6.27354 12.5845 -8.95667
234 1 14.1723 7.84453 14.1696 -8.92741
235 1 15.7278 6.28684 12.5794 -8.94945
236 1 17.3015 7.86039 14.1535 -8.95296
237 1 18.87 6.28904 12.5794 -8.9496
238 1 20.442 7.86189 14.1521 -8.95064
239 1 22.0133 9.43458 12.5797 -8.94977
240 1 3.14214 9.43521 12.5798 -8.95116
241 1 6.28032 9.41713 12.5935 -8.89872
242 1 9.43805 9.24386 12.6454 -8.19509
243 1 12.6238 9.37727 12.6388 -8.78236
244 1 15.7347 9.43172 12.5832 -8.95739
245 1 18.8712 9.43438 12.5796 -8.95134
246 1 22.0138 -2.32924e-16 15.7243 -8.94963
247 1 1.57215 1.57222 17.2968 -8.94942
248 1 3.14447 3.59477e-16 15.7245 -8.94954
249 1 4.71681 1.5718 17.2972 -8.94992
250 1 6.28943 6.86308e-16 15.7246 -8.95022
251 1 7.8619 1.57172 17.2973 -8.94939
252 1 9.43451 9.41422e-16 15.7248 -8.95003
253 1 11.0071 1.5717 17.2973 -8.94941
254 1 12.5797 9.19907e-16 15.7246 -8.95025
255 1 14.1523 1.57171 17.2972 -8.94979
256 1 15.7246 1.51602e-15 15.7244 -8.94986
257 1 17.2969 1.57211 17.2969 -8.94961
258 1 18.8691 2.68793e-16 15.7242 -8.94965
259 1 20.4415 1.57234 17.2967 -8.94964
260 1 -0.000280867 3.14459 15.7244 -8.94952
261 1 1.57156 4.71674 17.2973 -8.9496
262 1 3.14372 3.14373 15.7251 -8.94855
263 1 4.71438 4.71453 17.2998 -8.94592
264 1 6.28863 3.14226 15.7256 -8.95112
265 1 7.8611 4.7147 17.2993 -8.94771
266 1 9.43441 3.14182 15.726 -8.94929
267 1 11.0076 4.71458 17.2993 -8.94801
268 1 12.5804 3.14182 15.7256 -8.95069
269 1 14.1546 4.71413 17.2998 -8.94577
270 1 15.7253 3.14328 15.725 -8.94965
271 1 17.2983 4.71594 17.2979 -8.94798
272 1 18.8693 3.14457 15.7243 -8.94971
273 1 20.4417 4.717 17.2969 -8.94977
274 1 22.0135 6.28944 15.7246 -8.95036
275 1 1.57208 7.86228 17.2969 -8.94959
276 1 3.14166 6.28811 15.7263 -8.95013
277 1 4.71631 7.86264 17.2981 -8.95165
278 1 6.27986 6.27993 15.7357 -8.93622
279 1 7.85974 7.85929 17.3054 -8.95724
280 1 9.43376 6.281 15.7334 -8.94168
281 1 11.0081 7.8587 17.3065 -8.95654
282 1 12.5887 6.2785 15.736 -8.93395
283 1 14.1543 7.86059 17.3015 -8.95242
284 1 15.7307 6.28448 15.7294 -8.94358
285 1 17.2978 7.8619 17.2976 -8.94942
286 1 18.8705 6.28898 15.7249 -8.95033
287 1 20.4417 7.86208 17.2969 -8.9495
288 1 22.0138 9.43456 15.7246 -8.94938
289 1 3.14417 9.43528 15.7248 -8.94876
290 1 6.28999 9.43813 15.7262 -8.95488
291 1 9.43365 9.42865 15.7336 -8.96868
292 1 12.5827 9.43418 15.7381 -8.96132
293 1 15.7276 9.43421 15.7275 -8.94774
294 1 18.8702 9.43446 15.7249 -8.94926
295 1 -6.92277e-05 2.04987e-17 18.8691 -8.94957
296 1 1.57226 1.57229 20.4416 -8.94935
297 1 3.14463 4.45935e-16 18.8693 -8.94963
298 1 4.71717 1.57227 20.4416 -8.94961
299 1 6.28957 1.55252e-15 18.8693 -8.94949
300 1 7.86207 1.57224 20.4417 -8.9496
301 1 9.43452 6.52552e-16 18.8694 -8.94956
302 1 11.007 1.57224 20.4417 -8.9496
303 1 12.5795 1.46177e-15 18.8693 -8.94951
304 1 14.1519 1.57226 20.4416 -8.94961
305 1 15.7244 4.8784e-16 18.8693 -8.94957
306 1 17.2968 1.57229 20.4416 -8.94944
307 1 18.8692 4.31591e-16 18.8691 -8.9496
308 1 20.4415 1.57235 20.4415 -8.94946
309 1 22.0138 3.14468 18.8692 -8.94955
310 1 1.57227 4.71721 20.4416 -8.94981
311 1 3.14414 3.14419 18.8698 -8.94864
312 1 4.71669 4.71672 20.4422 -8.94979
313 1 6.28935 3.14415 18.8698 -8.94933
314 1 7.86187 4.71662 20.4422 -8.9493
315 1 9.43449 3.14408 18.8698 -8.94953
316 1 11.0071 4.7166 20.4422 -8.94936
317 1 12.5796 3.14411 18.8698 -8.94938
318 1 14.1523 4.71664 20.4422 -8.94964
319 1 15.7249 3.14411 18.8698 -8.94872
320 1 17.297 4.71697 20.4417 -8.94966
321 1 18.8694 3.14454 18.8693 -8.94921
322 1 20.4415 4.71723 20.4415 -8.94969
323 1 22.0138 6.28969 18.8692 -8.94967
324 1 1.57225 7.86208 20.4416 -8.94949
325 1 3.14437 6.28966 18.8696 -8.95025
326 1 4.71693 7.86221 20.4418 -8.94968
327 1 6.28821 6.28834 18.872 -8.95091
328 1 7.86171 7.86183 20.443 -8.95159
329 1 9.43424 6.28796 18.8722 -8.94899
330 1 11.0069 7.86168 20.4432 -8.95155
331 1 12.5806 6.28809 18.8723 -8.9505
332 1 14.1524 7.8618 20.4422 -8.95045
333 1 15.7252 6.28899 18.8704 -8.95023
334 1 17.297 7.86199 20.4416 -8.94939
335 1 18.8693 6.2896 18.8693 -8.94967
336 1 20.4415 7.86208 20.4415 -8.9496
337 1 -0.00010757 9.43451 18.8692 -8.9496
338 1 3.14428 9.43453 18.8696 -8.94914
339 1 6.28911 9.43518 18.8701 -8.94949
7 1 9.43452 1.6216e-15 22.0139 -8.94963
44 1 3.14452 9.43448 22.0137 -8.94956
17 1 3.14459 3.14459 22.0139 -8.9495
19 1 6.28959 3.14457 22.0139 -8.94949
21 1 9.43452 3.14453 22.0139 -8.94957
43 1 22.0138 9.43451 22.0138 -8.94963
27 1 18.8692 3.14469 22.0138 -8.94941
39 1 15.7248 6.28918 22.0134 -8.94991
31 1 3.14464 6.28965 22.0138 -8.94981
33 1 6.28928 6.28929 22.0138 -8.95057
3 1 3.14479 1.38681e-15 22.0139 -8.94969
13 1 18.8691 6.77035e-16 22.0139 -8.94948
15 1 22.0139 3.14478 22.0139 -8.94965
23 1 12.5794 3.14455 22.0139 -8.9495
49 1 18.8693 9.4345 22.0138 -8.9496
344 1 1.57214 11.007 1.57209 -8.9496
345 1 4.71664 11.007 1.5714 -8.94983
346 1 7.86202 11.007 1.57196 -8.9483
347 1 11.0067 11.007 1.5709 -8.94874
348 1 14.1533 11.007 1.56981 -8.94951
349 1 17.2973 11.007 1.57179 -8.94952
350 1 20.4416 11.007 1.57223 -8.9496
688 3 10.1717 11.007 9.51217 2.25921
352 1 1.57218 14.1519 1.57213 -8.94944
511 1 18.8693 18.8694 9.43448 -8.94956
354 1 4.71689 14.1518 1.57161 -8.95009
355 1 6.28934 12.5793 -0.000171833 -8.94968
356 1 7.86184 14.1521 1.57085 -8.9519
510 1 15.725 18.8701 9.43434 -8.94922
358 1 11.0066 14.1525 1.57081 -8.95033
509 1 12.5798 18.8709 9.43424 -8.95094
360 1 14.1529 14.1529 1.56994 -8.95118
361 1 15.7249 12.5796 -0.000445434 -8.94938
362 1 17.2973 14.1521 1.5718 -8.94937
538 1 17.2969 20.4418 11.0069 -8.94956
364 1 20.4416 14.1519 1.57224 -8.94956
508 1 9.43467 18.8702 9.43436 -8.94572
366 1 1.5722 17.2968 1.57212 -8.94975
507 1 6.28824 18.8732 9.43431 -8.95168
368 1 4.71669 17.2973 1.57162 -8.94965
506 1 3.14377 18.8703 9.43442 -8.9492
370 1 7.86197 17.2973 1.57182 -8.94924
371 1 9.43437 15.7249 3.85444e-05 -8.94978
372 1 11.007 17.2973 1.57188 -8.94939
373 1 12.5795 15.7247 5.35515e-05 -8.94997
374 1 14.152 17.2972 1.57197 -8.94985
505 1 22.0136 18.8694 9.43451 -8.94954
376 1 17.2973 17.2973 1.57179 -8.94868
504 1 18.8699 15.7249 9.43448 -8.94945
378 1 20.4416 17.2968 1.57227 -8.94961
534 1 4.71641 20.4426 11.007 -8.94936
380 1 1.57225 20.4416 1.57229 -8.94938
503 1 15.727 15.7268 9.43396 -8.94706
382 1 4.71719 20.4416 1.57229 -8.94968
502 1 12.5818 15.7312 9.43016 -8.95179
384 1 7.86208 20.4417 1.57227 -8.94959
501 1 9.42944 15.7192 9.43748 -9.00287
386 1 11.007 20.4417 1.57226 -8.9496
532 1 20.4415 17.297 11.007 -8.94956
388 1 14.1518 20.4416 1.57231 -8.94955
500 1 6.27788 15.7405 9.43065 -8.95036
390 1 17.2968 20.4417 1.5723 -8.94956
499 1 3.14002 15.7272 9.43417 -8.94852
392 1 20.4415 20.4415 1.57236 -8.94953
393 1 1.57135 11.007 4.71614 -8.94939
394 1 4.71484 11.007 4.71316 -8.94629
395 1 7.865 11.007 4.71815 -8.94635
396 1 11.0095 11.007 4.71416 -8.98783
397 1 14.1596 11.007 4.70854 -8.94307
398 1 17.2995 11.007 4.71565 -8.94924
399 1 20.4419 11.007 4.71677 -8.94973
400 1 -0.000149827 12.5794 3.14447 -8.94956
401 1 1.57145 14.152 4.71638 -8.94941
402 1 3.14397 12.5795 3.14361 -8.94891
403 1 4.71492 14.1527 4.71344 -8.95266
404 1 6.28937 12.5787 3.14273 -8.95125
405 1 7.85892 14.156 4.70839 -8.95582
406 1 9.43452 12.5797 3.14337 -8.94784
407 1 11.0063 14.1548 4.71081 -8.95156
408 1 12.5814 12.5806 3.13751 -8.95769
409 1 14.1613 14.1611 4.70658 -8.93722
410 1 15.7265 12.5802 3.14234 -8.94809
411 1 17.2995 14.1531 4.71575 -8.95037
412 1 18.8698 12.5795 3.1443 -8.94942
413 1 20.4418 14.152 4.71687 -8.94983
414 1 22.0138 15.7243 3.14456 -8.94972
415 1 1.57098 17.2978 4.71611 -8.94838
416 1 3.14398 15.7247 3.14363 -8.95028
417 1 4.71442 17.2998 4.71399 -8.94538
418 1 6.28816 15.7259 3.14152 -8.95041
419 1 7.86178 17.299 4.71539 -8.94874
420 1 9.43432 15.726 3.14255 -8.94814
421 1 11.0073 17.2988 4.71561 -8.94775
422 1 12.5797 15.7257 3.14277 -8.94963
423 1 14.1534 17.2997 4.71543 -8.95033
424 1 15.7269 15.727 3.14194 -8.94606
425 1 17.2976 17.2976 4.71664 -8.94907
426 1 18.8698 15.7247 3.14433 -8.94967
427 1 20.4414 17.297 4.717 -8.94969
428 1 22.0136 18.8693 3.14458 -8.9493
429 1 1.57212 20.4418 4.71704 -8.94957
430 1 3.14415 18.8698 3.14409 -8.94863
431 1 4.71685 20.4422 4.71672 -8.94992
432 1 6.28952 18.8697 3.14425 -8.94963
433 1 7.86211 20.4421 4.71678 -8.94948
434 1 9.43456 18.8698 3.14424 -8.94954
435 1 11.0071 20.4421 4.71677 -8.94947
436 1 12.5795 18.8697 3.14435 -8.94921
437 1 14.152 20.442 4.71702 -8.95026
438 1 15.7247 18.8699 3.1443 -8.94962
439 1 17.2968 20.4417 4.71715 -8.94959
440 1 18.8692 18.8693 3.14467 -8.94952
441 1 20.4415 20.4416 4.71723 -8.94965
442 1 1.56921 11.007 7.86034 -8.94769
443 1 4.71062 11.007 7.85418 -8.93519
444 1 7.87416 11.007 7.87 -8.92427
445 1 11.0788 11.007 7.69897 -8.26507
446 1 14.1666 11.007 7.85178 -8.96214
447 1 17.3009 11.007 7.86144 -8.95115
448 1 20.4417 11.007 7.8618 -8.95014
449 1 22.0131 12.5795 6.289 -8.94951
450 1 1.56799 14.1531 7.86079 -8.95302
451 1 3.1415 12.5795 6.28687 -8.94768
452 1 4.69769 14.1658 7.84829 -8.93701
453 1 6.28545 12.5784 6.28096 -8.96115
454 1 7.82568 14.1876 7.82736 -8.85533
455 1 9.42519 12.5947 6.2898 -8.91741
456 1 11.0144 14.1603 7.84189 -8.90971
457 1 12.6099 12.6038 6.25585 -8.89835
458 1 14.1634 14.162 7.85387 -8.93522
459 1 15.7327 12.5817 6.28576 -8.9544
460 1 17.2998 14.1531 7.86166 -8.95104
461 1 18.8709 12.5797 6.28913 -8.95079
462 1 20.4414 14.1522 7.86192 -8.95063
463 1 22.0127 15.7249 6.28907 -8.95029
464 1 1.57112 17.2976 7.8618 -8.94945
465 1 3.13904 15.7286 6.28527 -8.94543
466 1 4.71357 17.302 7.85962 -8.94887
467 1 6.27925 15.7356 6.27804 -8.93176
468 1 7.86095 17.3041 7.86072 -8.9585
469 1 9.43432 15.7314 6.28534 -8.94632
470 1 11.0058 17.2987 7.86199 -8.95179
471 1 12.5833 15.7321 6.28433 -8.95342
472 1 14.1535 17.3 7.86101 -8.94971
473 1 15.7278 15.7276 6.28733 -8.94666
474 1 17.2975 17.2975 7.86193 -8.94933
475 1 18.8699 15.7248 6.28936 -8.94995
476 1 20.4414 17.297 7.86203 -8.94955
477 1 -0.000267698 18.8693 6.28957 -8.94962
478 1 1.57211 20.4417 7.86204 -8.94954
479 1 3.14375 18.8705 6.28887 -8.9494
480 1 4.7166 20.4426 7.86172 -8.95007
481 1 6.28883 18.8719 6.28841 -8.95128
482 1 7.86216 20.4429 7.86184 -8.95112
483 1 9.43487 18.8713 6.28861 -8.94985
484 1 11.007 20.4421 7.86194 -8.94948
485 1 12.5795 18.8707 6.28936 -8.95157
486 1 14.1522 20.4422 7.86193 -8.95008
487 1 15.7249 18.8701 6.28933 -8.9495
488 1 17.2969 20.4417 7.86204 -8.94951
489 1 18.8692 18.8693 6.28961 -8.94959
490 1 20.4415 20.4416 7.86208 -8.94961
491 1 22.012 12.5794 9.43449 -8.95146
492 1 3.13476 12.5803 9.43233 -8.96011
493 1 6.24414 12.6231 9.39388 -8.87147
494 1 9.34329 12.8108 9.44932 -7.98646
495 1 12.5966 12.6061 9.39331 -8.81544
496 1 15.7297 12.5809 9.43269 -8.94996
497 1 18.8705 12.5797 9.43447 -8.94981
498 1 -0.00106514 15.7248 9.43454 -8.94973
513 1 4.71933 11.007 11.0016 -9.00414
514 1 7.6158 11.007 10.9112 -8.01139
531 1 17.2977 17.2976 11.0068 -8.94904
526 1 1.57107 17.2976 11.0071 -8.94924
527 1 4.7136 17.3009 11.0076 -8.94658
389 1 15.7244 18.8693 5.3517e-05 -8.94965
365 1 22.0139 15.7242 -4.56717e-05 -8.94958
377 1 18.8693 15.7243 -9.45077e-05 -8.9496
512 1 1.57062 11.007 11.0075 -8.94589
687 3 9.46615 11.007 11.6617 2.18726
686 1 20.4415 20.4416 20.4415 -8.94946
515 1 11.3834 11.007 11.0952 -7.1955
516 1 14.1661 11.007 11.0119 -9.02284
517 1 17.3003 11.007 11.0068 -8.95151
518 1 20.4418 11.007 11.0071 -8.94931
519 1 1.56877 14.1527 11.0075 -8.95186
520 1 4.70192 14.158 11.0095 -8.9571
521 1 7.80552 14.1888 11.0325 -8.81653
522 1 11.042 14.1592 11.0141 -8.86986
523 1 14.1612 14.1557 11.0052 -8.95552
524 1 17.2995 14.1529 11.0067 -8.95011
525 1 20.4415 14.1522 11.0071 -8.95027
391 1 18.8692 18.8692 22.0138 -8.94941
385 1 9.43452 18.8694 22.0139 -8.94957
528 1 7.8603 17.3045 11.0085 -8.95909
529 1 11.0066 17.2991 11.0068 -8.95108
530 1 14.1536 17.2993 11.0058 -8.94735
685 1 18.8694 18.8694 18.8693 -8.94921
684 1 17.2968 20.4416 20.4416 -8.94944
533 1 1.57207 20.4418 11.007 -8.94958
683 1 15.7249 18.8698 18.8698 -8.94872
535 1 7.86212 20.4431 11.0069 -8.95104
536 1 11.007 20.4424 11.0067 -8.94928
537 1 14.1524 20.4422 11.0067 -8.94939
682 1 14.1519 20.4416 20.4416 -8.94961
539 1 20.4415 20.4416 11.007 -8.94962
540 1 1.57179 11.007 14.1525 -8.9482
541 1 4.71843 11.007 14.1508 -8.94239
542 1 7.87507 11.007 14.1226 -8.92051
543 1 11.0039 11.007 14.1482 -8.97074
544 1 14.1589 11.007 14.1603 -8.93821
545 1 17.2998 11.007 14.1535 -8.94794
546 1 20.442 11.007 14.1523 -8.94959
547 1 22.0133 12.5793 12.5797 -8.94977
548 1 1.57063 14.1519 14.1524 -8.95172
549 1 3.14214 12.5787 12.5798 -8.95116
550 1 4.70856 14.1561 14.1574 -8.95285
551 1 6.28032 12.5968 12.5935 -8.89872
552 1 7.83481 14.1827 14.1885 -8.89039
553 1 9.43805 12.77 12.6454 -8.19509
554 1 11.0326 14.1855 14.1913 -8.87441
555 1 12.6238 12.6366 12.6388 -8.78236
556 1 14.1723 14.1694 14.1696 -8.92741
557 1 15.7347 12.5822 12.5832 -8.95739
558 1 17.3015 14.1535 14.1535 -8.95296
559 1 18.8712 12.5795 12.5796 -8.95134
560 1 20.442 14.152 14.1521 -8.95064
561 1 -0.000980521 15.7248 12.5797 -8.94996
562 1 1.57106 17.2975 14.1524 -8.94928
563 1 3.14007 15.7269 12.5812 -8.94902
564 1 4.71309 17.3013 14.1552 -8.94452
565 1 6.27602 15.7406 12.5904 -8.93161
566 1 7.86109 17.304 14.1546 -8.95677
567 1 9.43579 15.7267 12.5854 -8.99109
568 1 11.008 17.305 14.1551 -8.95584
569 1 12.5871 15.7404 12.5845 -8.95667
570 1 14.1552 17.3023 14.1541 -8.95011
571 1 15.7278 15.7271 12.5794 -8.94945
572 1 17.2978 17.2976 14.152 -8.94975
573 1 18.87 15.7249 12.5794 -8.9496
574 1 20.4415 17.297 14.1519 -8.94964
575 1 22.0136 18.8694 12.5794 -8.94953
576 1 1.57211 20.4417 14.1519 -8.94957
577 1 3.14374 18.8702 12.5797 -8.94925
578 1 4.71652 20.4425 14.1523 -8.94985
579 1 6.28807 18.8733 12.5802 -8.95182
580 1 7.86205 20.443 14.1522 -8.95079
581 1 9.43489 18.8716 12.5798 -8.9474
582 1 11.0071 20.4431 14.1522 -8.95102
583 1 12.5802 18.8727 12.5792 -8.9529
584 1 14.1524 20.4426 14.152 -8.9504
585 1 15.725 18.8701 12.5792 -8.94948
586 1 17.2969 20.4417 14.1518 -8.94962
587 1 18.8693 18.8694 12.5794 -8.9495
588 1 20.4415 20.4416 14.1518 -8.9496
589 1 1.57189 11.007 17.2971 -8.94974
590 1 4.71577 11.007 17.298 -8.94733
591 1 7.862 11.007 17.2947 -8.93707
592 1 11.0063 11.007 17.2996 -8.94348
593 1 14.1548 11.007 17.3013 -8.94636
594 1 17.298 11.007 17.2977 -8.9494
595 1 20.4417 11.007 17.297 -8.94964
596 1 22.0138 12.5793 15.7246 -8.94938
597 1 1.57208 14.1516 17.2969 -8.94959
598 1 3.14417 12.5786 15.7248 -8.94876
599 1 4.71631 14.1513 17.2981 -8.95165
600 1 6.28999 12.5758 15.7262 -8.95488
601 1 7.85974 14.1546 17.3054 -8.95724
602 1 9.43365 12.5852 15.7336 -8.96868
603 1 11.0081 14.1552 17.3065 -8.95654
604 1 12.5827 12.5797 15.7381 -8.96132
605 1 14.1543 14.1533 17.3015 -8.95242
606 1 15.7276 12.5797 15.7275 -8.94774
607 1 17.2978 14.152 17.2976 -8.94942
608 1 18.8702 12.5794 15.7249 -8.94926
609 1 20.4417 14.1518 17.2969 -8.9495
610 1 22.0135 15.7245 15.7246 -8.95036
611 1 1.57156 17.2972 17.2973 -8.9496
612 1 3.14166 15.7258 15.7263 -8.95013
613 1 4.71438 17.2994 17.2998 -8.94592
614 1 6.27986 15.734 15.7357 -8.93622
615 1 7.8611 17.2992 17.2993 -8.94771
616 1 9.43376 15.7329 15.7334 -8.94168
617 1 11.0076 17.2993 17.2993 -8.94801
618 1 12.5887 15.7354 15.736 -8.93395
619 1 14.1546 17.2998 17.2998 -8.94577
620 1 15.7307 15.7294 15.7294 -8.94358
621 1 17.2983 17.298 17.2979 -8.94798
622 1 18.8705 15.7249 15.7249 -8.95033
623 1 20.4417 17.2969 17.2969 -8.94977
624 1 -0.000280867 18.8693 15.7244 -8.94952
625 1 1.57215 20.4417 17.2968 -8.94942
626 1 3.14372 18.8702 15.7251 -8.94855
627 1 4.71681 20.4421 17.2972 -8.94992
628 1 6.28863 18.8716 15.7256 -8.95112
629 1 7.8619 20.4422 17.2973 -8.94939
630 1 9.43441 18.8721 15.726 -8.94929
631 1 11.0071 20.4422 17.2973 -8.94941
632 1 12.5804 18.8721 15.7256 -8.95069
633 1 14.1523 20.4422 17.2972 -8.94979
634 1 15.7253 18.8706 15.725 -8.94965
635 1 17.2969 20.4418 17.2969 -8.94961
636 1 18.8693 18.8693 15.7243 -8.94971
637 1 20.4415 20.4416 17.2967 -8.94964
638 1 1.57221 11.007 20.4416 -8.94962
639 1 4.71669 11.007 20.4418 -8.94962
640 1 7.86157 11.007 20.4419 -8.94764
641 1 11.0069 11.007 20.4425 -8.94861
642 1 14.1527 11.007 20.4423 -8.94991
643 1 17.2971 11.007 20.4417 -8.94955
644 1 20.4415 11.007 20.4415 -8.94962
645 1 -0.00010757 12.5794 18.8692 -8.9496
646 1 1.57225 14.1518 20.4416 -8.94949
647 1 3.14428 12.5794 18.8696 -8.94914
648 1 4.71693 14.1517 20.4418 -8.94968
649 1 6.28911 12.5787 18.8701 -8.94949
650 1 7.86171 14.1521 20.443 -8.95159
651 1 9.43399 12.5791 18.872 -8.9508
652 1 11.0069 14.1522 20.4432 -8.95155
653 1 12.58 12.5792 18.8724 -8.95182
654 1 14.1524 14.1521 20.4422 -8.95045
655 1 15.7253 12.5796 18.8703 -8.94893
656 1 17.297 14.1519 20.4416 -8.94939
657 1 18.8694 12.5794 18.8694 -8.94955
658 1 20.4415 14.1518 20.4415 -8.9496
659 1 22.0138 15.7242 18.8692 -8.94967
660 1 1.57227 17.2967 20.4416 -8.94981
661 1 3.14437 15.7242 18.8696 -8.95025
662 1 4.71669 17.2972 20.4422 -8.94979
663 1 6.28821 15.7256 18.872 -8.95091
664 1 7.86187 17.2973 20.4422 -8.9493
665 1 9.43424 15.7259 18.8722 -8.94899
666 1 11.0071 17.2973 20.4422 -8.94936
667 1 12.5806 15.7258 18.8723 -8.9505
668 1 14.1523 17.2973 20.4422 -8.94964
669 1 15.7252 15.7249 18.8704 -8.95023
670 1 17.297 17.2969 20.4417 -8.94966
671 1 18.8693 15.7243 18.8693 -8.94967
672 1 20.4415 17.2967 20.4415 -8.94969
673 1 22.0138 18.8692 18.8692 -8.94955
674 1 1.57226 20.4416 20.4416 -8.94935
675 1 3.14414 18.8697 18.8698 -8.94864
676 1 4.71717 20.4416 20.4416 -8.94961
677 1 6.28935 18.8697 18.8698 -8.94933
678 1 7.86207 20.4417 20.4417 -8.9496
679 1 9.43449 18.8698 18.8698 -8.94953
680 1 11.007 20.4417 20.4417 -8.9496
681 1 12.5796 18.8698 18.8698 -8.94938
351 1 22.0138 12.5794 22.0138 -8.94963
353 1 3.14452 12.5794 22.0137 -8.94956
357 1 9.43429 12.5793 22.014 -8.94948
359 1 12.5796 12.5795 22.0131 -8.95132
383 1 6.28959 18.8693 22.0139 -8.94949
367 1 3.14464 15.7243 22.0138 -8.94981
369 1 6.28928 15.7246 22.0138 -8.95057
375 1 15.7248 15.7247 22.0134 -8.94991
381 1 3.14459 18.8693 22.0139 -8.9495
363 1 18.8693 12.5794 22.0138 -8.9496
379 1 22.0139 18.8691 22.0139 -8.94965
387 1 12.5794 18.8694 22.0139 -8.9495
