ITEM: TIMESTEP
84
ITEM: NUMBER OF ATOMS
688
ITEM: BOX BOUNDS pp pp pp
0.0000000000000000e+00 2.2013900999999997e+01
0.0000000000000000e+00 2.2013900999999997e+01
0.0000000000000000e+00 2.2013900999999997e+01
ITEM: ATOMS id type x y z c_pot
1 1 22.0137 8.42483e-16 -6.57727e-06 -8.9491
2 1 1.57185 1.572 1.57197 -8.94918
189 1 20.4413 4.71621 11.007 -8.94951
4 1 4.71689 1.57196 1.57199 -8.94956
5 1 6.28948 9.15243e-16 5.1997e-05 -8.94951
6 1 7.862 1.57192 1.57203 -8.94948
175 1 18.8711 9.434 9.43421 -8.94995
8 1 11.0071 1.57191 1.57207 -8.9495
9 1 12.5796 3.68336e-16 9.33954e-05 -8.94951
10 1 14.1521 1.57195 1.57218 -8.94946
174 1 15.7318 9.43218 9.43126 -8.94968
12 1 17.2971 1.5719 1.57211 -8.9495
188 1 17.2984 4.71547 11.0067 -8.9489
14 1 20.4415 1.57213 1.57215 -8.9493
181 1 17.2974 1.57179 11.0068 -8.94948
16 1 1.57176 4.71671 1.57156 -8.94981
173 1 12.6009 9.40384 9.39047 -8.80962
18 1 4.7161 4.71602 1.57091 -8.94978
172 1 9.34478 9.18935 9.44618 -7.96772
20 1 7.86172 4.71597 1.57139 -8.94917
171 1 6.2417 9.38579 9.39136 -8.8669
22 1 11.0071 4.71591 1.57157 -8.94925
177 1 4.71562 1.5705 11.0071 -8.94944
24 1 14.1525 4.71591 1.57153 -8.94991
170 1 3.13312 9.43289 9.43098 -8.96023
26 1 17.298 4.71589 1.5713 -8.94864
169 1 22.0115 9.43443 9.43424 -8.95154
28 1 20.4418 4.71679 1.57191 -8.94954
168 1 18.8703 6.28831 9.43433 -8.9495
30 1 1.57183 7.86188 1.57156 -8.94932
167 1 15.7282 6.28596 9.43326 -8.94695
32 1 4.71658 7.86207 1.57095 -8.95029
166 1 12.583 6.28147 9.42974 -8.95199
34 1 7.86174 7.86159 1.57056 -8.95206
35 1 9.43422 6.28855 0.000233724 -8.94993
36 1 11.0066 7.86116 1.5706 -8.95058
37 1 12.5797 6.28866 0.000199983 -8.95018
38 1 14.1536 7.86047 1.56921 -8.95119
165 1 9.4282 6.29614 9.43861 -9.00598
40 1 17.2982 7.8613 1.57114 -8.94921
164 1 6.27452 6.27012 9.4302 -8.95071
42 1 20.4418 7.86182 1.57182 -8.94945
163 1 3.1373 6.28469 9.43343 -8.94814
162 1 -0.00206731 6.28835 9.43439 -8.94984
45 1 6.28921 9.43475 -0.000312485 -8.94962
161 1 18.8695 3.14396 9.43437 -8.94944
160 1 15.7255 3.14305 9.43406 -8.94917
48 1 15.7257 9.43409 -0.000660306 -8.9494
159 1 12.5797 3.14267 9.43422 -8.95134
50 1 22.0135 4.10247e-16 3.14447 -8.94942
51 1 1.57148 1.57165 4.71648 -8.94944
52 1 3.1442 9.06979e-16 3.14412 -8.9496
53 1 4.71638 1.57111 4.71607 -8.95006
54 1 6.28947 1.04121e-15 3.14417 -8.94946
55 1 7.86204 1.57128 4.71624 -8.94947
56 1 9.43463 6.89875e-16 3.14419 -8.94952
57 1 11.0073 1.57144 4.71637 -8.94941
58 1 12.5797 9.02408e-16 3.14433 -8.94942
59 1 14.1522 1.57149 4.71678 -8.95048
60 1 15.7246 -2.83125e-18 3.14449 -8.95
61 1 17.2972 1.5718 4.71686 -8.94959
62 1 18.8693 6.57871e-16 3.14461 -8.94953
63 1 20.4414 1.57207 4.71698 -8.94956
64 1 22.0132 3.14405 3.14401 -8.94907
65 1 1.56969 4.71498 4.71489 -8.94805
66 1 3.14335 3.14329 3.1432 -8.94837
67 1 4.71289 4.71239 4.7122 -8.9448
68 1 6.28913 3.1434 3.14353 -8.94943
69 1 7.86119 4.71358 4.71429 -8.94827
70 1 9.43458 3.14342 3.14372 -8.94947
71 1 11.0074 4.71425 4.71487 -8.94735
72 1 12.5797 3.14352 3.14394 -8.94908
73 1 14.1543 4.71305 4.7143 -8.95006
74 1 15.7253 3.14318 3.14377 -8.94962
75 1 17.2985 4.71525 4.71579 -8.94884
76 1 18.8695 3.14405 3.14425 -8.94938
77 1 20.4413 4.7163 4.71645 -8.94973
78 1 22.0135 6.28918 3.14391 -8.94966
79 1 1.57051 7.86146 4.71532 -8.9493
80 1 3.14313 6.28857 3.14242 -8.95054
81 1 4.71376 7.86044 4.71174 -8.95319
82 1 6.28747 6.28713 3.1402 -8.9508
83 1 7.85852 7.85705 4.7075 -8.95713
84 1 9.4342 6.28704 3.14176 -8.94821
85 1 11.0065 7.85873 4.71003 -8.95257
86 1 12.5802 6.28739 3.14172 -8.95001
87 1 14.1619 7.8526 4.70535 -8.9396
88 1 15.7279 6.28596 3.14081 -8.94654
89 1 17.3006 7.86002 4.71461 -8.95014
90 1 18.8704 6.28865 3.14368 -8.94957
91 1 20.442 7.86151 4.71621 -8.94977
92 1 -0.000348917 9.43433 3.14376 -8.94943
93 1 3.14334 9.43426 3.14254 -8.94875
94 1 6.28935 9.43525 3.1423 -8.95159
95 1 9.43442 9.43397 3.14388 -8.94638
96 1 12.5822 9.4331 3.13674 -8.95694
97 1 15.7279 9.43322 3.14093 -8.94813
98 1 18.8705 9.43414 3.14355 -8.94933
99 1 22.0135 9.22209e-16 6.28943 -8.94951
100 1 1.57143 1.57167 7.86176 -8.9494
101 1 3.14385 8.26371e-16 6.28894 -8.94982
102 1 4.71593 1.57045 7.86132 -8.95035
103 1 6.28935 1.23548e-15 6.28894 -8.95059
104 1 7.86214 1.57057 7.86172 -8.95134
105 1 9.43481 1.80415e-15 6.28895 -8.95018
106 1 11.0069 1.57168 7.86191 -8.94945
107 1 12.5795 1.41048e-15 6.2894 -8.95009
108 1 14.1524 1.57133 7.86174 -8.95033
109 1 15.7247 6.33298e-17 6.28934 -8.9499
110 1 17.2972 1.57183 7.86185 -8.94944
111 1 18.8693 -1.87134e-16 6.2895 -8.94951
112 1 20.4414 1.57203 7.86195 -8.9495
113 1 -0.000847938 3.14391 6.28916 -8.94949
114 1 1.56964 4.71505 7.86113 -8.94924
115 1 3.14252 3.14201 6.28786 -8.94928
116 1 4.71135 4.70937 7.8583 -8.94868
117 1 6.28821 3.14063 6.28769 -8.95161
118 1 7.85998 4.70839 7.8605 -8.9593
119 1 9.43473 3.14176 6.28812 -8.94995
120 1 11.0052 4.71497 7.86192 -8.95289
121 1 12.5795 3.14264 6.28909 -8.95176
122 1 14.1541 4.71264 7.86007 -8.94977
123 1 15.7254 3.14286 6.28882 -8.94957
124 1 17.2982 4.7155 7.86149 -8.94919
125 1 18.8695 3.14403 6.28934 -8.94951
126 1 20.4412 4.71623 7.86179 -8.94951
127 1 22.0118 6.28827 6.28834 -8.95052
128 1 1.56609 7.85995 7.85984 -8.9535
129 1 3.13642 6.28326 6.28312 -8.94502
130 1 4.69386 7.84504 7.84548 -8.93666
131 1 6.27653 6.27549 6.2755 -8.93009
132 1 7.8216 7.82247 7.82437 -8.84891
133 1 9.43348 6.28112 6.28416 -8.94468
134 1 11.0163 7.85041 7.83952 -8.9037
135 1 12.5843 6.28073 6.28229 -8.95121
136 1 14.1658 7.85 7.85062 -8.93473
137 1 15.7295 6.28467 6.28559 -8.94618
138 1 17.3011 7.85997 7.8607 -8.95122
139 1 18.8705 6.28835 6.28877 -8.95011
140 1 20.4412 7.86133 7.86159 -8.95087
141 1 22.0125 9.43419 6.28827 -8.94938
142 1 3.14009 9.43397 6.28533 -8.94742
143 1 6.28472 9.43528 6.28005 -8.96151
144 1 9.42589 9.41982 6.29271 -8.9247
145 1 12.6074 9.41345 6.2565 -8.91129
146 1 15.7339 9.4317 6.2838 -8.95339
147 1 18.8716 9.43396 6.28839 -8.95068
148 1 -0.000476238 1.76821e-15 9.43445 -8.94951
149 1 3.14366 1.61279e-15 9.43432 -8.94944
150 1 6.28901 1.481e-15 9.43437 -8.951
151 1 9.43479 1.37675e-15 9.43427 -8.94811
152 1 12.5797 1.3098e-15 9.4343 -8.95003
153 1 15.725 9.02324e-16 9.43422 -8.94954
154 1 18.8694 -6.09103e-17 9.43441 -8.94952
155 1 22.0131 3.1439 9.43443 -8.94941
156 1 3.14252 3.14231 9.4342 -8.94906
157 1 6.28729 3.13919 9.43434 -8.95222
158 1 9.43435 3.14414 9.43464 -8.94511
183 1 1.56972 4.71527 11.0073 -8.94912
184 1 4.71138 4.71077 11.0081 -8.94619
11 1 15.7245 1.35761e-15 0.000108367 -8.94954
25 1 15.7248 3.14404 0.000138179 -8.9496
29 1 22.0138 6.28951 -0.000225307 -8.94947
41 1 18.8697 6.28926 -0.000241798 -8.94945
176 1 1.57137 1.5717 11.007 -8.94943
343 1 18.8701 9.43437 18.8699 -8.94941
178 1 7.8621 1.57053 11.007 -8.95109
179 1 11.0069 1.57158 11.0067 -8.94895
180 1 14.1527 1.57123 11.0065 -8.94941
342 1 15.7262 9.43405 18.8714 -8.94886
182 1 20.4414 1.57201 11.007 -8.94952
47 1 12.5798 9.43434 22.0132 -8.9514
46 1 9.43417 9.43459 22.0141 -8.949
185 1 7.85906 4.70864 11.0094 -8.95926
186 1 11.0065 4.71537 11.0074 -8.95088
187 1 14.1545 4.71346 11.0059 -8.94694
341 1 12.5801 9.43464 18.8734 -8.95227
340 1 9.43387 9.43474 18.8717 -8.95022
190 1 1.56721 7.86063 11.0075 -8.95245
191 1 4.69823 7.85335 11.0092 -8.95655
192 1 7.80113 7.82359 11.0354 -8.81506
193 1 11.0463 7.85508 11.0173 -8.86835
194 1 14.1644 7.85674 11.0056 -8.95493
195 1 17.3009 7.86037 11.0068 -8.95045
196 1 20.4415 7.8614 11.0071 -8.95048
197 1 -0.00046542 1.34428e-15 12.5795 -8.94951
198 1 1.57143 1.57176 14.1523 -8.94938
199 1 3.14364 9.68655e-16 12.5797 -8.94937
200 1 4.71576 1.57056 14.1529 -8.95008
201 1 6.28898 9.50957e-16 12.5797 -8.95114
202 1 7.86197 1.5704 14.1526 -8.95076
203 1 9.43476 1.18576e-15 12.5795 -8.94906
204 1 11.0073 1.57024 14.1526 -8.95103
205 1 12.5799 1.70509e-15 12.5791 -8.95094
206 1 14.1529 1.57054 14.1522 -8.95085
207 1 15.725 1.3932e-15 12.5792 -8.94951
208 1 17.2974 1.57175 14.1519 -8.94959
209 1 18.8694 1.10132e-15 12.5794 -8.94951
210 1 20.4414 1.57205 14.152 -8.94949
211 1 22.0131 3.14395 12.5797 -8.94939
212 1 1.56989 4.71552 14.1532 -8.94921
213 1 3.1425 3.14247 12.5803 -8.94898
214 1 4.71112 4.7104 14.1571 -8.94403
215 1 6.2872 3.13914 12.5809 -8.95239
216 1 7.86068 4.7088 14.1561 -8.95637
217 1 9.43486 3.14211 12.5804 -8.94743
218 1 11.0083 4.70779 14.1566 -8.95532
219 1 12.5805 3.14028 12.5794 -8.95364
220 1 14.1569 4.7091 14.1558 -8.95006
221 1 15.7257 3.14285 12.5792 -8.94944
222 1 17.299 4.7151 14.1526 -8.94979
223 1 18.8696 3.14396 12.5794 -8.94938
224 1 20.4415 4.71635 14.1523 -8.9497
225 1 -0.00165247 6.28857 12.5801 -8.95011
226 1 1.57005 7.86183 14.1528 -8.95206
227 1 3.13794 6.28549 12.5822 -8.94886
228 1 4.70698 7.8559 14.1592 -8.95086
229 1 6.27307 6.27015 12.5928 -8.93118
230 1 7.83697 7.83149 14.1871 -8.89804
231 1 9.43576 6.28651 12.5863 -8.98758
232 1 11.031 7.82868 14.1908 -8.88223
233 1 12.5894 6.27111 12.587 -8.95664
234 1 14.1752 7.84131 14.1734 -8.92445
235 1 15.7296 6.28517 12.5803 -8.94954
236 1 17.3035 7.8592 14.1549 -8.95289
237 1 18.8707 6.2884 12.5797 -8.94975
238 1 20.4426 7.86164 14.1525 -8.95083
239 1 22.0133 9.43461 12.5799 -8.94985
240 1 3.14138 9.43501 12.5796 -8.95221
241 1 6.27626 9.41376 12.5952 -8.89221
242 1 9.4382 9.2575 12.6395 -8.22439
243 1 12.6294 9.37395 12.6429 -8.77441
244 1 15.7376 9.43044 12.5853 -8.9571
245 1 18.8723 9.43414 12.5801 -8.95159
246 1 22.0135 -6.79723e-16 15.7245 -8.94951
247 1 1.57156 1.57186 17.2974 -8.94919
248 1 3.14376 -1.69613e-17 15.725 -8.94954
249 1 4.71624 1.57131 17.2978 -8.94994
250 1 6.28912 1.98638e-16 15.7251 -8.95025
251 1 7.86162 1.57114 17.2981 -8.94931
252 1 9.43451 6.94376e-16 15.7254 -8.95013
253 1 11.0073 1.57106 17.2981 -8.94936
254 1 12.58 7.71453e-16 15.7251 -8.95034
255 1 14.1528 1.57108 17.2979 -8.94981
256 1 15.7252 8.11858e-16 15.7248 -8.95008
257 1 17.2976 1.57159 17.2974 -8.94951
258 1 18.8694 4.24914e-16 15.7244 -8.94962
259 1 20.4415 1.57207 17.297 -8.94955
260 1 -0.00069307 3.14409 15.7248 -8.94944
261 1 1.57084 4.7162 17.2981 -8.94956
262 1 3.14254 3.14264 15.7261 -8.94818
263 1 4.7133 4.71352 17.3012 -8.94623
264 1 6.28801 3.14115 15.7266 -8.95105
265 1 7.8605 4.71342 17.3008 -8.94752
266 1 9.43434 3.14062 15.7271 -8.94931
267 1 11.0079 4.71306 17.3011 -8.9478
268 1 12.581 3.14047 15.7266 -8.95063
269 1 14.1557 4.71254 17.3015 -8.9459
270 1 15.7265 3.14183 15.726 -8.94955
271 1 17.2997 4.71472 17.2991 -8.9476
272 1 18.8698 3.14391 15.7247 -8.94969
273 1 20.442 4.71652 17.2974 -8.94985
274 1 22.0133 6.28914 15.7251 -8.95064
275 1 1.57188 7.86233 17.2973 -8.94953
276 1 3.14036 6.28716 15.7277 -8.94981
277 1 4.71603 7.8626 17.2988 -8.95218
278 1 6.27924 6.27895 15.7371 -8.93794
279 1 7.85979 7.85879 17.3058 -8.95739
280 1 9.43367 6.27959 15.7353 -8.94132
281 1 11.0081 7.85773 17.3078 -8.95652
282 1 12.5894 6.27681 15.7382 -8.93539
283 1 14.1555 7.85949 17.3037 -8.95288
284 1 15.733 6.28224 15.7317 -8.94266
285 1 17.299 7.86129 17.2987 -8.94925
286 1 18.8717 6.28821 15.7257 -8.95042
287 1 20.4421 7.86193 17.2974 -8.94939
288 1 22.0139 9.43456 15.725 -8.94922
289 1 3.14418 9.4353 15.725 -8.94825
290 1 6.29086 9.43801 15.7256 -8.95641
291 1 9.43432 9.42886 15.7311 -8.96874
292 1 12.5835 9.43337 15.74 -8.96285
293 1 15.7293 9.43345 15.7295 -8.94737
294 1 18.8712 9.43423 15.7257 -8.9491
295 1 -0.000283295 5.94773e-16 18.8694 -8.94934
296 1 1.5719 1.57205 20.4418 -8.94917
297 1 3.14417 6.77362e-17 18.8697 -8.9496
298 1 4.7168 1.57198 20.442 -8.94946
299 1 6.28923 9.65308e-16 18.8699 -8.94936
300 1 7.86188 1.5719 20.4421 -8.94947
301 1 9.43447 -1.62508e-16 18.87 -8.94946
302 1 11.0071 1.57188 20.4421 -8.94947
303 1 12.5797 1.46718e-15 18.8699 -8.94938
304 1 14.1522 1.57191 20.442 -8.94945
305 1 15.7249 1.77439e-15 18.8698 -8.94952
306 1 17.2972 1.57197 20.4419 -8.94928
307 1 18.8695 1.13832e-15 18.8695 -8.94943
308 1 20.4416 1.57214 20.4417 -8.94918
309 1 22.0136 3.14433 18.8696 -8.94946
310 1 1.57195 4.71701 20.4418 -8.94992
311 1 3.14343 3.14361 18.8705 -8.94858
312 1 4.71611 4.71625 20.4426 -8.94997
313 1 6.28879 3.14342 18.8706 -8.94913
314 1 7.86148 4.71594 20.4429 -8.94924
315 1 9.43436 3.14323 18.8707 -8.9494
316 1 11.0071 4.71584 20.443 -8.94929
317 1 12.5801 3.14321 18.8707 -8.94915
318 1 14.1528 4.7159 20.4429 -8.94967
319 1 15.7257 3.14327 18.8707 -8.94859
320 1 17.2977 4.71639 20.442 -8.94965
321 1 18.87 3.14399 18.8698 -8.94897
322 1 20.4418 4.71702 20.4416 -8.94964
323 1 22.0138 6.2896 18.8694 -8.94966
324 1 1.57202 7.86205 20.4416 -8.9494
325 1 3.14388 6.28951 18.8701 -8.95052
326 1 4.71667 7.86229 20.4419 -8.94985
327 1 6.28763 6.28783 18.873 -8.95121
328 1 7.86151 7.86172 20.4434 -8.9517
329 1 9.43397 6.28701 18.8736 -8.94905
330 1 11.0068 7.86139 20.4439 -8.95171
331 1 12.581 6.28716 18.8738 -8.95059
332 1 14.1528 7.86146 20.4428 -8.95073
333 1 15.7263 6.28813 18.8716 -8.95041
334 1 17.2978 7.86167 20.442 -8.94927
335 1 18.87 6.28924 18.8698 -8.94957
336 1 20.4418 7.86195 20.4417 -8.9495
337 1 -6.76945e-05 9.43449 18.8695 -8.94955
338 1 3.14402 9.43461 18.8698 -8.94907
339 1 6.28918 9.43538 18.8699 -8.94959
7 1 9.43452 -1.46877e-16 22.014 -8.94953
44 1 3.14414 9.43446 22.0134 -8.94953
17 1 3.14412 3.14417 22.0138 -8.94947
19 1 6.28927 3.14407 22.014 -8.94936
21 1 9.43446 3.14398 22.014 -8.94946
43 1 22.0138 9.43445 22.0137 -8.94954
27 1 18.8696 3.14431 22.0138 -8.94928
39 1 15.7254 6.28861 22.0133 -8.95005
31 1 3.14429 6.28952 22.0135 -8.94997
33 1 6.28893 6.289 22.0138 -8.95086
3 1 3.1445 1.04842e-15 22.0139 -8.94958
13 1 18.8693 1.02482e-15 22.0139 -8.94922
15 1 22.0137 3.14454 22.0137 -8.9496
23 1 12.5797 3.14399 22.0141 -8.94935
49 1 18.8698 9.43437 22.0136 -8.94948
344 1 1.57178 11.007 1.5715 -8.9495
345 1 4.71631 11.007 1.57076 -8.9499
346 1 7.8622 11.007 1.57233 -8.94755
347 1 11.0068 11.007 1.57081 -8.94955
348 1 14.1541 11.007 1.56897 -8.94968
349 1 17.2983 11.007 1.57112 -8.9494
350 1 20.4419 11.007 1.57179 -8.94949
688 3 10.1499 11.007 9.5361 2.23065
352 1 1.57183 14.152 1.57156 -8.94932
511 1 18.8695 18.8699 9.43437 -8.94944
354 1 4.71658 14.1518 1.57095 -8.95029
355 1 6.28921 12.5791 -0.000312485 -8.94962
356 1 7.86174 14.1523 1.57056 -8.95206
510 1 15.7255 18.8708 9.43406 -8.94917
358 1 11.0066 14.1527 1.5706 -8.95058
509 1 12.5797 18.8712 9.43422 -8.95134
360 1 14.1536 14.1534 1.56921 -8.95119
361 1 15.7257 12.5798 -0.000660306 -8.9494
362 1 17.2982 14.1526 1.57114 -8.94921
538 1 17.2974 20.4421 11.0068 -8.94948
364 1 20.4418 14.1521 1.57182 -8.94945
508 1 9.43435 18.8698 9.43464 -8.94511
366 1 1.57176 17.2972 1.57156 -8.94981
507 1 6.28729 18.8747 9.43434 -8.95222
368 1 4.7161 17.2979 1.57091 -8.94978
506 1 3.14252 18.8716 9.4342 -8.94906
370 1 7.86172 17.2979 1.57139 -8.94917
371 1 9.43422 15.7254 0.000233724 -8.94993
372 1 11.0071 17.298 1.57157 -8.94925
373 1 12.5797 15.7252 0.000199983 -8.95018
374 1 14.1525 17.298 1.57153 -8.94991
505 1 22.0131 18.87 9.43443 -8.94941
376 1 17.298 17.298 1.5713 -8.94864
504 1 18.8703 15.7256 9.43433 -8.9495
378 1 20.4418 17.2971 1.57191 -8.94954
534 1 4.71562 20.4434 11.0071 -8.94944
380 1 1.57185 20.4419 1.57197 -8.94918
503 1 15.7282 15.7279 9.43326 -8.94695
382 1 4.71689 20.4419 1.57199 -8.94956
502 1 12.583 15.7324 9.42974 -8.95199
384 1 7.862 20.442 1.57203 -8.94948
501 1 9.4282 15.7178 9.43861 -9.00598
386 1 11.0071 20.442 1.57207 -8.9495
532 1 20.4413 17.2977 11.007 -8.94951
388 1 14.1521 20.442 1.57218 -8.94946
500 1 6.27452 15.7438 9.4302 -8.95071
390 1 17.2971 20.442 1.57211 -8.9495
499 1 3.1373 15.7292 9.43343 -8.94814
392 1 20.4415 20.4418 1.57215 -8.9493
393 1 1.57056 11.007 4.71505 -8.94927
394 1 4.71402 11.007 4.71181 -8.94595
395 1 7.86545 11.007 4.72013 -8.9446
396 1 11.0091 11.007 4.71139 -8.98301
397 1 14.1609 11.007 4.70679 -8.94302
398 1 17.3008 11.007 4.71439 -8.94915
399 1 20.4421 11.007 4.71605 -8.94971
400 1 -0.000348917 12.5796 3.14376 -8.94943
401 1 1.57051 14.1524 4.71532 -8.9493
402 1 3.14334 12.5796 3.14254 -8.94875
403 1 4.71376 14.1535 4.71174 -8.95319
404 1 6.28935 12.5787 3.1423 -8.95159
405 1 7.85852 14.1569 4.7075 -8.95713
406 1 9.43442 12.5799 3.14388 -8.94638
407 1 11.0065 14.1552 4.71003 -8.95257
408 1 12.5822 12.5808 3.13674 -8.95694
409 1 14.1619 14.1613 4.70535 -8.9396
410 1 15.7279 12.5807 3.14093 -8.94813
411 1 17.3006 14.1539 4.71461 -8.95014
412 1 18.8705 12.5798 3.14355 -8.94933
413 1 20.442 14.1524 4.71621 -8.94977
414 1 22.0135 15.7247 3.14391 -8.94966
415 1 1.56969 17.2989 4.71489 -8.94805
416 1 3.14313 15.7253 3.14242 -8.95054
417 1 4.71289 17.3015 4.7122 -8.9448
418 1 6.28747 15.7268 3.1402 -8.9508
419 1 7.86119 17.3003 4.71429 -8.94827
420 1 9.4342 15.7269 3.14176 -8.94821
421 1 11.0074 17.2996 4.71487 -8.94735
422 1 12.5802 15.7265 3.14172 -8.95001
423 1 14.1543 17.3009 4.7143 -8.95006
424 1 15.7279 15.7279 3.14081 -8.94654
425 1 17.2985 17.2987 4.71579 -8.94884
426 1 18.8704 15.7253 3.14368 -8.94957
427 1 20.4413 17.2976 4.71645 -8.94973
428 1 22.0132 18.8699 3.14401 -8.94907
429 1 1.57148 20.4422 4.71648 -8.94944
430 1 3.14335 18.8706 3.1432 -8.94837
431 1 4.71638 20.4428 4.71607 -8.95006
432 1 6.28913 18.8705 3.14353 -8.94943
433 1 7.86204 20.4426 4.71624 -8.94947
434 1 9.43458 18.8705 3.14372 -8.94947
435 1 11.0073 20.4425 4.71637 -8.94941
436 1 12.5797 18.8704 3.14394 -8.94908
437 1 14.1522 20.4424 4.71678 -8.95048
438 1 15.7253 18.8707 3.14377 -8.94962
439 1 17.2972 20.4421 4.71686 -8.94959
440 1 18.8695 18.8699 3.14425 -8.94938
441 1 20.4414 20.4418 4.71698 -8.94956
442 1 1.56813 11.007 7.85932 -8.94733
443 1 4.70974 11.007 7.85278 -8.93502
444 1 7.87406 11.007 7.87635 -8.92365
445 1 11.0715 11.007 7.7266 -8.29765
446 1 14.1679 11.007 7.84992 -8.95976
447 1 17.302 11.007 7.86037 -8.95092
448 1 20.4417 11.007 7.86135 -8.95005
449 1 22.0125 12.5797 6.28827 -8.94938
450 1 1.56609 14.1539 7.85984 -8.9535
451 1 3.14009 12.5799 6.28533 -8.94742
452 1 4.69386 14.1689 7.84548 -8.93666
453 1 6.28472 12.5786 6.28005 -8.96151
454 1 7.8216 14.1914 7.82437 -8.84891
455 1 9.42589 12.5941 6.29271 -8.9247
456 1 11.0163 14.1635 7.83952 -8.9037
457 1 12.6074 12.6005 6.2565 -8.91129
458 1 14.1658 14.1639 7.85062 -8.93473
459 1 15.7339 12.5822 6.2838 -8.95339
460 1 17.3011 14.1539 7.8607 -8.95122
461 1 18.8716 12.5799 6.28839 -8.95068
462 1 20.4412 14.1526 7.86159 -8.95087
463 1 22.0118 15.7256 6.28834 -8.95052
464 1 1.56964 17.2989 7.86113 -8.94924
465 1 3.13642 15.7306 6.28312 -8.94502
466 1 4.71135 17.3045 7.8583 -8.94868
467 1 6.27653 15.7384 6.2755 -8.93009
468 1 7.85998 17.3055 7.8605 -8.9593
469 1 9.43348 15.7328 6.28416 -8.94468
470 1 11.0052 17.2989 7.86192 -8.95289
471 1 12.5843 15.7332 6.28229 -8.95121
472 1 14.1541 17.3013 7.86007 -8.94977
473 1 15.7295 15.7292 6.28559 -8.94618
474 1 17.2982 17.2984 7.86149 -8.94919
475 1 18.8705 15.7256 6.28877 -8.95011
476 1 20.4412 17.2977 7.86179 -8.94951
477 1 -0.000847938 18.87 6.28916 -8.94949
478 1 1.57143 20.4422 7.86176 -8.9494
479 1 3.14252 18.8719 6.28786 -8.94928
480 1 4.71593 20.4435 7.86132 -8.95035
481 1 6.28821 18.8733 6.28769 -8.95161
482 1 7.86214 20.4433 7.86172 -8.95134
483 1 9.43473 18.8721 6.28812 -8.94995
484 1 11.0069 20.4422 7.86191 -8.94945
485 1 12.5795 18.8713 6.28909 -8.95176
486 1 14.1524 20.4426 7.86174 -8.95033
487 1 15.7254 18.871 6.28882 -8.94957
488 1 17.2972 20.4421 7.86185 -8.94944
489 1 18.8695 18.8699 6.28934 -8.94951
490 1 20.4414 20.4419 7.86195 -8.9495
491 1 22.0115 12.5795 9.43424 -8.95154
492 1 3.13312 12.581 9.43098 -8.96023
493 1 6.2417 12.6281 9.39136 -8.8669
494 1 9.34478 12.8245 9.44618 -7.96772
495 1 12.6009 12.6101 9.39047 -8.80962
496 1 15.7318 12.5817 9.43126 -8.94968
497 1 18.8711 12.5799 9.43421 -8.94995
498 1 -0.00206731 15.7255 9.43439 -8.94984
513 1 4.71902 11.007 10.9995 -9.00741
514 1 7.60093 11.007 10.9147 -8.00192
531 1 17.2984 17.2984 11.0067 -8.9489
526 1 1.56972 17.2986 11.0073 -8.94912
527 1 4.71138 17.3031 11.0081 -8.94619
389 1 15.7248 18.8699 0.000138179 -8.9496
365 1 22.0138 15.7244 -0.000225307 -8.94947
377 1 18.8697 15.7246 -0.000241798 -8.94945
512 1 1.57051 11.007 11.0071 -8.94559
687 3 9.47631 11.007 11.6105 2.15658
686 1 20.4416 20.4418 20.4417 -8.94918
515 1 11.4072 11.007 11.0906 -7.18075
516 1 14.1733 11.007 11.0123 -9.02195
517 1 17.3021 11.007 11.007 -8.95318
518 1 20.4422 11.007 11.0071 -8.94917
519 1 1.56721 14.1533 11.0075 -8.95245
520 1 4.69823 14.1606 11.0092 -8.95655
521 1 7.80113 14.1903 11.0354 -8.81506
522 1 11.0463 14.1588 11.0173 -8.86835
523 1 14.1644 14.1572 11.0056 -8.95493
524 1 17.3009 14.1535 11.0068 -8.95045
525 1 20.4415 14.1525 11.0071 -8.95048
391 1 18.8696 18.8696 22.0138 -8.94928
385 1 9.43446 18.8699 22.014 -8.94946
528 1 7.85906 17.3053 11.0094 -8.95926
529 1 11.0065 17.2985 11.0074 -8.95088
530 1 14.1545 17.3004 11.0059 -8.94694
685 1 18.87 18.8699 18.8698 -8.94897
684 1 17.2972 20.4419 20.4419 -8.94928
533 1 1.57137 20.4422 11.007 -8.94943
683 1 15.7257 18.8706 18.8707 -8.94859
535 1 7.8621 20.4434 11.007 -8.95109
536 1 11.0069 20.4423 11.0067 -8.94895
537 1 14.1527 20.4427 11.0065 -8.94941
682 1 14.1522 20.442 20.442 -8.94945
539 1 20.4414 20.4419 11.007 -8.94952
540 1 1.57177 11.007 14.1528 -8.94806
541 1 4.71827 11.007 14.1507 -8.94056
542 1 7.87572 11.007 14.1164 -8.92761
543 1 11.0064 11.007 14.1438 -8.97526
544 1 14.1616 11.007 14.1629 -8.93674
545 1 17.3016 11.007 14.1548 -8.94767
546 1 20.4427 11.007 14.1528 -8.94952
547 1 22.0133 12.5793 12.5799 -8.94985
548 1 1.57005 14.1521 14.1528 -8.95206
549 1 3.14138 12.5789 12.5796 -8.95221
550 1 4.70698 14.158 14.1592 -8.95086
551 1 6.27626 12.6001 12.5952 -8.89221
552 1 7.83697 14.1824 14.1871 -8.89804
553 1 9.4382 12.7564 12.6395 -8.22439
554 1 11.031 14.1852 14.1908 -8.88223
555 1 12.6294 12.64 12.6429 -8.77441
556 1 14.1752 14.1726 14.1734 -8.92445
557 1 15.7376 12.5835 12.5853 -8.9571
558 1 17.3035 14.1547 14.1549 -8.95289
559 1 18.8723 12.5798 12.5801 -8.95159
560 1 20.4426 14.1523 14.1525 -8.95083
561 1 -0.00165247 15.7253 12.5801 -8.95011
562 1 1.56989 17.2984 14.1532 -8.94921
563 1 3.13794 15.7284 12.5822 -8.94886
564 1 4.71112 17.3035 14.1571 -8.94403
565 1 6.27307 15.7438 12.5928 -8.93118
566 1 7.86068 17.3051 14.1561 -8.95637
567 1 9.43576 15.7274 12.5863 -8.98758
568 1 11.0083 17.3061 14.1566 -8.95532
569 1 12.5894 15.7428 12.587 -8.95664
570 1 14.1569 17.3048 14.1558 -8.95006
571 1 15.7296 15.7287 12.5803 -8.94954
572 1 17.299 17.2988 14.1526 -8.94979
573 1 18.8707 15.7255 12.5797 -8.94975
574 1 20.4415 17.2976 14.1523 -8.9497
575 1 22.0131 18.87 12.5797 -8.94939
576 1 1.57143 20.4421 14.1523 -8.94938
577 1 3.1425 18.8714 12.5803 -8.94898
578 1 4.71576 20.4433 14.1529 -8.95008
579 1 6.2872 18.8748 12.5809 -8.95239
580 1 7.86197 20.4435 14.1526 -8.95076
581 1 9.43486 18.8718 12.5804 -8.94743
582 1 11.0073 20.4437 14.1526 -8.95103
583 1 12.5805 18.8736 12.5794 -8.95364
584 1 14.1529 20.4434 14.1522 -8.95085
585 1 15.7257 18.8711 12.5792 -8.94944
586 1 17.2974 20.4422 14.1519 -8.94959
587 1 18.8696 18.8699 12.5794 -8.94938
588 1 20.4414 20.4419 14.152 -8.94949
589 1 1.57185 11.007 17.2974 -8.94971
590 1 4.71593 11.007 17.2979 -8.94746
591 1 7.86271 11.007 17.2929 -8.93553
592 1 11.0062 11.007 17.2988 -8.9422
593 1 14.1559 11.007 17.3031 -8.94639
594 1 17.2991 11.007 17.2988 -8.94926
595 1 20.4422 11.007 17.2975 -8.94956
596 1 22.0139 12.5793 15.725 -8.94922
597 1 1.57188 14.1516 17.2973 -8.94953
598 1 3.14418 12.5786 15.725 -8.94825
599 1 4.71603 14.1513 17.2988 -8.95218
600 1 6.29086 12.5759 15.7256 -8.95641
601 1 7.85979 14.1551 17.3058 -8.95739
602 1 9.43432 12.585 15.7311 -8.96874
603 1 11.0081 14.1562 17.3078 -8.95652
604 1 12.5835 12.5805 15.74 -8.96285
605 1 14.1555 14.1544 17.3037 -8.95288
606 1 15.7293 12.5804 15.7295 -8.94737
607 1 17.299 14.1526 17.2987 -8.94925
608 1 18.8712 12.5797 15.7257 -8.9491
609 1 20.4421 14.152 17.2974 -8.94939
610 1 22.0133 15.7248 15.7251 -8.95064
611 1 1.57084 17.2977 17.2981 -8.94956
612 1 3.14036 15.7267 15.7277 -8.94981
613 1 4.7133 17.3004 17.3012 -8.94623
614 1 6.27924 15.735 15.7371 -8.93794
615 1 7.8605 17.3005 17.3008 -8.94752
616 1 9.43367 15.7343 15.7353 -8.94132
617 1 11.0079 17.3008 17.3011 -8.9478
618 1 12.5894 15.7371 15.7382 -8.93539
619 1 14.1557 17.3014 17.3015 -8.9459
620 1 15.733 15.7317 15.7317 -8.94266
621 1 17.2997 17.2992 17.2991 -8.9476
622 1 18.8717 15.7257 15.7257 -8.95042
623 1 20.442 17.2974 17.2974 -8.94985
624 1 -0.00069307 18.8698 15.7248 -8.94944
625 1 1.57156 20.442 17.2974 -8.94919
626 1 3.14254 18.8713 15.7261 -8.94818
627 1 4.71624 20.4426 17.2978 -8.94994
628 1 6.28801 18.8727 15.7266 -8.95105
629 1 7.86162 20.4428 17.2981 -8.94931
630 1 9.43434 18.8733 15.7271 -8.94931
631 1 11.0073 20.4428 17.2981 -8.94936
632 1 12.581 18.8734 15.7266 -8.95063
633 1 14.1528 20.4428 17.2979 -8.94981
634 1 15.7265 18.8721 15.726 -8.94955
635 1 17.2976 20.4423 17.2974 -8.94951
636 1 18.8698 18.87 15.7247 -8.94969
637 1 20.4415 20.4418 17.297 -8.94955
638 1 1.57196 11.007 20.4416 -8.94956
639 1 4.71639 11.007 20.4418 -8.94967
640 1 7.8615 11.007 20.4416 -8.94696
641 1 11.0067 11.007 20.4426 -8.94813
642 1 14.1532 11.007 20.4428 -8.95008
643 1 17.2979 11.007 20.442 -8.94945
644 1 20.4418 11.007 20.4417 -8.94954
645 1 -6.76945e-05 12.5794 18.8695 -8.94955
646 1 1.57202 14.1519 20.4416 -8.9494
647 1 3.14402 12.5793 18.8698 -8.94907
648 1 4.71667 14.1516 20.4419 -8.94985
649 1 6.28918 12.5785 18.8699 -8.94959
650 1 7.86151 14.1522 20.4434 -8.9517
651 1 9.43387 12.5792 18.8717 -8.95022
652 1 11.0068 14.1525 20.4439 -8.95171
653 1 12.5801 12.5793 18.8734 -8.95227
654 1 14.1528 14.1524 20.4428 -8.95073
655 1 15.7262 12.5799 18.8714 -8.94886
656 1 17.2978 14.1522 20.442 -8.94927
657 1 18.8701 12.5795 18.8699 -8.94941
658 1 20.4418 14.1519 20.4417 -8.9495
659 1 22.0138 15.7243 18.8694 -8.94966
660 1 1.57195 17.2969 20.4418 -8.94992
661 1 3.14388 15.7244 18.8701 -8.95052
662 1 4.71611 17.2976 20.4426 -8.94997
663 1 6.28763 15.7261 18.873 -8.95121
664 1 7.86148 17.298 20.4429 -8.94924
665 1 9.43397 15.7269 18.8736 -8.94905
666 1 11.0071 17.2981 20.443 -8.94929
667 1 12.581 15.7267 18.8738 -8.95059
668 1 14.1528 17.298 20.4429 -8.94967
669 1 15.7263 15.7258 18.8716 -8.95041
670 1 17.2977 17.2975 20.442 -8.94965
671 1 18.87 15.7247 18.8698 -8.94957
672 1 20.4418 17.2969 20.4416 -8.94964
673 1 22.0136 18.8696 18.8696 -8.94946
674 1 1.5719 20.4419 20.4418 -8.94917
675 1 3.14343 18.8703 18.8705 -8.94858
676 1 4.7168 20.4419 20.442 -8.94946
677 1 6.28879 18.8705 18.8706 -8.94913
678 1 7.86188 20.442 20.4421 -8.94947
679 1 9.43436 18.8707 18.8707 -8.9494
680 1 11.0071 20.442 20.4421 -8.94947
681 1 12.5801 18.8707 18.8707 -8.94915
351 1 22.0138 12.5795 22.0137 -8.94954
353 1 3.14414 12.5794 22.0134 -8.94953
357 1 9.43417 12.5793 22.0141 -8.949
359 1 12.5798 12.5796 22.0132 -8.9514
383 1 6.28927 18.8698 22.014 -8.94936
367 1 3.14429 15.7244 22.0135 -8.94997
369 1 6.28893 15.7249 22.0138 -8.95086
375 1 15.7254 15.7253 22.0133 -8.95005
381 1 3.14412 18.8697 22.0138 -8.94947
363 1 18.8698 12.5795 22.0136 -8.94948
379 1 22.0137 18.8694 22.0137 -8.9496
387 1 12.5797 18.8699 22.0141 -8.94935
