ITEM: TIMESTEP
119
ITEM: NUMBER OF ATOMS
688
ITEM: BOX BOUNDS pp pp pp
0.0000000000000000e+00 2.2013900999999997e+01
0.0000000000000000e+00 2.2013900999999997e+01
0.0000000000000000e+00 2.2013900999999997e+01
ITEM: ATOMS id type x y z c_pot
1 1 22.0136 2.72389e-12 -3.83451e-05 -8.94895
2 1 1.57156 1.57183 1.57173 -8.94907
189 1 20.4412 4.71584 11.0071 -8.94951
4 1 4.71663 1.57178 1.5718 -8.94949
5 1 6.2893 1.55652e-12 0.000106249 -8.94944
6 1 7.86191 1.57176 1.57195 -8.94943
175 1 18.8715 9.43384 9.43395 -8.9501
8 1 11.0072 1.57176 1.57205 -8.94944
9 1 12.5797 6.28445e-14 0.000227477 -8.94944
10 1 14.1523 1.57178 1.57217 -8.94942
174 1 15.7332 9.43158 9.43067 -8.94951
12 1 17.2973 1.57171 1.57202 -8.94944
188 1 17.2987 4.71503 11.0067 -8.94893
14 1 20.4414 1.57196 1.57198 -8.94917
181 1 17.2975 1.57162 11.0068 -8.94945
16 1 1.57151 4.71645 1.57122 -8.94983
173 1 12.6034 9.4012 9.39051 -8.80772
18 1 4.7158 4.71573 1.57057 -8.94987
172 1 9.34722 9.18228 9.44109 -7.95184
20 1 7.86155 4.71565 1.57124 -8.9492
171 1 6.24131 9.38395 9.39088 -8.86537
22 1 11.0072 4.71562 1.5715 -8.94921
177 1 4.71512 1.57015 11.0073 -8.9495
24 1 14.1528 4.71557 1.57139 -8.94998
170 1 3.13243 9.43232 9.43028 -8.9599
26 1 17.2983 4.71557 1.57112 -8.94877
169 1 22.0112 9.43428 9.43394 -8.95156
28 1 20.4418 4.71652 1.57166 -8.94949
168 1 18.8704 6.28794 9.43416 -8.94952
30 1 1.57168 7.86176 1.57119 -8.94928
167 1 15.7288 6.28539 9.43289 -8.94697
32 1 4.71644 7.862 1.57064 -8.9504
166 1 12.5837 6.28074 9.4301 -8.95264
34 1 7.8616 7.8614 1.57046 -8.9519
35 1 9.43416 6.28834 0.000333928 -8.94999
36 1 11.0067 7.86107 1.57064 -8.9506
37 1 12.5798 6.28843 0.000316988 -8.95026
38 1 14.1539 7.86025 1.56909 -8.95097
165 1 9.42784 6.29573 9.43889 -9.00759
40 1 17.2986 7.86103 1.57085 -8.94922
164 1 6.27349 6.26909 9.43031 -8.95133
42 1 20.442 7.86164 1.57153 -8.94939
163 1 3.13612 6.2837 9.43301 -8.94795
162 1 -0.0025727 6.2879 9.43421 -8.94987
45 1 6.28925 9.43479 -0.000425795 -8.94962
161 1 18.8696 3.14365 9.43426 -8.94939
160 1 15.7257 3.14274 9.43391 -8.94919
48 1 15.7261 9.43396 -0.00067372 -8.94944
159 1 12.5798 3.14249 9.43425 -8.95141
50 1 22.0132 1.36189e-12 3.14419 -8.94932
51 1 1.57106 1.57138 4.71607 -8.94939
52 1 3.14386 8.52936e-11 3.14378 -8.94957
53 1 4.71603 1.57079 4.71568 -8.9501
54 1 6.28932 2.36175e-11 3.14392 -8.94941
55 1 7.86193 1.57106 4.716 -8.94946
56 1 9.43466 1.36328e-11 3.14405 -8.94948
57 1 11.0073 1.57131 4.71623 -8.94938
58 1 12.5798 3.86643e-11 3.14425 -8.94938
59 1 14.1523 1.57132 4.71663 -8.95049
60 1 15.7248 2.60998e-11 3.14438 -8.95001
61 1 17.2973 1.57158 4.71664 -8.9496
62 1 18.8693 -9.38815e-13 3.14443 -8.94947
63 1 20.4412 1.57186 4.71672 -8.94949
64 1 22.0129 3.1437 3.1436 -8.94897
65 1 1.56904 4.71438 4.71421 -8.94799
66 1 3.14288 3.14284 3.14267 -8.94826
67 1 4.71208 4.71158 4.71137 -8.94453
68 1 6.28885 3.14301 3.14317 -8.94936
69 1 7.86083 4.71307 4.71387 -8.94807
70 1 9.43454 3.14313 3.14354 -8.94945
71 1 11.0074 4.71398 4.7146 -8.94723
72 1 12.5799 3.14326 3.14378 -8.94907
73 1 14.1546 4.71271 4.71383 -8.94968
74 1 15.7255 3.14284 3.14353 -8.94955
75 1 17.2988 4.71472 4.71528 -8.94876
76 1 18.8697 3.1437 3.14394 -8.9493
77 1 20.4412 4.71587 4.71602 -8.94973
78 1 22.0133 6.28889 3.14346 -8.94962
79 1 1.57007 7.86116 4.71469 -8.94926
80 1 3.14269 6.28821 3.1418 -8.9506
81 1 4.71326 7.86005 4.71109 -8.95327
82 1 6.28718 6.2868 3.13979 -8.95101
83 1 7.85848 7.85695 4.70748 -8.95801
84 1 9.43413 6.2867 3.14157 -8.9484
85 1 11.0065 7.85882 4.70998 -8.95328
86 1 12.5804 6.28714 3.14143 -8.95033
87 1 14.1614 7.85324 4.70554 -8.9414
88 1 15.7281 6.28579 3.14056 -8.94705
89 1 17.3009 7.85976 4.71406 -8.94999
90 1 18.8706 6.28832 3.1433 -8.94953
91 1 20.442 7.86126 4.71575 -8.9497
92 1 -0.000433394 9.43423 3.14331 -8.94937
93 1 3.14307 9.43415 3.14203 -8.94874
94 1 6.28923 9.43524 3.14223 -8.95178
95 1 9.43401 9.43361 3.14388 -8.94523
96 1 12.5825 9.43287 3.13658 -8.95579
97 1 15.7283 9.43309 3.1405 -8.94837
98 1 18.8708 9.43399 3.14311 -8.94931
99 1 22.0132 2.31929e-12 6.28918 -8.94945
100 1 1.57095 1.57138 7.86153 -8.94935
101 1 3.14343 2.76156e-11 6.28861 -8.94984
102 1 4.71548 1.57007 7.8611 -8.9504
103 1 6.28918 7.66674e-10 6.28874 -8.9507
104 1 7.86198 1.57041 7.86169 -8.95148
105 1 9.43477 4.63144e-10 6.28884 -8.95021
106 1 11.0068 1.57166 7.86192 -8.94957
107 1 12.5795 3.12512e-10 6.28935 -8.95013
108 1 14.1524 1.57119 7.86163 -8.95037
109 1 15.7248 -3.22489e-11 6.2892 -8.94996
110 1 17.2973 1.57164 7.86169 -8.94943
111 1 18.8693 2.59309e-12 6.28933 -8.94948
112 1 20.4412 1.57184 7.8618 -8.94943
113 1 -0.00124862 3.14348 6.2888 -8.94941
114 1 1.56882 4.71434 7.8607 -8.94915
115 1 3.14184 3.14135 6.28733 -8.94927
116 1 4.71034 4.70838 7.85784 -8.94873
117 1 6.28771 3.14001 6.28729 -8.95172
118 1 7.85933 4.70769 7.86031 -8.95963
119 1 9.43454 3.14149 6.28793 -8.94985
120 1 11.0051 4.71458 7.86177 -8.95355
121 1 12.5795 3.14244 6.28888 -8.9517
122 1 14.1544 4.71224 7.85967 -8.94984
123 1 15.7256 3.14247 6.2885 -8.94964
124 1 17.2985 4.71502 7.86113 -8.94915
125 1 18.8695 3.14366 6.28907 -8.94946
126 1 20.441 4.71581 7.86155 -8.94951
127 1 22.0113 6.2878 6.28783 -8.95058
128 1 1.5653 7.85945 7.85924 -8.95357
129 1 3.13533 6.28237 6.2822 -8.94502
130 1 4.69252 7.84391 7.84456 -8.93682
131 1 6.27526 6.27426 6.27453 -8.92918
132 1 7.81993 7.82063 7.82284 -8.84486
133 1 9.43314 6.28068 6.28372 -8.94377
134 1 11.018 7.84807 7.83861 -8.89931
135 1 12.5848 6.28048 6.28147 -8.94932
136 1 14.1667 7.84934 7.84928 -8.93505
137 1 15.7301 6.28405 6.28471 -8.94602
138 1 17.3016 7.85953 7.86 -8.95124
139 1 18.8707 6.28791 6.28829 -8.95014
140 1 20.4411 7.86107 7.86125 -8.95095
141 1 22.0123 9.43405 6.28776 -8.94931
142 1 3.13955 9.43372 6.28463 -8.94739
143 1 6.28445 9.43511 6.27993 -8.96114
144 1 9.42715 9.42111 6.29413 -8.93118
145 1 12.6044 9.41653 6.25833 -8.91926
146 1 15.7337 9.43171 6.28312 -8.95267
147 1 18.8717 9.43381 6.28787 -8.95048
148 1 -0.000768732 1.54173e-12 9.43439 -8.94944
149 1 3.14319 5.08562e-11 9.43425 -8.94945
150 1 6.28877 5.88183e-10 9.43439 -8.95113
151 1 9.43471 2.0587e-09 9.43434 -8.94799
152 1 12.5796 -1.20511e-10 9.4343 -8.95008
153 1 15.7251 1.56928e-11 9.43411 -8.94955
154 1 18.8694 -2.67344e-13 9.43433 -8.94948
155 1 22.0127 3.14351 9.43435 -8.94935
156 1 3.14177 3.14165 9.43409 -8.94904
157 1 6.28666 3.1386 9.43437 -8.95221
158 1 9.43412 3.14422 9.43488 -8.94514
183 1 1.56901 4.71467 11.0074 -8.94909
184 1 4.71033 4.70984 11.0083 -8.94624
11 1 15.7247 1.57945e-12 0.000219226 -8.94949
25 1 15.7251 3.14372 0.000215731 -8.94958
29 1 22.0138 6.28936 -0.000371511 -8.94944
41 1 18.87 6.289 -0.000313817 -8.94939
176 1 1.5709 1.57144 11.0071 -8.94936
343 1 18.8705 9.43427 18.8702 -8.94935
178 1 7.86191 1.57042 11.0072 -8.95107
179 1 11.0069 1.57159 11.0068 -8.94887
180 1 14.1529 1.57107 11.0065 -8.94948
342 1 15.7267 9.43386 18.872 -8.94888
182 1 20.4413 1.57184 11.007 -8.94946
47 1 12.58 9.43424 22.0132 -8.95136
46 1 9.43411 9.43452 22.0141 -8.94882
185 1 7.85826 4.70824 11.0097 -8.95844
186 1 11.0068 4.71529 11.0076 -8.95004
187 1 14.155 4.7129 11.0062 -8.94689
341 1 12.5802 9.43449 18.8736 -8.95241
340 1 9.43396 9.4347 18.8712 -8.94999
190 1 1.56659 7.86017 11.0073 -8.9525
191 1 4.69698 7.85216 11.0089 -8.95594
192 1 7.80124 7.82416 11.0367 -8.81842
193 1 11.0469 7.85556 11.0192 -8.87048
194 1 14.1662 7.85579 11.0061 -8.95397
195 1 17.3017 7.85991 11.0069 -8.95048
196 1 20.4415 7.86118 11.0071 -8.95059
197 1 -0.000738189 -9.2658e-13 12.5796 -8.94943
198 1 1.571 1.57152 14.1526 -8.9493
199 1 3.14317 4.77518e-11 12.58 -8.94935
200 1 4.71533 1.57023 14.1533 -8.95017
201 1 6.28876 7.64185e-10 12.5799 -8.95123
202 1 7.86183 1.57024 14.153 -8.9507
203 1 9.43473 3.10179e-10 12.5797 -8.94918
204 1 11.0074 1.5701 14.1529 -8.95098
205 1 12.5799 3.56422e-10 12.5792 -8.951
206 1 14.1531 1.57024 14.1525 -8.95101
207 1 15.7252 -3.24336e-11 12.5792 -8.94955
208 1 17.2977 1.57149 14.1521 -8.94958
209 1 18.8695 2.0723e-12 12.5794 -8.94946
210 1 20.4414 1.57186 14.1521 -8.94943
211 1 22.0128 3.1436 12.5799 -8.94933
212 1 1.56939 4.71504 14.1537 -8.9492
213 1 3.14183 3.14188 12.5807 -8.94891
214 1 4.71039 4.70959 14.1579 -8.94419
215 1 6.28671 3.13863 12.5814 -8.9525
216 1 7.86038 4.70849 14.1567 -8.95559
217 1 9.43477 3.1418 12.5808 -8.94819
218 1 11.0085 4.70754 14.1573 -8.95449
219 1 12.5807 3.14 12.5797 -8.95377
220 1 14.1576 4.70822 14.1567 -8.95018
221 1 15.726 3.14236 12.5794 -8.9494
222 1 17.2996 4.71443 14.1531 -8.94979
223 1 18.8697 3.14363 12.5795 -8.94934
224 1 20.4416 4.71598 14.1526 -8.94972
225 1 -0.00191652 6.28823 12.5803 -8.95016
226 1 1.56983 7.86155 14.1531 -8.95205
227 1 3.13709 6.28474 12.5826 -8.94878
228 1 4.70641 7.85486 14.1599 -8.94924
229 1 6.27229 6.26927 12.5934 -8.93191
230 1 7.83944 7.83283 14.1846 -8.90498
231 1 9.43574 6.28407 12.5861 -8.98425
232 1 11.029 7.83012 14.1886 -8.88957
233 1 12.5902 6.27044 12.588 -8.95687
234 1 14.1763 7.84013 14.1748 -8.92272
235 1 15.7306 6.28434 12.581 -8.94943
236 1 17.3044 7.85853 14.1557 -8.95267
237 1 18.8711 6.28799 12.5799 -8.9498
238 1 20.4429 7.86141 14.1529 -8.95087
239 1 22.0134 9.43451 12.5799 -8.95003
240 1 3.14065 9.4346 12.5795 -8.95274
241 1 6.27344 9.41203 12.5963 -8.88811
242 1 9.43853 9.27283 12.6348 -8.24068
243 1 12.6327 9.37284 12.6443 -8.77033
244 1 15.7395 9.42977 12.5863 -8.9569
245 1 18.873 9.43393 12.5805 -8.95175
246 1 22.0133 6.95731e-13 15.7248 -8.94943
247 1 1.57123 1.57167 17.2978 -8.94909
248 1 3.14334 8.22146e-11 15.7255 -8.94954
249 1 4.71591 1.57112 17.2983 -8.94989
250 1 6.28889 1.63522e-11 15.7255 -8.9502
251 1 7.86146 1.57094 17.2985 -8.94928
252 1 9.4345 3.79006e-11 15.7258 -8.95011
253 1 11.0074 1.57083 17.2986 -8.94934
254 1 12.5802 2.18289e-11 15.7254 -8.95032
255 1 14.1531 1.5708 17.2983 -8.94977
256 1 15.7255 2.89357e-11 15.7251 -8.95017
257 1 17.298 1.57131 17.2978 -8.94947
258 1 18.8696 -3.41202e-13 15.7246 -8.94959
259 1 20.4416 1.57189 17.2972 -8.94949
260 1 -0.000887853 3.14378 15.7252 -8.94941
261 1 1.5706 4.7159 17.2985 -8.94948
262 1 3.142 3.14214 15.7268 -8.94814
263 1 4.71309 4.71328 17.3016 -8.94661
264 1 6.28769 3.1408 15.7272 -8.95085
265 1 7.86037 4.71309 17.3013 -8.94764
266 1 9.43432 3.14032 15.7277 -8.94926
267 1 11.008 4.71262 17.3017 -8.94789
268 1 12.5812 3.14004 15.7272 -8.95044
269 1 14.1561 4.712 17.3022 -8.94623
270 1 15.7271 3.14117 15.7266 -8.94955
271 1 17.3003 4.7141 17.2997 -8.94745
272 1 18.8701 3.1435 15.725 -8.94966
273 1 20.4422 4.7162 17.2978 -8.94983
274 1 22.0133 6.28888 15.7255 -8.95067
275 1 1.57193 7.86225 17.2975 -8.94948
276 1 3.13997 6.28664 15.7283 -8.94946
277 1 4.71608 7.86244 17.2989 -8.95234
278 1 6.27966 6.27909 15.737 -8.93936
279 1 7.8601 7.85875 17.3053 -8.95711
280 1 9.43375 6.27951 15.7353 -8.94139
281 1 11.008 7.85754 17.3076 -8.95619
282 1 12.5892 6.27674 15.7385 -8.93685
283 1 14.1559 7.85895 17.3046 -8.953
284 1 15.7338 6.28131 15.7328 -8.94223
285 1 17.2997 7.86087 17.2994 -8.94918
286 1 18.8722 6.28773 15.7263 -8.95037
287 1 20.4425 7.86177 17.2977 -8.94935
288 1 22.0142 9.43449 15.7253 -8.94916
289 1 3.14422 9.43512 15.7251 -8.948
290 1 6.29124 9.43768 15.7251 -8.95729
291 1 9.43478 9.42952 15.7294 -8.96845
292 1 12.5841 9.4329 15.7404 -8.96357
293 1 15.7302 9.433 15.7306 -8.9472
294 1 18.8718 9.43405 15.7262 -8.94904
295 1 -0.000413463 2.76503e-12 18.8696 -8.94921
296 1 1.57169 1.57192 20.442 -8.94911
297 1 3.14387 1.51709e-12 18.8701 -8.94954
298 1 4.71653 1.57183 20.4422 -8.94939
299 1 6.28899 1.77536e-12 18.8702 -8.94931
300 1 7.86174 1.57173 20.4423 -8.9494
301 1 9.43443 2.17219e-12 18.8704 -8.94941
302 1 11.0071 1.57169 20.4424 -8.9494
303 1 12.5799 2.03237e-12 18.8703 -8.94933
304 1 14.1525 1.57171 20.4423 -8.94936
305 1 15.7252 1.20948e-12 18.8702 -8.94948
306 1 17.2975 1.57178 20.4422 -8.94923
307 1 18.8697 8.613e-13 18.8697 -8.94931
308 1 20.4417 1.572 20.4418 -8.94904
309 1 22.0135 3.14411 18.8699 -8.94939
310 1 1.57181 4.71686 20.4418 -8.94995
311 1 3.14314 3.14339 18.8708 -8.94866
312 1 4.71588 4.71608 20.4428 -8.95003
313 1 6.28852 3.14314 18.871 -8.94912
314 1 7.86132 4.71566 20.4431 -8.94927
315 1 9.4343 3.14289 18.8712 -8.94936
316 1 11.0072 4.7155 20.4433 -8.94931
317 1 12.5803 3.14282 18.8712 -8.9491
318 1 14.1531 4.71553 20.4433 -8.94971
319 1 15.7261 3.14285 18.8711 -8.94865
320 1 17.2981 4.71602 20.4423 -8.94962
321 1 18.8703 3.14366 18.8702 -8.94887
322 1 20.4419 4.7168 20.4417 -8.9496
323 1 22.0139 6.28948 18.8696 -8.94965
324 1 1.57202 7.86202 20.4416 -8.94939
325 1 3.14375 6.2894 18.8704 -8.95062
326 1 4.71665 7.86231 20.4419 -8.94996
327 1 6.28757 6.2877 18.8732 -8.95125
328 1 7.86149 7.86165 20.4433 -8.95162
329 1 9.43393 6.28671 18.8739 -8.94908
330 1 11.0068 7.86124 20.444 -8.95162
331 1 12.5811 6.2868 18.8743 -8.95057
332 1 14.153 7.86122 20.4431 -8.95081
333 1 15.7268 6.28762 18.8722 -8.95043
334 1 17.2982 7.86142 20.4422 -8.94926
335 1 18.8705 6.28895 18.8701 -8.94952
336 1 20.442 7.86184 20.4417 -8.94944
337 1 0.00011423 9.43447 18.8696 -8.94951
338 1 3.14411 9.43463 18.8697 -8.9491
339 1 6.28938 9.43537 18.8696 -8.94967
7 1 9.4345 8.99208e-13 22.0141 -8.94947
44 1 3.14407 9.43446 22.0132 -8.94953
17 1 3.14385 3.14395 22.0137 -8.94948
19 1 6.28905 3.14382 22.014 -8.94933
21 1 9.43442 3.14371 22.0142 -8.94942
43 1 22.0138 9.4344 22.0135 -8.94949
27 1 18.8698 3.14405 22.0138 -8.94924
39 1 15.7258 6.28829 22.0134 -8.95004
31 1 3.14413 6.28942 22.0134 -8.95005
33 1 6.28878 6.28886 22.0137 -8.95086
3 1 3.14425 2.72752e-13 22.0139 -8.9495
13 1 18.8695 7.76916e-13 22.0139 -8.94909
15 1 22.0136 3.14435 22.0137 -8.94956
23 1 12.5798 3.14371 22.0142 -8.94929
49 1 18.8702 9.43426 22.0135 -8.94942
344 1 1.57167 11.007 1.57114 -8.94947
345 1 4.71622 11.007 1.57049 -8.94988
346 1 7.86225 11.007 1.57253 -8.94719
347 1 11.0068 11.007 1.57034 -8.9508
348 1 14.1545 11.007 1.56882 -8.94968
349 1 17.2987 11.007 1.5708 -8.94938
350 1 20.442 11.007 1.57149 -8.94944
688 3 10.1319 11.0069 9.55913 2.21949
352 1 1.57168 14.1521 1.57119 -8.94928
511 1 18.8696 18.8703 9.43426 -8.94939
354 1 4.71644 14.1519 1.57064 -8.9504
355 1 6.28925 12.5791 -0.000425795 -8.94962
356 1 7.8616 14.1525 1.57046 -8.9519
510 1 15.7257 18.8712 9.43391 -8.94919
358 1 11.0067 14.1528 1.57064 -8.9506
509 1 12.5798 18.8714 9.43425 -8.95141
360 1 14.1539 14.1537 1.56909 -8.95097
361 1 15.7261 12.5799 -0.00067372 -8.94944
362 1 17.2986 14.1529 1.57085 -8.94922
538 1 17.2975 20.4423 11.0068 -8.94945
364 1 20.442 14.1523 1.57153 -8.94939
508 1 9.43412 18.8697 9.43488 -8.94514
366 1 1.57151 17.2974 1.57122 -8.94983
507 1 6.28666 18.8753 9.43437 -8.95221
368 1 4.7158 17.2982 1.57057 -8.94987
506 1 3.14177 18.8722 9.43409 -8.94904
370 1 7.86155 17.2982 1.57124 -8.9492
371 1 9.43416 15.7256 0.000333928 -8.94999
372 1 11.0072 17.2983 1.5715 -8.94921
373 1 12.5798 15.7255 0.000316988 -8.95026
374 1 14.1528 17.2983 1.57139 -8.94998
505 1 22.0127 18.8704 9.43435 -8.94935
376 1 17.2983 17.2983 1.57112 -8.94877
504 1 18.8704 15.726 9.43416 -8.94952
378 1 20.4418 17.2974 1.57166 -8.94949
534 1 4.71512 20.4437 11.0073 -8.9495
380 1 1.57156 20.4421 1.57173 -8.94907
503 1 15.7288 15.7285 9.43289 -8.94697
382 1 4.71663 20.4421 1.5718 -8.94949
502 1 12.5837 15.7332 9.4301 -8.95264
384 1 7.86191 20.4421 1.57195 -8.94943
501 1 9.42784 15.7182 9.43889 -9.00759
386 1 11.0072 20.4421 1.57205 -8.94944
532 1 20.4412 17.2981 11.0071 -8.94951
388 1 14.1523 20.4421 1.57217 -8.94942
500 1 6.27349 15.7448 9.43031 -8.95133
390 1 17.2973 20.4422 1.57202 -8.94944
499 1 3.13612 15.7302 9.43301 -8.94795
392 1 20.4414 20.4419 1.57198 -8.94917
393 1 1.57024 11.007 4.71446 -8.94922
394 1 4.71368 11.007 4.71141 -8.94581
395 1 7.86546 11.007 4.72103 -8.94416
396 1 11.0085 11.007 4.70772 -8.97981
397 1 14.1607 11.007 4.70663 -8.94324
398 1 17.3011 11.007 4.71379 -8.9491
399 1 20.4421 11.007 4.71557 -8.94967
400 1 -0.000433394 12.5797 3.14331 -8.94937
401 1 1.57007 14.1527 4.71469 -8.94926
402 1 3.14307 12.5797 3.14203 -8.94874
403 1 4.71326 14.1539 4.71109 -8.95327
404 1 6.28923 12.5787 3.14223 -8.95178
405 1 7.85848 14.157 4.70748 -8.95801
406 1 9.43401 12.5803 3.14388 -8.94523
407 1 11.0065 14.1551 4.70998 -8.95328
408 1 12.5825 12.581 3.13658 -8.95579
409 1 14.1614 14.1607 4.70554 -8.9414
410 1 15.7283 12.5808 3.1405 -8.94837
411 1 17.3009 14.1541 4.71406 -8.94999
412 1 18.8708 12.5799 3.14311 -8.94931
413 1 20.442 14.1526 4.71575 -8.9497
414 1 22.0133 15.725 3.14346 -8.94962
415 1 1.56904 17.2995 4.71421 -8.94799
416 1 3.14269 15.7257 3.1418 -8.9506
417 1 4.71208 17.3023 4.71137 -8.94453
418 1 6.28718 15.7271 3.13979 -8.95101
419 1 7.86083 17.3008 4.71387 -8.94807
420 1 9.43413 15.7272 3.14157 -8.9484
421 1 11.0074 17.2999 4.7146 -8.94723
422 1 12.5804 15.7268 3.14143 -8.95033
423 1 14.1546 17.3012 4.71383 -8.94968
424 1 15.7281 15.7281 3.14056 -8.94705
425 1 17.2988 17.2992 4.71528 -8.94876
426 1 18.8706 15.7256 3.1433 -8.94953
427 1 20.4412 17.298 4.71602 -8.94973
428 1 22.0129 18.8702 3.1436 -8.94897
429 1 1.57106 20.4425 4.71607 -8.94939
430 1 3.14288 18.8711 3.14267 -8.94826
431 1 4.71603 20.4431 4.71568 -8.9501
432 1 6.28885 18.8709 3.14317 -8.94936
433 1 7.86193 20.4428 4.716 -8.94946
434 1 9.43454 18.8708 3.14354 -8.94945
435 1 11.0073 20.4426 4.71623 -8.94938
436 1 12.5799 18.8706 3.14378 -8.94907
437 1 14.1523 20.4426 4.71663 -8.95049
438 1 15.7255 18.8711 3.14353 -8.94955
439 1 17.2973 20.4423 4.71664 -8.9496
440 1 18.8697 18.8702 3.14394 -8.9493
441 1 20.4412 20.442 4.71672 -8.94949
442 1 1.56776 11.007 7.85875 -8.94727
443 1 4.70938 11.007 7.85252 -8.93552
444 1 7.87343 11.007 7.87898 -8.92323
445 1 11.067 11.007 7.74572 -8.32656
446 1 14.168 11.007 7.85017 -8.95882
447 1 17.3024 11.007 7.85972 -8.95069
448 1 20.4417 11.007 7.86096 -8.95
449 1 22.0123 12.5799 6.28776 -8.94931
450 1 1.5653 14.1545 7.85924 -8.95357
451 1 3.13955 12.5802 6.28463 -8.94739
452 1 4.69252 14.17 7.84456 -8.93682
453 1 6.28445 12.5788 6.27993 -8.96114
454 1 7.81993 14.1933 7.82284 -8.84485
455 1 9.42715 12.5928 6.29413 -8.93118
456 1 11.018 14.1658 7.83861 -8.89931
457 1 12.6044 12.5974 6.25833 -8.91926
458 1 14.1667 14.1646 7.84928 -8.93505
459 1 15.7337 12.5822 6.28312 -8.95267
460 1 17.3016 14.1544 7.86 -8.95124
461 1 18.8717 12.5801 6.28787 -8.95048
462 1 20.4411 14.1528 7.86125 -8.95095
463 1 22.0113 15.7261 6.28783 -8.95058
464 1 1.56882 17.2996 7.8607 -8.94915
465 1 3.13533 15.7315 6.2822 -8.94502
466 1 4.71034 17.3055 7.85784 -8.94873
467 1 6.27526 15.7396 6.27453 -8.92918
468 1 7.85933 17.3062 7.86031 -8.95963
469 1 9.43314 15.7332 6.28372 -8.94377
470 1 11.0051 17.2993 7.86177 -8.95355
471 1 12.5848 15.7334 6.28147 -8.94932
472 1 14.1544 17.3017 7.85967 -8.94984
473 1 15.7301 15.7298 6.28471 -8.94602
474 1 17.2985 17.2989 7.86113 -8.94915
475 1 18.8707 15.726 6.28829 -8.95014
476 1 20.441 17.2981 7.86155 -8.94951
477 1 -0.00124862 18.8704 6.2888 -8.94941
478 1 1.57095 20.4425 7.86153 -8.94935
479 1 3.14184 18.8725 6.28733 -8.94927
480 1 4.71548 20.4438 7.8611 -8.9504
481 1 6.28771 18.8739 6.28729 -8.95172
482 1 7.86198 20.4435 7.86169 -8.95148
483 1 9.43454 18.8724 6.28793 -8.94985
484 1 11.0068 20.4422 7.86192 -8.94957
485 1 12.5795 18.8715 6.28888 -8.9517
486 1 14.1524 20.4427 7.86163 -8.95037
487 1 15.7256 18.8714 6.2885 -8.94964
488 1 17.2973 20.4423 7.86169 -8.94943
489 1 18.8695 18.8702 6.28907 -8.94946
490 1 20.4412 20.4421 7.8618 -8.94943
491 1 22.0112 12.5796 9.43394 -8.95156
492 1 3.13243 12.5816 9.43028 -8.9599
493 1 6.24131 12.63 9.39088 -8.86537
494 1 9.34721 12.8316 9.44109 -7.95188
495 1 12.6034 12.6127 9.39051 -8.80771
496 1 15.7332 12.5823 9.43067 -8.94951
497 1 18.8715 12.5801 9.43395 -8.9501
498 1 -0.0025727 15.726 9.43421 -8.94987
513 1 4.71755 11.007 10.9988 -9.00908
514 1 7.59248 11.007 10.9199 -7.99058
531 1 17.2987 17.2989 11.0067 -8.94893
526 1 1.56901 17.2992 11.0074 -8.94909
527 1 4.71033 17.3041 11.0083 -8.94624
389 1 15.7251 18.8702 0.000215731 -8.94958
365 1 22.0138 15.7245 -0.000371511 -8.94944
377 1 18.87 15.7249 -0.000313817 -8.94939
512 1 1.57026 11.007 11.0067 -8.94589
687 3 9.48028 11.007 11.579 2.16017
686 1 20.4417 20.4419 20.4418 -8.94904
515 1 11.4198 11.007 11.0888 -7.17073
516 1 14.1778 11.007 11.0124 -9.02102
517 1 17.3035 11.007 11.0071 -8.95397
518 1 20.4425 11.007 11.0071 -8.94935
519 1 1.56659 14.1537 11.0073 -8.9525
520 1 4.69698 14.1617 11.0089 -8.95594
521 1 7.80124 14.1897 11.0367 -8.81841
522 1 11.0469 14.1583 11.0192 -8.87048
523 1 14.1662 14.1581 11.0061 -8.95397
524 1 17.3017 14.154 11.0069 -8.95048
525 1 20.4415 14.1527 11.0071 -8.95059
391 1 18.8698 18.8698 22.0138 -8.94924
385 1 9.43442 18.8702 22.0142 -8.94942
528 1 7.85826 17.3057 11.0097 -8.95844
529 1 11.0068 17.2986 11.0076 -8.95004
530 1 14.155 17.301 11.0062 -8.94689
685 1 18.8703 18.8702 18.8702 -8.94887
684 1 17.2975 20.4421 20.4422 -8.94923
533 1 1.5709 20.4425 11.0071 -8.94936
683 1 15.7261 18.8711 18.8711 -8.94865
535 1 7.86191 20.4435 11.0072 -8.95107
536 1 11.0069 20.4423 11.0068 -8.94887
537 1 14.1529 20.4428 11.0065 -8.94948
682 1 14.1525 20.4422 20.4423 -8.94936
539 1 20.4413 20.4421 11.007 -8.94946
540 1 1.57176 11.007 14.1529 -8.94812
541 1 4.71757 11.007 14.1508 -8.94011
542 1 7.87479 11.007 14.1146 -8.93119
543 1 11.0087 11.007 14.1421 -8.97703
544 1 14.1635 11.007 14.1641 -8.93642
545 1 17.3026 11.007 14.1557 -8.94761
546 1 20.4431 11.007 14.1531 -8.94955
547 1 22.0134 12.5794 12.5799 -8.95003
548 1 1.56983 14.1524 14.1531 -8.95205
549 1 3.14065 12.5793 12.5795 -8.95274
550 1 4.70641 14.159 14.1599 -8.94924
551 1 6.27344 12.6019 12.5963 -8.88811
552 1 7.83944 14.1811 14.1846 -8.90498
553 1 9.43853 12.7411 12.6348 -8.24068
554 1 11.029 14.1838 14.1886 -8.88957
555 1 12.6327 12.6411 12.6443 -8.77033
556 1 14.1763 14.1738 14.1748 -8.92272
557 1 15.7395 12.5841 12.5863 -8.9569
558 1 17.3044 14.1554 14.1557 -8.95267
559 1 18.873 12.58 12.5805 -8.95175
560 1 20.4429 14.1525 14.1529 -8.95087
561 1 -0.00191652 15.7257 12.5803 -8.95016
562 1 1.56939 17.2989 14.1537 -8.9492
563 1 3.13709 15.7292 12.5826 -8.94878
564 1 4.71039 17.3043 14.1579 -8.94419
565 1 6.27229 15.7446 12.5934 -8.93191
566 1 7.86038 17.3054 14.1567 -8.95559
567 1 9.43574 15.7298 12.5861 -8.98425
568 1 11.0085 17.3064 14.1573 -8.95449
569 1 12.5902 15.7435 12.588 -8.95687
570 1 14.1576 17.3057 14.1567 -8.95018
571 1 15.7306 15.7296 12.581 -8.94943
572 1 17.2996 17.2995 14.1531 -8.94979
573 1 18.8711 15.7259 12.5799 -8.9498
574 1 20.4416 17.2979 14.1526 -8.94972
575 1 22.0128 18.8703 12.5799 -8.94933
576 1 1.571 20.4424 14.1526 -8.9493
577 1 3.14183 18.872 12.5807 -8.94891
578 1 4.71533 20.4437 14.1533 -8.95017
579 1 6.28671 18.8753 12.5814 -8.9525
580 1 7.86183 20.4437 14.153 -8.9507
581 1 9.43477 18.8721 12.5808 -8.94819
582 1 11.0074 20.4438 14.1529 -8.95098
583 1 12.5807 18.8739 12.5797 -8.95377
584 1 14.1531 20.4437 14.1525 -8.95101
585 1 15.726 18.8715 12.5794 -8.9494
586 1 17.2977 20.4424 14.1521 -8.94958
587 1 18.8697 18.8703 12.5795 -8.94934
588 1 20.4414 20.442 14.1521 -8.94943
589 1 1.57205 11.007 17.2975 -8.94966
590 1 4.71621 11.007 17.2977 -8.9477
591 1 7.86305 11.007 17.292 -8.93525
592 1 11.0065 11.007 17.2983 -8.94187
593 1 14.1564 11.007 17.3038 -8.94662
594 1 17.2997 11.007 17.2995 -8.94918
595 1 20.4425 11.007 17.2978 -8.94949
596 1 22.0142 12.5794 15.7253 -8.94916
597 1 1.57193 14.1517 17.2975 -8.94948
598 1 3.14422 12.5788 15.7251 -8.948
599 1 4.71608 14.1515 17.2989 -8.95234
600 1 6.29124 12.5762 15.7251 -8.95729
601 1 7.8601 14.1552 17.3053 -8.95711
602 1 9.43478 12.5844 15.7294 -8.96845
603 1 11.008 14.1564 17.3076 -8.95619
604 1 12.5841 12.581 15.7404 -8.96357
605 1 14.1559 14.155 17.3046 -8.953
606 1 15.7302 12.5809 15.7306 -8.9472
607 1 17.2997 14.153 17.2994 -8.94918
608 1 18.8718 12.5798 15.7262 -8.94904
609 1 20.4425 14.1521 17.2977 -8.94935
610 1 22.0133 15.725 15.7255 -8.95067
611 1 1.5706 17.298 17.2985 -8.94948
612 1 3.13997 15.7273 15.7283 -8.94946
613 1 4.71309 17.3006 17.3016 -8.94661
614 1 6.27966 15.7348 15.737 -8.93936
615 1 7.86037 17.3008 17.3013 -8.94764
616 1 9.43375 15.7344 15.7353 -8.94139
617 1 11.008 17.3013 17.3017 -8.94789
618 1 12.5892 15.7372 15.7385 -8.93685
619 1 14.1561 17.3019 17.3022 -8.94623
620 1 15.7338 15.7326 15.7328 -8.94223
621 1 17.3003 17.2998 17.2997 -8.94745
622 1 18.8722 15.7262 15.7263 -8.95037
623 1 20.4422 17.2977 17.2978 -8.94983
624 1 -0.000887853 18.8701 15.7252 -8.94941
625 1 1.57123 20.4422 17.2978 -8.94909
626 1 3.142 18.8718 15.7268 -8.94814
627 1 4.71591 20.4428 17.2983 -8.94989
628 1 6.28769 18.8731 15.7272 -8.95085
629 1 7.86146 20.443 17.2985 -8.94928
630 1 9.43432 18.8736 15.7277 -8.94926
631 1 11.0074 20.4431 17.2986 -8.94934
632 1 12.5812 18.8739 15.7272 -8.95044
633 1 14.1531 20.4431 17.2983 -8.94977
634 1 15.7271 18.8727 15.7266 -8.94955
635 1 17.298 20.4426 17.2978 -8.94947
636 1 18.8701 18.8704 15.725 -8.94966
637 1 20.4416 20.442 17.2972 -8.94949
638 1 1.57199 11.007 20.4415 -8.94953
639 1 4.71645 11.007 20.4416 -8.94971
640 1 7.86159 11.007 20.4414 -8.94677
641 1 11.0067 11.007 20.4425 -8.94821
642 1 14.1535 11.007 20.443 -8.95014
643 1 17.2983 11.007 20.4422 -8.94942
644 1 20.4421 11.007 20.4417 -8.94948
645 1 0.00011423 12.5794 18.8696 -8.94951
646 1 1.57202 14.1519 20.4416 -8.94939
647 1 3.14411 12.5793 18.8697 -8.9491
648 1 4.71665 14.1516 20.4419 -8.94996
649 1 6.28938 12.5785 18.8696 -8.94967
650 1 7.86149 14.1523 20.4433 -8.95162
651 1 9.43396 12.5792 18.8712 -8.94999
652 1 11.0068 14.1527 20.444 -8.95162
653 1 12.5802 12.5794 18.8736 -8.95241
654 1 14.153 14.1527 20.4431 -8.95081
655 1 15.7267 12.58 18.872 -8.94888
656 1 17.2982 14.1525 20.4422 -8.94926
657 1 18.8705 12.5796 18.8702 -8.94935
658 1 20.442 14.1521 20.4417 -8.94944
659 1 22.0139 15.7244 18.8696 -8.94965
660 1 1.57181 17.297 20.4418 -8.94995
661 1 3.14375 15.7245 18.8704 -8.95062
662 1 4.71588 17.2978 20.4428 -8.95003
663 1 6.28757 15.7262 18.8732 -8.95125
664 1 7.86132 17.2982 20.4431 -8.94927
665 1 9.43393 15.7272 18.8739 -8.94908
666 1 11.0072 17.2984 20.4433 -8.94931
667 1 12.5811 15.7271 18.8743 -8.95057
668 1 14.1531 17.2984 20.4433 -8.94971
669 1 15.7268 15.7263 18.8722 -8.95043
670 1 17.2981 17.2979 20.4423 -8.94962
671 1 18.8705 15.725 18.8701 -8.94952
672 1 20.4419 17.2971 20.4417 -8.9496
673 1 22.0135 18.8698 18.8699 -8.94939
674 1 1.57169 20.442 20.442 -8.94911
675 1 3.14314 18.8705 18.8708 -8.94866
676 1 4.71653 20.4421 20.4422 -8.94939
677 1 6.28852 18.8708 18.871 -8.94912
678 1 7.86174 20.4422 20.4423 -8.9494
679 1 9.4343 18.871 18.8712 -8.94936
680 1 11.0071 20.4422 20.4424 -8.9494
681 1 12.5803 18.8711 18.8712 -8.9491
351 1 22.0138 12.5795 22.0135 -8.94949
353 1 3.14407 12.5794 22.0132 -8.94953
357 1 9.43411 12.5794 22.0141 -8.94882
359 1 12.58 12.5797 22.0132 -8.95136
383 1 6.28905 18.8701 22.014 -8.94933
367 1 3.14413 15.7245 22.0134 -8.95005
369 1 6.28878 15.725 22.0137 -8.95086
375 1 15.7258 15.7256 22.0134 -8.95004
381 1 3.14385 18.8699 22.0137 -8.94948
363 1 18.8702 12.5796 22.0135 -8.94942
379 1 22.0136 18.8695 22.0137 -8.94956
387 1 12.5798 18.8702 22.0142 -8.94929
