ITEM: TIMESTEP
68
ITEM: NUMBER OF ATOMS
688
ITEM: BOX BOUNDS pp pp pp
0.0000000000000000e+00 2.2013900999999997e+01
0.0000000000000000e+00 2.2013900999999997e+01
0.0000000000000000e+00 2.2013900999999997e+01
ITEM: ATOMS id type x y z c_pot
1 1 22.0138 4.86421e-16 2.35069e-06 -8.94923
2 1 1.57203 1.57213 1.57212 -8.94925
189 1 20.4414 4.71647 11.007 -8.94952
4 1 4.71704 1.57209 1.57212 -8.94961
5 1 6.28957 1.17429e-15 2.4927e-05 -8.94956
6 1 7.86204 1.57205 1.57212 -8.94952
175 1 18.8709 9.43408 9.43435 -8.94986
8 1 11.007 1.57204 1.57213 -8.94954
9 1 12.5795 4.56585e-16 3.58643e-05 -8.94956
10 1 14.152 1.57208 1.57222 -8.94949
174 1 15.7309 9.43254 9.43178 -8.94975
12 1 17.297 1.57204 1.57218 -8.94952
188 1 17.2981 4.71578 11.0067 -8.94892
14 1 20.4415 1.57223 1.57225 -8.9494
181 1 17.2972 1.57193 11.0069 -8.94951
16 1 1.57194 4.71688 1.5718 -8.94979
173 1 12.5991 9.4055 9.39099 -8.81162
18 1 4.71633 4.71626 1.57118 -8.94972
172 1 9.34394 9.19434 9.44797 -7.97546
20 1 7.86183 4.71622 1.57153 -8.94918
171 1 6.24234 9.38743 9.39198 -8.86894
22 1 11.0071 4.71616 1.57166 -8.94929
177 1 4.71593 1.57078 11.007 -8.9494
24 1 14.1523 4.71619 1.57168 -8.94988
170 1 3.13367 9.43323 9.4315 -8.96033
26 1 17.2977 4.71616 1.57146 -8.94861
169 1 22.0116 9.43449 9.43438 -8.95151
28 1 20.4417 4.71695 1.57207 -8.94958
168 1 18.8702 6.28856 9.43441 -8.94948
30 1 1.57196 7.86195 1.5718 -8.94935
167 1 15.7278 6.28639 9.43355 -8.94697
32 1 4.7167 7.86211 1.57119 -8.95022
166 1 12.5825 6.28195 9.42973 -8.95178
34 1 7.8618 7.86168 1.57064 -8.95207
35 1 9.43427 6.28873 0.000152083 -8.94988
36 1 11.0066 7.86124 1.57062 -8.95051
37 1 12.5796 6.28885 0.00013041 -8.95011
38 1 14.1533 7.86066 1.56941 -8.95126
165 1 9.42859 6.29595 9.43827 -9.00489
40 1 17.2978 7.86151 1.57138 -8.94924
164 1 6.27559 6.27115 9.43025 -8.95045
42 1 20.4417 7.86193 1.57201 -8.94949
163 1 3.13826 6.28544 9.43373 -8.94827
162 1 -0.00169003 6.28864 9.43447 -8.9498
45 1 6.28923 9.43471 -0.000255351 -8.94963
161 1 18.8695 3.14419 9.43442 -8.94949
160 1 15.7253 3.14331 9.43418 -8.94918
48 1 15.7254 9.43418 -0.000600787 -8.94938
159 1 12.5797 3.14277 9.43422 -8.95123
50 1 22.0136 2.28608e-16 3.14462 -8.94949
51 1 1.57176 1.57185 4.71674 -8.94948
52 1 3.1444 1.10045e-15 3.14434 -8.94961
53 1 4.71658 1.57135 4.71634 -8.95002
54 1 6.28956 6.83642e-16 3.14435 -8.9495
55 1 7.86208 1.57147 4.71644 -8.94948
56 1 9.4346 8.00961e-16 3.14434 -8.94954
57 1 11.0073 1.57157 4.71651 -8.94944
58 1 12.5796 1.07029e-15 3.14442 -8.94945
59 1 14.1521 1.57163 4.71687 -8.95042
60 1 15.7245 1.0225e-15 3.14457 -8.94996
61 1 17.297 1.57196 4.71699 -8.94959
62 1 18.8692 4.2271e-16 3.14471 -8.94957
63 1 20.4414 1.5722 4.71711 -8.9496
64 1 22.0134 3.14428 3.14426 -8.94915
65 1 1.57018 4.71542 4.71537 -8.94814
66 1 3.14368 3.14362 3.14356 -8.94845
67 1 4.71347 4.71303 4.71285 -8.94501
68 1 6.2893 3.1437 3.1438 -8.94949
69 1 7.86143 4.71405 4.71467 -8.94843
70 1 9.43458 3.14368 3.1439 -8.94949
71 1 11.0074 4.71452 4.71512 -8.94747
72 1 12.5796 3.14375 3.14409 -8.94911
73 1 14.154 4.71343 4.71472 -8.95023
74 1 15.7251 3.14347 3.14397 -8.94964
75 1 17.2981 4.71566 4.71614 -8.94891
76 1 18.8694 3.14429 3.14444 -8.94943
77 1 20.4413 4.71658 4.7167 -8.94972
78 1 22.0136 6.28935 3.1442 -8.94969
79 1 1.57086 7.86166 4.71575 -8.94933
80 1 3.14346 6.28883 3.14288 -8.95046
81 1 4.71416 7.86073 4.71231 -8.95307
82 1 6.28772 6.28743 3.14062 -8.95065
83 1 7.85863 7.85726 4.70768 -8.95658
84 1 9.43424 6.28735 3.14199 -8.94814
85 1 11.0064 7.85878 4.71019 -8.95213
86 1 12.58 6.28765 3.14205 -8.94982
87 1 14.1619 7.85246 4.70555 -8.9384
88 1 15.7276 6.28625 3.14115 -8.94627
89 1 17.3003 7.86029 4.71504 -8.95024
90 1 18.8702 6.28889 3.14395 -8.94962
91 1 20.4419 7.86167 4.7165 -8.9498
92 1 -0.000275577 9.43439 3.14406 -8.94948
93 1 3.14356 9.43432 3.14294 -8.94879
94 1 6.28939 9.43523 3.1424 -8.95147
95 1 9.43455 9.43413 3.14372 -8.94709
96 1 12.5819 9.43321 3.13693 -8.9575
97 1 15.7274 9.43337 3.14139 -8.94805
98 1 18.8703 9.43424 3.14386 -8.94936
99 1 22.0136 4.16275e-17 6.28955 -8.94956
100 1 1.57173 1.57187 7.8619 -8.94945
101 1 3.14412 7.16862e-16 6.28916 -8.94979
102 1 4.71621 1.57075 7.86148 -8.95026
103 1 6.28943 1.16291e-15 6.28909 -8.95051
104 1 7.86218 1.5707 7.86176 -8.95124
105 1 9.43478 1.32457e-15 6.28907 -8.95014
106 1 11.007 1.57169 7.86192 -8.94942
107 1 12.5795 1.26816e-15 6.28944 -8.95006
108 1 14.1523 1.57146 7.86181 -8.95027
109 1 15.7246 5.74016e-16 6.28944 -8.94984
110 1 17.2971 1.57197 7.86194 -8.94946
111 1 18.8692 -6.58452e-17 6.28958 -8.94954
112 1 20.4414 1.57216 7.86202 -8.94954
113 1 -0.000597323 3.14419 6.28936 -8.94954
114 1 1.57022 4.71554 7.86142 -8.94932
115 1 3.143 3.14253 6.28826 -8.9493
116 1 4.71216 4.71023 7.85874 -8.94872
117 1 6.2885 3.14113 6.28798 -8.95151
118 1 7.86041 4.70889 7.86062 -8.95906
119 1 9.43481 3.14201 6.28829 -8.94996
120 1 11.0053 4.7151 7.86199 -8.95248
121 1 12.5795 3.14282 6.28922 -8.95173
122 1 14.1539 4.71302 7.86041 -8.94975
123 1 15.7252 3.1432 6.28903 -8.94953
124 1 17.298 4.71585 7.8617 -8.94923
125 1 18.8694 3.14428 6.28948 -8.94954
126 1 20.4413 4.71652 7.86191 -8.94951
127 1 22.0121 6.28858 6.28865 -8.95046
128 1 1.56676 7.86029 7.86022 -8.95339
129 1 3.13732 6.28399 6.28387 -8.9451
130 1 4.69508 7.84603 7.84635 -8.93669
131 1 6.27751 6.27647 6.27635 -8.93064
132 1 7.82289 7.82374 7.82531 -8.85129
133 1 9.43377 6.28155 6.28454 -8.9453
134 1 11.0155 7.85176 7.84022 -8.90605
135 1 12.5839 6.28104 6.28299 -8.95228
136 1 14.165 7.85061 7.85177 -8.93471
137 1 15.729 6.28524 6.28625 -8.94633
138 1 17.3006 7.8603 7.86113 -8.95119
139 1 18.8703 6.28865 6.28905 -8.95007
140 1 20.4413 7.8615 7.86176 -8.9508
141 1 22.0127 9.43428 6.28857 -8.94943
142 1 3.14056 9.43413 6.28588 -8.94747
143 1 6.28498 9.43541 6.28027 -8.96165
144 1 9.42531 9.41922 6.29156 -8.92098
145 1 12.6091 9.41156 6.25563 -8.90563
146 1 15.7336 9.43181 6.28447 -8.95386
147 1 18.8714 9.43407 6.28871 -8.95076
148 1 -0.000308574 1.55646e-15 9.43449 -8.94956
149 1 3.14397 1.49273e-15 9.43437 -8.94944
150 1 6.28913 1.23939e-15 9.43437 -8.95089
151 1 9.43479 1.41532e-15 9.43427 -8.94828
152 1 12.5797 9.15879e-16 9.43433 -8.95
153 1 15.7248 4.58356e-16 9.43431 -8.94954
154 1 18.8693 5.36119e-16 9.43446 -8.94956
155 1 22.0133 3.14416 9.43447 -8.94946
156 1 3.14303 3.14281 9.43429 -8.94909
157 1 6.28769 3.13968 9.43432 -8.9521
158 1 9.43449 3.144 9.4345 -8.94522
183 1 1.57025 4.71568 11.0073 -8.94916
184 1 4.71222 4.71156 11.0079 -8.94627
11 1 15.7244 1.44599e-15 5.28889e-05 -8.94958
25 1 15.7246 3.14427 9.84873e-05 -8.94961
29 1 22.0138 6.28958 -0.000139106 -8.94951
41 1 18.8695 6.28942 -0.000183014 -8.9495
176 1 1.57167 1.57188 11.007 -8.94949
343 1 18.8698 9.43443 18.8697 -8.94946
178 1 7.86215 1.57061 11.0069 -8.95107
179 1 11.0069 1.57154 11.0067 -8.94905
180 1 14.1526 1.57137 11.0066 -8.94938
342 1 15.7259 9.43417 18.871 -8.94886
182 1 20.4415 1.57214 11.007 -8.94957
47 1 12.5797 9.43439 22.0131 -8.95139
46 1 9.43422 9.4346 22.0141 -8.94916
185 1 7.8596 4.7089 11.0091 -8.95946
186 1 11.0064 4.71523 11.0071 -8.95116
187 1 14.1541 4.71386 11.0058 -8.94704
341 1 12.5801 9.43471 18.8731 -8.95213
340 1 9.43388 9.43477 18.8719 -8.9504
190 1 1.56773 7.8609 11.0076 -8.9523
191 1 4.69943 7.85428 11.0093 -8.95683
192 1 7.80205 7.82375 11.0346 -8.81476
193 1 11.0451 7.85488 11.0161 -8.86815
194 1 14.1632 7.85735 11.0054 -8.95536
195 1 17.3003 7.86064 11.0067 -8.95035
196 1 20.4415 7.86153 11.0071 -8.9504
197 1 -0.000301422 1.56886e-15 12.5794 -8.94957
198 1 1.57172 1.57193 14.1521 -8.94946
199 1 3.14396 1.48429e-15 12.5796 -8.9494
200 1 4.71607 1.57084 14.1526 -8.95001
201 1 6.2891 9.72097e-16 12.5796 -8.95103
202 1 7.86202 1.57056 14.1524 -8.95078
203 1 9.43474 9.4178e-16 12.5795 -8.94911
204 1 11.0072 1.57039 14.1524 -8.95105
205 1 12.5798 1.47953e-15 12.5791 -8.95087
206 1 14.1527 1.5708 14.1521 -8.9507
207 1 15.7249 1.34699e-15 12.5793 -8.94951
208 1 17.2972 1.57193 14.1518 -8.94959
209 1 18.8693 1.6205e-15 12.5794 -8.94955
210 1 20.4415 1.57217 14.1519 -8.94953
211 1 22.0133 3.14419 12.5796 -8.94944
212 1 1.57031 4.71586 14.1529 -8.94923
213 1 3.14299 3.14292 12.58 -8.94906
214 1 4.71178 4.71114 14.1564 -8.94409
215 1 6.28755 3.13962 12.5806 -8.95224
216 1 7.86085 4.70913 14.1556 -8.95662
217 1 9.43489 3.1422 12.5801 -8.94725
218 1 11.0081 4.70808 14.156 -8.95561
219 1 12.5804 3.14056 12.5793 -8.95344
220 1 14.1563 4.7099 14.1552 -8.95005
221 1 15.7254 3.14321 12.5792 -8.94945
222 1 17.2986 4.71557 14.1523 -8.94978
223 1 18.8695 3.1442 12.5794 -8.94942
224 1 20.4415 4.71659 14.1521 -8.94967
225 1 -0.00142353 6.28879 12.5799 -8.95005
226 1 1.57023 7.86196 14.1526 -8.95199
227 1 3.13868 6.28606 12.5819 -8.94892
228 1 4.70749 7.85661 14.1586 -8.95169
229 1 6.27399 6.27109 12.5921 -8.93106
230 1 7.836 7.83118 14.188 -8.89457
231 1 9.43579 6.2872 12.5861 -8.9892
232 1 11.0317 7.82832 14.1914 -8.8786
233 1 12.5886 6.27182 12.5862 -8.95661
234 1 14.1742 7.84234 14.1721 -8.92553
235 1 15.729 6.28578 12.5799 -8.94956
236 1 17.3028 7.85966 14.1543 -8.95297
237 1 18.8704 6.28866 12.5795 -8.9497
238 1 20.4424 7.86176 14.1523 -8.95077
239 1 22.0133 9.43463 12.5798 -8.94978
240 1 3.14175 9.43518 12.5796 -8.95185
241 1 6.27794 9.41495 12.5946 -8.89483
242 1 9.4381 9.25054 12.6421 -8.21264
243 1 12.6272 9.37495 12.6416 -8.77658
244 1 15.7365 9.43092 12.5845 -8.95725
245 1 18.8719 9.43425 12.5799 -8.95149
246 1 22.0136 -3.93306e-17 15.7244 -8.94956
247 1 1.57181 1.57201 17.2971 -8.94927
248 1 3.14406 6.18174e-16 15.7248 -8.94954
249 1 4.71647 1.57149 17.2976 -8.94996
250 1 6.28925 5.07184e-16 15.7249 -8.95026
251 1 7.86173 1.57133 17.2977 -8.94933
252 1 9.43451 7.29971e-16 15.7251 -8.95011
253 1 11.0072 1.57128 17.2978 -8.94937
254 1 12.5799 5.50469e-16 15.7249 -8.95033
255 1 14.1526 1.57131 17.2976 -8.94982
256 1 15.7249 1.1097e-15 15.7246 -8.95
257 1 17.2973 1.5718 17.2972 -8.94954
258 1 18.8693 6.37731e-16 15.7243 -8.94964
259 1 20.4415 1.57219 17.2968 -8.94959
260 1 -0.000535645 3.1443 15.7246 -8.94946
261 1 1.57109 4.71641 17.2977 -8.94959
262 1 3.14298 3.14304 15.7257 -8.94827
263 1 4.71361 4.71381 17.3008 -8.94605
264 1 6.28825 3.14151 15.7262 -8.95112
265 1 7.86068 4.71382 17.3003 -8.94752
266 1 9.43436 3.14098 15.7267 -8.94932
267 1 11.0078 4.71355 17.3005 -8.94781
268 1 12.5808 3.1409 15.7262 -8.95069
269 1 14.1554 4.71306 17.3009 -8.94577
270 1 15.7261 3.14236 15.7256 -8.94957
271 1 17.2992 4.71518 17.2987 -8.94771
272 1 18.8696 3.1442 15.7245 -8.9497
273 1 20.4419 4.71673 17.2972 -8.94984
274 1 22.0133 6.28928 15.7249 -8.95057
275 1 1.57192 7.86234 17.2972 -8.94955
276 1 3.14076 6.28753 15.7272 -8.94998
277 1 4.71609 7.86266 17.2985 -8.95201
278 1 6.27927 6.27914 15.7368 -8.93725
279 1 7.85969 7.85893 17.3059 -8.95742
280 1 9.43367 6.27993 15.7348 -8.9414
281 1 11.0081 7.85802 17.3076 -8.95661
282 1 12.5893 6.27722 15.7376 -8.93475
283 1 14.1551 7.85991 17.3029 -8.95275
284 1 15.7323 6.28301 15.7309 -8.94298
285 1 17.2986 7.86157 17.2982 -8.9493
286 1 18.8712 6.28853 15.7254 -8.95042
287 1 20.4419 7.862 17.2972 -8.94943
288 1 22.0138 9.43457 15.7249 -8.94927
289 1 3.14415 9.43535 15.725 -8.94843
290 1 6.29056 9.43813 15.7259 -8.95582
291 1 9.43404 9.42863 15.732 -8.96875
292 1 12.5832 9.43369 15.7394 -8.96232
293 1 15.7287 9.43376 15.7288 -8.94749
294 1 18.8708 9.43434 15.7254 -8.94915
295 1 -0.000187975 2.89942e-16 18.8692 -8.94944
296 1 1.57206 1.57215 20.4417 -8.94923
297 1 3.14438 3.94667e-16 18.8695 -8.94962
298 1 4.71697 1.5721 20.4418 -8.94952
299 1 6.28939 1.18753e-15 18.8696 -8.94941
300 1 7.86197 1.57203 20.4419 -8.94952
301 1 9.43449 1.01266e-15 18.8697 -8.9495
302 1 11.007 1.57202 20.4419 -8.94953
303 1 12.5796 1.34104e-15 18.8697 -8.94943
304 1 14.1521 1.57205 20.4419 -8.94951
305 1 15.7247 1.35191e-15 18.8696 -8.94955
306 1 17.297 1.57211 20.4418 -8.94934
307 1 18.8693 5.94078e-16 18.8693 -8.9495
308 1 20.4416 1.57223 20.4416 -8.94929
309 1 22.0136 3.14448 18.8695 -8.9495
310 1 1.57208 4.71711 20.4417 -8.94989
311 1 3.14369 3.14382 18.8702 -8.94856
312 1 4.71633 4.71642 20.4425 -8.94991
313 1 6.28902 3.14368 18.8703 -8.94917
314 1 7.86164 4.71619 20.4426 -8.94925
315 1 9.43442 3.14355 18.8704 -8.94943
316 1 11.0071 4.71612 20.4427 -8.9493
317 1 12.5799 3.14355 18.8703 -8.94921
318 1 14.1526 4.71619 20.4427 -8.94965
319 1 15.7254 3.14359 18.8703 -8.94859
320 1 17.2974 4.71664 20.4419 -8.94966
321 1 18.8697 3.14422 18.8696 -8.94905
322 1 20.4416 4.71713 20.4416 -8.94967
323 1 22.0138 6.28965 18.8693 -8.94967
324 1 1.57209 7.86206 20.4416 -8.94943
325 1 3.14405 6.28959 18.8699 -8.95043
326 1 4.71675 7.86227 20.4419 -8.94978
327 1 6.28779 6.28799 18.8728 -8.95113
328 1 7.86156 7.86177 20.4433 -8.9517
329 1 9.43406 6.28733 18.8732 -8.94902
330 1 11.0068 7.86151 20.4437 -8.9517
331 1 12.5809 6.28748 18.8733 -8.95057
332 1 14.1526 7.86161 20.4426 -8.95064
333 1 15.7259 6.28848 18.8711 -8.95037
334 1 17.2975 7.86181 20.4418 -8.9493
335 1 18.8697 6.28942 18.8696 -8.94962
336 1 20.4417 7.86202 20.4416 -8.94954
337 1 -0.00011995 9.4345 18.8694 -8.94957
338 1 3.14407 9.43459 18.8697 -8.94908
339 1 6.28911 9.43534 18.8701 -8.94955
7 1 9.43452 1.06284e-15 22.0139 -8.94957
44 1 3.14426 9.43446 22.0136 -8.94953
17 1 3.14432 3.14433 22.0138 -8.94948
19 1 6.28942 3.14427 22.0139 -8.94941
21 1 9.43449 3.14419 22.014 -8.9495
43 1 22.0138 9.43448 22.0137 -8.94957
27 1 18.8694 3.14448 22.0138 -8.94931
39 1 15.7252 6.28884 22.0133 -8.95002
31 1 3.14443 6.28958 22.0136 -8.94991
33 1 6.28906 6.28911 22.0138 -8.95079
3 1 3.14465 1.21327e-15 22.0139 -8.94963
13 1 18.8692 6.63434e-16 22.0139 -8.94932
15 1 22.0138 3.14466 22.0138 -8.94963
23 1 12.5796 3.14422 22.014 -8.9494
49 1 18.8696 9.43443 22.0137 -8.94953
344 1 1.5719 11.007 1.57174 -8.94954
345 1 4.71641 11.007 1.57098 -8.94989
346 1 7.86214 11.007 1.57216 -8.94781
347 1 11.0068 11.007 1.57093 -8.94897
348 1 14.1538 11.007 1.5692 -8.94964
349 1 17.2979 11.007 1.57137 -8.94943
350 1 20.4417 11.007 1.57198 -8.94954
688 3 10.1581 11.007 9.52654 2.23693
352 1 1.57196 14.1519 1.5718 -8.94935
511 1 18.8695 18.8697 9.43442 -8.94949
354 1 4.7167 14.1518 1.57119 -8.95022
355 1 6.28923 12.5792 -0.000255351 -8.94963
356 1 7.8618 14.1522 1.57064 -8.95207
510 1 15.7253 18.8706 9.43418 -8.94918
358 1 11.0066 14.1527 1.57062 -8.95051
509 1 12.5797 18.8711 9.43422 -8.95123
360 1 14.1533 14.1532 1.56941 -8.95126
361 1 15.7254 12.5797 -0.000600787 -8.94938
362 1 17.2978 14.1524 1.57138 -8.94924
538 1 17.2972 20.442 11.0069 -8.94951
364 1 20.4417 14.152 1.57201 -8.94949
508 1 9.43449 18.8699 9.4345 -8.94522
366 1 1.57194 17.297 1.5718 -8.94979
507 1 6.28769 18.8742 9.43432 -8.9521
368 1 4.71633 17.2976 1.57118 -8.94972
506 1 3.14303 18.8711 9.43429 -8.94909
370 1 7.86183 17.2977 1.57153 -8.94918
371 1 9.43427 15.7252 0.000152083 -8.94988
372 1 11.0071 17.2977 1.57166 -8.94929
373 1 12.5796 15.7251 0.00013041 -8.95011
374 1 14.1523 17.2977 1.57168 -8.94988
505 1 22.0133 18.8697 9.43447 -8.94946
376 1 17.2977 17.2977 1.57146 -8.94861
504 1 18.8702 15.7253 9.43441 -8.94948
378 1 20.4417 17.2969 1.57207 -8.94958
534 1 4.71593 20.4431 11.007 -8.9494
380 1 1.57203 20.4418 1.57212 -8.94925
503 1 15.7278 15.7275 9.43355 -8.94697
382 1 4.71704 20.4418 1.57212 -8.94961
502 1 12.5825 15.7319 9.42973 -8.95178
384 1 7.86204 20.4418 1.57212 -8.94952
501 1 9.42859 15.718 9.43827 -9.00489
386 1 11.007 20.4419 1.57213 -8.94954
532 1 20.4414 17.2974 11.007 -8.94952
388 1 14.152 20.4418 1.57222 -8.94949
500 1 6.27559 15.7427 9.43025 -8.95045
390 1 17.297 20.4419 1.57218 -8.94952
499 1 3.13826 15.7285 9.43373 -8.94827
392 1 20.4415 20.4417 1.57225 -8.9494
393 1 1.57084 11.007 4.71547 -8.9493
394 1 4.7143 11.007 4.71223 -8.94605
395 1 7.86537 11.007 4.7194 -8.94504
396 1 11.0094 11.007 4.71321 -8.9853
397 1 14.1607 11.007 4.70723 -8.94292
398 1 17.3004 11.007 4.71487 -8.94919
399 1 20.442 11.007 4.71635 -8.94972
400 1 -0.000275577 12.5795 3.14406 -8.94948
401 1 1.57086 14.1522 4.71575 -8.94933
402 1 3.14356 12.5796 3.14294 -8.94879
403 1 4.71416 14.1532 4.71231 -8.95307
404 1 6.28939 12.5787 3.1424 -8.95147
405 1 7.85863 14.1566 4.70768 -8.95658
406 1 9.43455 12.5798 3.14372 -8.94709
407 1 11.0064 14.1551 4.71019 -8.95213
408 1 12.5819 12.5807 3.13693 -8.9575
409 1 14.1619 14.1614 4.70555 -8.9384
410 1 15.7274 12.5805 3.14139 -8.94805
411 1 17.3003 14.1536 4.71504 -8.95024
412 1 18.8703 12.5797 3.14386 -8.94936
413 1 20.4419 14.1522 4.7165 -8.9498
414 1 22.0136 15.7245 3.1442 -8.94969
415 1 1.57018 17.2985 4.71537 -8.94814
416 1 3.14346 15.7251 3.14288 -8.95046
417 1 4.71347 17.3009 4.71285 -8.94501
418 1 6.28772 15.7265 3.14062 -8.95065
419 1 7.86143 17.2999 4.71467 -8.94843
420 1 9.43424 15.7265 3.14199 -8.94814
421 1 11.0074 17.2994 4.71512 -8.94747
422 1 12.58 15.7263 3.14205 -8.94982
423 1 14.154 17.3005 4.71472 -8.95023
424 1 15.7276 15.7277 3.14115 -8.94627
425 1 17.2981 17.2982 4.71614 -8.94891
426 1 18.8702 15.725 3.14395 -8.94962
427 1 20.4413 17.2973 4.7167 -8.94972
428 1 22.0134 18.8696 3.14426 -8.94915
429 1 1.57176 20.442 4.71674 -8.94948
430 1 3.14368 18.8703 3.14356 -8.94845
431 1 4.71658 20.4425 4.71634 -8.95002
432 1 6.2893 18.8702 3.1438 -8.94949
433 1 7.86208 20.4424 4.71644 -8.94948
434 1 9.43458 18.8702 3.1439 -8.94949
435 1 11.0073 20.4423 4.71651 -8.94944
436 1 12.5796 18.8702 3.14409 -8.94911
437 1 14.1521 20.4423 4.71687 -8.95042
438 1 15.7251 18.8704 3.14397 -8.94964
439 1 17.297 20.4419 4.71699 -8.94959
440 1 18.8694 18.8696 3.14444 -8.94943
441 1 20.4414 20.4417 4.71711 -8.9496
442 1 1.56846 11.007 7.85972 -8.94743
443 1 4.71004 11.007 7.85317 -8.9347
444 1 7.87478 11.007 7.87439 -8.92368
445 1 11.0746 11.007 7.71382 -8.28641
446 1 14.1676 11.007 7.85029 -8.96063
447 1 17.3016 11.007 7.86082 -8.95109
448 1 20.4417 11.007 7.86156 -8.95008
449 1 22.0127 12.5796 6.28857 -8.94943
450 1 1.56676 14.1536 7.86022 -8.95339
451 1 3.14056 12.5798 6.28588 -8.94747
452 1 4.69508 14.1679 7.84635 -8.93669
453 1 6.28498 12.5785 6.28027 -8.96165
454 1 7.82289 14.1902 7.82531 -8.85129
455 1 9.42531 12.5947 6.29156 -8.92098
456 1 11.0155 14.1621 7.84022 -8.90605
457 1 12.6091 12.6023 6.25563 -8.90563
458 1 14.165 14.1633 7.85177 -8.93471
459 1 15.7336 12.5821 6.28447 -8.95386
460 1 17.3006 14.1536 7.86113 -8.95119
461 1 18.8714 12.5798 6.28871 -8.95076
462 1 20.4413 14.1524 7.86176 -8.9508
463 1 22.0121 15.7253 6.28865 -8.95046
464 1 1.57022 17.2984 7.86142 -8.94932
465 1 3.13732 15.7299 6.28387 -8.9451
466 1 4.71216 17.3037 7.85874 -8.94872
467 1 6.27751 15.7374 6.27635 -8.93064
468 1 7.86041 17.305 7.86062 -8.95906
469 1 9.43377 15.7323 6.28454 -8.9453
470 1 11.0053 17.2988 7.86199 -8.95248
471 1 12.5839 15.7329 6.28299 -8.95228
472 1 14.1539 17.3009 7.86041 -8.94975
473 1 15.729 15.7287 6.28625 -8.94633
474 1 17.298 17.2981 7.8617 -8.94923
475 1 18.8703 15.7253 6.28905 -8.95007
476 1 20.4413 17.2974 7.86191 -8.94951
477 1 -0.000597323 18.8697 6.28936 -8.94954
478 1 1.57173 20.442 7.8619 -8.94945
479 1 3.143 18.8714 6.28826 -8.9493
480 1 4.71621 20.4432 7.86148 -8.95026
481 1 6.2885 18.8728 6.28798 -8.95151
482 1 7.86218 20.4432 7.86176 -8.95124
483 1 9.43481 18.8719 6.28829 -8.94996
484 1 11.007 20.4422 7.86192 -8.94942
485 1 12.5795 18.8711 6.28922 -8.95173
486 1 14.1523 20.4424 7.86181 -8.95027
487 1 15.7252 18.8707 6.28903 -8.94953
488 1 17.2971 20.4419 7.86194 -8.94946
489 1 18.8694 18.8696 6.28948 -8.94954
490 1 20.4414 20.4417 7.86202 -8.94954
491 1 22.0116 12.5794 9.43438 -8.95151
492 1 3.13367 12.5807 9.4315 -8.96033
493 1 6.24234 12.6265 9.39198 -8.86894
494 1 9.34394 12.8196 9.44797 -7.97546
495 1 12.5991 12.6084 9.39099 -8.81162
496 1 15.7309 12.5814 9.43178 -8.94975
497 1 18.8709 12.5798 9.43435 -8.94986
498 1 -0.00169003 15.7253 9.43447 -8.9498
513 1 4.71956 11.007 11.0002 -9.00609
514 1 7.60768 11.007 10.9129 -8.00387
531 1 17.2981 17.2981 11.0067 -8.94892
526 1 1.57025 17.2982 11.0073 -8.94916
527 1 4.71222 17.3023 11.0079 -8.94627
389 1 15.7246 18.8696 9.84873e-05 -8.94961
365 1 22.0138 15.7243 -0.000139106 -8.94951
377 1 18.8695 15.7245 -0.000183014 -8.9495
512 1 1.57058 11.007 11.0073 -8.94555
687 3 9.47106 11.007 11.6314 2.16403
686 1 20.4416 20.4417 20.4416 -8.94929
515 1 11.3993 11.007 11.0925 -7.18879
516 1 14.1704 11.007 11.0122 -9.02232
517 1 17.3014 11.007 11.0069 -8.95258
518 1 20.442 11.007 11.0071 -8.94915
519 1 1.56773 14.153 11.0076 -8.9523
520 1 4.69943 14.1596 11.0093 -8.95683
521 1 7.80205 14.1902 11.0346 -8.81476
522 1 11.0451 14.159 11.0161 -8.86815
523 1 14.1632 14.1566 11.0054 -8.95536
524 1 17.3003 14.1533 11.0067 -8.95035
525 1 20.4415 14.1524 11.0071 -8.9504
391 1 18.8694 18.8694 22.0138 -8.94931
385 1 9.43449 18.8697 22.014 -8.9495
528 1 7.8596 17.305 11.0091 -8.95946
529 1 11.0064 17.2987 11.0071 -8.95116
530 1 14.1541 17.3 11.0058 -8.94704
685 1 18.8697 18.8697 18.8696 -8.94905
684 1 17.297 20.4418 20.4418 -8.94934
533 1 1.57167 20.442 11.007 -8.94949
683 1 15.7254 18.8703 18.8703 -8.94859
535 1 7.86215 20.4433 11.0069 -8.95107
536 1 11.0069 20.4424 11.0067 -8.94905
537 1 14.1526 20.4425 11.0066 -8.94938
682 1 14.1521 20.4418 20.4419 -8.94951
539 1 20.4415 20.4418 11.007 -8.94957
540 1 1.57176 11.007 14.1527 -8.94808
541 1 4.71849 11.007 14.1507 -8.94112
542 1 7.87565 11.007 14.1185 -8.92493
543 1 11.0052 11.007 14.1453 -8.97375
544 1 14.1605 11.007 14.162 -8.93719
545 1 17.3009 11.007 14.1543 -8.94774
546 1 20.4424 11.007 14.1526 -8.94953
547 1 22.0133 12.5793 12.5798 -8.94978
548 1 1.57023 14.1519 14.1526 -8.95199
549 1 3.14175 12.5787 12.5796 -8.95185
550 1 4.70749 14.1573 14.1586 -8.95169
551 1 6.27794 12.5989 12.5946 -8.89483
552 1 7.836 14.1827 14.188 -8.89457
553 1 9.4381 12.7634 12.6421 -8.21264
554 1 11.0317 14.1856 14.1914 -8.8786
555 1 12.6272 12.639 12.6416 -8.77658
556 1 14.1742 14.1716 14.1721 -8.92553
557 1 15.7365 12.583 12.5845 -8.95725
558 1 17.3028 14.1542 14.1543 -8.95297
559 1 18.8719 12.5797 12.5799 -8.95149
560 1 20.4424 14.1521 14.1523 -8.95077
561 1 -0.00142353 15.7251 12.5799 -8.95005
562 1 1.57031 17.298 14.1529 -8.94923
563 1 3.13868 15.7278 12.5819 -8.94892
564 1 4.71178 17.3028 14.1564 -8.94409
565 1 6.27399 15.7428 12.5921 -8.93106
566 1 7.86085 17.3048 14.1556 -8.95662
567 1 9.43579 15.7267 12.5861 -8.9892
568 1 11.0081 17.3058 14.156 -8.95561
569 1 12.5886 15.7421 12.5862 -8.95661
570 1 14.1563 17.304 14.1552 -8.95005
571 1 15.729 15.7281 12.5799 -8.94956
572 1 17.2986 17.2983 14.1523 -8.94978
573 1 18.8704 15.7252 12.5795 -8.9497
574 1 20.4415 17.2973 14.1521 -8.94967
575 1 22.0133 18.8697 12.5796 -8.94944
576 1 1.57172 20.442 14.1521 -8.94946
577 1 3.14299 18.871 12.58 -8.94906
578 1 4.71607 20.4431 14.1526 -8.95001
579 1 6.28755 18.8743 12.5806 -8.95224
580 1 7.86202 20.4433 14.1524 -8.95078
581 1 9.43489 18.8717 12.5801 -8.94725
582 1 11.0072 20.4435 14.1524 -8.95105
583 1 12.5804 18.8733 12.5793 -8.95344
584 1 14.1527 20.4431 14.1521 -8.9507
585 1 15.7254 18.8707 12.5792 -8.94945
586 1 17.2972 20.442 14.1518 -8.94959
587 1 18.8695 18.8697 12.5794 -8.94942
588 1 20.4415 20.4417 14.1519 -8.94953
589 1 1.5718 11.007 17.2973 -8.94973
590 1 4.7158 11.007 17.298 -8.94737
591 1 7.86247 11.007 17.2935 -8.93606
592 1 11.0062 11.007 17.2991 -8.94263
593 1 14.1555 11.007 17.3025 -8.94633
594 1 17.2987 11.007 17.2984 -8.94931
595 1 20.4419 11.007 17.2973 -8.9496
596 1 22.0138 12.5793 15.7249 -8.94927
597 1 1.57192 14.1516 17.2972 -8.94955
598 1 3.14415 12.5786 15.725 -8.94843
599 1 4.71609 14.1512 17.2985 -8.95201
600 1 6.29056 12.5758 15.7259 -8.95582
601 1 7.85969 14.155 17.3059 -8.95742
602 1 9.43404 12.5853 15.732 -8.96875
603 1 11.0081 14.1559 17.3076 -8.95661
604 1 12.5832 12.5802 15.7394 -8.96232
605 1 14.1551 14.154 17.3029 -8.95275
606 1 15.7287 12.5801 15.7288 -8.94749
607 1 17.2986 14.1523 17.2982 -8.9493
608 1 18.8708 12.5796 15.7254 -8.94915
609 1 20.4419 14.1519 17.2972 -8.94943
610 1 22.0133 15.7246 15.7249 -8.95057
611 1 1.57109 17.2975 17.2977 -8.94959
612 1 3.14076 15.7264 15.7272 -8.94998
613 1 4.71361 17.3001 17.3008 -8.94605
614 1 6.27927 15.7348 15.7368 -8.93725
615 1 7.86068 17.3001 17.3003 -8.94752
616 1 9.43367 15.734 15.7348 -8.9414
617 1 11.0078 17.3004 17.3005 -8.94781
618 1 12.5893 15.7367 15.7376 -8.93475
619 1 14.1554 17.3008 17.3009 -8.94577
620 1 15.7323 15.7309 15.7309 -8.94298
621 1 17.2992 17.2987 17.2987 -8.94771
622 1 18.8712 15.7254 15.7254 -8.95042
623 1 20.4419 17.2972 17.2972 -8.94984
624 1 -0.000535645 18.8696 15.7246 -8.94946
625 1 1.57181 20.4419 17.2971 -8.94927
626 1 3.14298 18.8709 15.7257 -8.94827
627 1 4.71647 20.4424 17.2976 -8.94996
628 1 6.28825 18.8724 15.7262 -8.95112
629 1 7.86173 20.4426 17.2977 -8.94933
630 1 9.43436 18.8729 15.7267 -8.94932
631 1 11.0072 20.4426 17.2978 -8.94937
632 1 12.5808 18.873 15.7262 -8.95069
633 1 14.1526 20.4426 17.2976 -8.94982
634 1 15.7261 18.8715 15.7256 -8.94957
635 1 17.2973 20.4421 17.2972 -8.94954
636 1 18.8696 18.8697 15.7245 -8.9497
637 1 20.4415 20.4417 17.2968 -8.94959
638 1 1.57203 11.007 20.4416 -8.94958
639 1 4.71645 11.007 20.4418 -8.94965
640 1 7.86149 11.007 20.4418 -8.94716
641 1 11.0068 11.007 20.4426 -8.94822
642 1 14.153 11.007 20.4426 -8.95002
643 1 17.2976 11.007 20.4419 -8.94947
644 1 20.4417 11.007 20.4416 -8.94958
645 1 -0.00011995 12.5794 18.8694 -8.94957
646 1 1.57209 14.1518 20.4416 -8.94943
647 1 3.14407 12.5793 18.8697 -8.94908
648 1 4.71675 14.1516 20.4419 -8.94978
649 1 6.28911 12.5786 18.8701 -8.94955
650 1 7.86156 14.1521 20.4433 -8.9517
651 1 9.43388 12.5791 18.8719 -8.9504
652 1 11.0068 14.1524 20.4437 -8.9517
653 1 12.5801 12.5792 18.8731 -8.95213
654 1 14.1526 14.1523 20.4426 -8.95064
655 1 15.7259 12.5797 18.871 -8.94886
656 1 17.2975 14.1521 20.4418 -8.9493
657 1 18.8698 12.5795 18.8697 -8.94946
658 1 20.4417 14.1519 20.4416 -8.94954
659 1 22.0138 15.7242 18.8693 -8.94967
660 1 1.57208 17.2968 20.4417 -8.94989
661 1 3.14405 15.7243 18.8699 -8.95043
662 1 4.71633 17.2975 20.4425 -8.94991
663 1 6.28779 15.7259 18.8728 -8.95113
664 1 7.86164 17.2977 20.4426 -8.94925
665 1 9.43406 15.7266 18.8732 -8.94902
666 1 11.0071 17.2978 20.4427 -8.9493
667 1 12.5809 15.7264 18.8733 -8.95057
668 1 14.1526 17.2977 20.4427 -8.94965
669 1 15.7259 15.7254 18.8711 -8.95037
670 1 17.2974 17.2973 20.4419 -8.94966
671 1 18.8697 15.7245 18.8696 -8.94962
672 1 20.4416 17.2968 20.4416 -8.94967
673 1 22.0136 18.8694 18.8695 -8.9495
674 1 1.57206 20.4418 20.4417 -8.94923
675 1 3.14369 18.8701 18.8702 -8.94856
676 1 4.71697 20.4418 20.4418 -8.94952
677 1 6.28902 18.8702 18.8703 -8.94917
678 1 7.86197 20.4419 20.4419 -8.94952
679 1 9.43442 18.8704 18.8704 -8.94943
680 1 11.007 20.4419 20.4419 -8.94953
681 1 12.5799 18.8704 18.8703 -8.94921
351 1 22.0138 12.5794 22.0137 -8.94957
353 1 3.14426 12.5794 22.0136 -8.94953
357 1 9.43422 12.5793 22.0141 -8.94916
359 1 12.5797 12.5795 22.0131 -8.95139
383 1 6.28942 18.8696 22.0139 -8.94941
367 1 3.14443 15.7243 22.0136 -8.94991
369 1 6.28906 15.7248 22.0138 -8.95079
375 1 15.7252 15.7251 22.0133 -8.95002
381 1 3.14432 18.8696 22.0138 -8.94948
363 1 18.8696 12.5795 22.0137 -8.94953
379 1 22.0138 18.8692 22.0138 -8.94963
387 1 12.5796 18.8697 22.014 -8.9494
