ITEM: TIMESTEP
86
ITEM: NUMBER OF ATOMS
688
ITEM: BOX BOUNDS pp pp pp
0.0000000000000000e+00 2.2013900999999997e+01
0.0000000000000000e+00 2.2013900999999997e+01
0.0000000000000000e+00 2.2013900999999997e+01
ITEM: ATOMS id type x y z c_pot
1 1 22.0137 8.54418e-16 -7.84062e-06 -8.94909
2 1 1.57183 1.57199 1.57196 -8.94917
189 1 20.4413 4.71619 11.0071 -8.94951
4 1 4.71687 1.57194 1.57198 -8.94955
5 1 6.28947 9.30808e-16 5.49327e-05 -8.9495
6 1 7.862 1.57191 1.57202 -8.94947
175 1 18.8711 9.434 9.4342 -8.94996
8 1 11.0071 1.5719 1.57207 -8.9495
9 1 12.5796 2.71548e-16 9.98975e-05 -8.9495
10 1 14.1521 1.57194 1.57218 -8.94945
174 1 15.7318 9.43214 9.43121 -8.94967
12 1 17.2971 1.57188 1.57211 -8.94949
188 1 17.2984 4.71544 11.0067 -8.9489
14 1 20.4415 1.57212 1.57214 -8.94929
181 1 17.2974 1.57178 11.0068 -8.94948
16 1 1.57174 4.7167 1.57154 -8.94981
173 1 12.6011 9.40368 9.39045 -8.80945
18 1 4.71608 4.716 1.57089 -8.94979
172 1 9.34492 9.18899 9.44591 -7.96701
20 1 7.8617 4.71595 1.57138 -8.94917
171 1 6.24166 9.38566 9.39131 -8.86679
22 1 11.0071 4.71589 1.57156 -8.94925
177 1 4.71559 1.57048 11.0071 -8.94945
24 1 14.1525 4.71589 1.57152 -8.94992
170 1 3.13307 9.43286 9.43093 -8.96022
26 1 17.298 4.71587 1.57128 -8.94865
169 1 22.0114 9.43442 9.43423 -8.95154
28 1 20.4418 4.71677 1.5719 -8.94954
168 1 18.8703 6.28829 9.43432 -8.9495
30 1 1.57181 7.86187 1.57154 -8.94931
167 1 15.7282 6.28592 9.43323 -8.94695
32 1 4.71657 7.86207 1.57093 -8.9503
166 1 12.5831 6.28142 9.42975 -8.95202
34 1 7.86174 7.86158 1.57056 -8.95205
35 1 9.43421 6.28854 0.00024098 -8.94994
36 1 11.0066 7.86115 1.57061 -8.95058
37 1 12.5797 6.28864 0.000206848 -8.95019
38 1 14.1536 7.86046 1.5692 -8.95118
165 1 9.42817 6.29613 9.43864 -9.00606
40 1 17.2982 7.86128 1.57111 -8.94921
164 1 6.27444 6.27004 9.4302 -8.95074
42 1 20.4418 7.8618 1.57181 -8.94944
163 1 3.13722 6.28462 9.4334 -8.94813
162 1 -0.00210018 6.28833 9.43438 -8.94984
45 1 6.28921 9.43476 -0.000318193 -8.94962
161 1 18.8695 3.14394 9.43436 -8.94944
160 1 15.7255 3.14303 9.43405 -8.94918
48 1 15.7257 9.43408 -0.000663796 -8.9494
159 1 12.5797 3.14266 9.43422 -8.95135
50 1 22.0135 4.89725e-16 3.14446 -8.94941
51 1 1.57146 1.57164 4.71646 -8.94944
52 1 3.14418 8.88714e-16 3.1441 -8.9496
53 1 4.71636 1.57109 4.71605 -8.95006
54 1 6.28947 1.15923e-15 3.14415 -8.94946
55 1 7.86204 1.57126 4.71622 -8.94947
56 1 9.43464 7.28912e-16 3.14418 -8.94951
57 1 11.0073 1.57143 4.71636 -8.94941
58 1 12.5797 8.13232e-16 3.14432 -8.94942
59 1 14.1522 1.57148 4.71677 -8.95048
60 1 15.7246 -1.03545e-16 3.14448 -8.95
61 1 17.2972 1.57179 4.71685 -8.94959
62 1 18.8693 6.01728e-16 3.1446 -8.94952
63 1 20.4414 1.57205 4.71697 -8.94956
64 1 22.0132 3.14403 3.14399 -8.94906
65 1 1.56965 4.71494 4.71484 -8.94805
66 1 3.14332 3.14326 3.14316 -8.94837
67 1 4.71284 4.71234 4.71214 -8.94479
68 1 6.28911 3.14337 3.1435 -8.94942
69 1 7.86117 4.71355 4.71426 -8.94826
70 1 9.43458 3.1434 3.1437 -8.94946
71 1 11.0074 4.71423 4.71485 -8.94734
72 1 12.5798 3.1435 3.14393 -8.94908
73 1 14.1543 4.71302 4.71427 -8.95004
74 1 15.7253 3.14315 3.14375 -8.94961
75 1 17.2985 4.71521 4.71576 -8.94884
76 1 18.8695 3.14402 3.14423 -8.94937
77 1 20.4413 4.71627 4.71642 -8.94973
78 1 22.0135 6.28916 3.14389 -8.94966
79 1 1.57048 7.86144 4.71528 -8.94929
80 1 3.1431 6.28854 3.14238 -8.95055
81 1 4.71372 7.86041 4.71169 -8.9532
82 1 6.28745 6.28711 3.14017 -8.95081
83 1 7.85852 7.85703 4.70749 -8.95719
84 1 9.4342 6.28702 3.14175 -8.94822
85 1 11.0065 7.85873 4.71003 -8.95261
86 1 12.5802 6.28737 3.1417 -8.95003
87 1 14.1619 7.85263 4.70534 -8.93972
88 1 15.728 6.28594 3.14079 -8.94657
89 1 17.3006 7.86 4.71457 -8.95013
90 1 18.8704 6.28863 3.14366 -8.94957
91 1 20.442 7.86149 4.71618 -8.94977
92 1 -0.000354945 9.43433 3.14374 -8.94943
93 1 3.14332 9.43425 3.14251 -8.94875
94 1 6.28935 9.43525 3.14229 -8.9516
95 1 9.4344 9.43395 3.14389 -8.94631
96 1 12.5822 9.43308 3.13673 -8.95688
97 1 15.7279 9.4332 3.1409 -8.94814
98 1 18.8706 9.43413 3.14352 -8.94933
99 1 22.0134 1.09576e-15 6.28941 -8.94951
100 1 1.5714 1.57165 7.86175 -8.9494
101 1 3.14382 8.18086e-16 6.28892 -8.94982
102 1 4.71591 1.57042 7.8613 -8.95035
103 1 6.28935 1.38213e-15 6.28892 -8.95059
104 1 7.86213 1.57056 7.86172 -8.95134
105 1 9.43481 1.73843e-15 6.28894 -8.95018
106 1 11.0069 1.57168 7.86191 -8.94946
107 1 12.5795 1.38301e-15 6.2894 -8.95009
108 1 14.1524 1.57132 7.86173 -8.95034
109 1 15.7247 -1.17128e-17 6.28934 -8.94991
110 1 17.2973 1.57181 7.86184 -8.94944
111 1 18.8693 -1.8665e-16 6.28949 -8.94951
112 1 20.4414 1.57202 7.86194 -8.94949
113 1 -0.000871557 3.14388 6.28914 -8.94948
114 1 1.56959 4.715 7.8611 -8.94924
115 1 3.14248 3.14197 6.28783 -8.94928
116 1 4.71129 4.7093 7.85827 -8.94868
117 1 6.28818 3.14059 6.28767 -8.95162
118 1 7.85994 4.70834 7.86049 -8.95932
119 1 9.43472 3.14174 6.28811 -8.94995
120 1 11.0052 4.71495 7.86192 -8.95293
121 1 12.5795 3.14263 6.28908 -8.95176
122 1 14.1541 4.71261 7.86004 -8.94977
123 1 15.7254 3.14284 6.2888 -8.94958
124 1 17.2982 4.71546 7.86147 -8.94918
125 1 18.8695 3.14401 6.28932 -8.9495
126 1 20.4412 4.71621 7.86178 -8.94951
127 1 22.0118 6.28824 6.28831 -8.95053
128 1 1.56604 7.85992 7.8598 -8.95351
129 1 3.13635 6.2832 6.28305 -8.94502
130 1 4.69377 7.84496 7.84541 -8.93666
131 1 6.27644 6.2754 6.27543 -8.93004
132 1 7.8215 7.82236 7.82428 -8.84871
133 1 9.43346 6.28109 6.28413 -8.94462
134 1 11.0164 7.85028 7.83947 -8.90347
135 1 12.5844 6.28071 6.28223 -8.9511
136 1 14.1658 7.84995 7.85053 -8.93475
137 1 15.7296 6.28463 6.28553 -8.94617
138 1 17.3011 7.85994 7.86066 -8.95122
139 1 18.8705 6.28832 6.28875 -8.95011
140 1 20.4412 7.86132 7.86157 -8.95088
141 1 22.0125 9.43418 6.28824 -8.94937
142 1 3.14005 9.43395 6.28528 -8.94742
143 1 6.2847 9.43526 6.28004 -8.96149
144 1 9.42595 9.41989 6.29282 -8.92508
145 1 12.6072 9.41363 6.2566 -8.91178
146 1 15.7339 9.43169 6.28375 -8.95335
147 1 18.8716 9.43395 6.28836 -8.95067
148 1 -0.000492625 1.76915e-15 9.43445 -8.94951
149 1 3.14363 1.57225e-15 9.43431 -8.94944
150 1 6.289 1.51473e-15 9.43437 -8.95101
151 1 9.43479 1.43351e-15 9.43427 -8.9481
152 1 12.5797 1.28568e-15 9.4343 -8.95003
153 1 15.725 9.39729e-16 9.43422 -8.94954
154 1 18.8694 -3.91881e-17 9.43441 -8.94952
155 1 22.013 3.14388 9.43443 -8.94941
156 1 3.14247 3.14227 9.43419 -8.94906
157 1 6.28725 3.13915 9.43434 -8.95222
158 1 9.43434 3.14415 9.43466 -8.94511
183 1 1.56968 4.71523 11.0074 -8.94912
184 1 4.71131 4.71071 11.0081 -8.94619
11 1 15.7245 1.27396e-15 0.000114253 -8.94954
25 1 15.7249 3.14402 0.000142199 -8.94959
29 1 22.0138 6.2895 -0.000233757 -8.94947
41 1 18.8698 6.28924 -0.000246871 -8.94944
176 1 1.57134 1.57169 11.007 -8.94942
343 1 18.8701 9.43436 18.8699 -8.94941
178 1 7.86209 1.57052 11.007 -8.95109
179 1 11.0069 1.57158 11.0067 -8.94894
180 1 14.1527 1.57122 11.0065 -8.94941
342 1 15.7263 9.43404 18.8715 -8.94886
182 1 20.4414 1.572 11.007 -8.94952
47 1 12.5798 9.43434 22.0132 -8.9514
46 1 9.43417 9.43459 22.0141 -8.94898
185 1 7.85901 4.70862 11.0095 -8.95923
186 1 11.0065 4.71538 11.0074 -8.95085
187 1 14.1545 4.71343 11.0059 -8.94693
341 1 12.5801 9.43463 18.8734 -8.95228
340 1 9.43388 9.43473 18.8717 -8.95021
190 1 1.56717 7.8606 11.0075 -8.95246
191 1 4.69814 7.85327 11.0092 -8.95652
192 1 7.80109 7.82359 11.0355 -8.81524
193 1 11.0463 7.85511 11.0174 -8.86844
194 1 14.1645 7.85669 11.0057 -8.95488
195 1 17.3009 7.86035 11.0068 -8.95046
196 1 20.4415 7.86138 11.0072 -8.95049
197 1 -0.00048123 1.27354e-15 12.5795 -8.94951
198 1 1.5714 1.57174 14.1523 -8.94938
199 1 3.14361 9.04297e-16 12.5797 -8.94937
200 1 4.71574 1.57053 14.1529 -8.95009
201 1 6.28897 9.63039e-16 12.5797 -8.95115
202 1 7.86196 1.57039 14.1526 -8.95075
203 1 9.43476 1.20242e-15 12.5795 -8.94906
204 1 11.0073 1.57023 14.1526 -8.95103
205 1 12.5799 1.77608e-15 12.5791 -8.95095
206 1 14.1529 1.57052 14.1523 -8.95086
207 1 15.7251 1.32376e-15 12.5792 -8.94951
208 1 17.2974 1.57173 14.1519 -8.94958
209 1 18.8694 9.72701e-16 12.5794 -8.9495
210 1 20.4414 1.57203 14.152 -8.94948
211 1 22.0131 3.14392 12.5797 -8.94939
212 1 1.56986 4.71549 14.1532 -8.9492
213 1 3.14246 3.14244 12.5803 -8.94898
214 1 4.71106 4.71034 14.1572 -8.94403
215 1 6.28717 3.1391 12.581 -8.9524
216 1 7.86066 4.70877 14.1561 -8.95634
217 1 9.43486 3.1421 12.5804 -8.94746
218 1 11.0083 4.70777 14.1566 -8.95528
219 1 12.5806 3.14026 12.5794 -8.95365
220 1 14.1569 4.70904 14.1559 -8.95007
221 1 15.7257 3.14282 12.5792 -8.94943
222 1 17.299 4.71505 14.1526 -8.94979
223 1 18.8696 3.14394 12.5794 -8.94938
224 1 20.4415 4.71633 14.1523 -8.9497
225 1 -0.00167121 6.28855 12.5801 -8.95011
226 1 1.57003 7.86182 14.1528 -8.95206
227 1 3.13788 6.28544 12.5822 -8.94886
228 1 4.70694 7.85583 14.1592 -8.95077
229 1 6.273 6.27008 12.5929 -8.93121
230 1 7.83709 7.83155 14.187 -8.89844
231 1 9.43576 6.28642 12.5863 -8.98739
232 1 11.0309 7.82874 14.1908 -8.88265
233 1 12.5895 6.27106 12.5871 -8.95665
234 1 14.1753 7.84123 14.1735 -8.92435
235 1 15.7297 6.28511 12.5804 -8.94954
236 1 17.3035 7.85915 14.1549 -8.95288
237 1 18.8707 6.28837 12.5797 -8.94975
238 1 20.4426 7.86163 14.1526 -8.95083
239 1 22.0133 9.43461 12.5799 -8.94986
240 1 3.14135 9.43499 12.5796 -8.95224
241 1 6.2761 9.41365 12.5953 -8.89197
242 1 9.43822 9.25834 12.6392 -8.22529
243 1 12.6296 9.37388 12.643 -8.77424
244 1 15.7377 9.4304 12.5853 -8.95708
245 1 18.8724 9.43413 12.5802 -8.9516
246 1 22.0135 -6.28437e-16 15.7245 -8.9495
247 1 1.57154 1.57185 17.2974 -8.94918
248 1 3.14374 -1.6668e-17 15.7251 -8.94954
249 1 4.71622 1.5713 17.2979 -8.94994
250 1 6.28911 2.557e-16 15.7251 -8.95025
251 1 7.8616 1.57112 17.2981 -8.94931
252 1 9.43451 5.99664e-16 15.7254 -8.95013
253 1 11.0073 1.57104 17.2981 -8.94935
254 1 12.58 7.24476e-16 15.7251 -8.95035
255 1 14.1528 1.57106 17.2979 -8.94981
256 1 15.7252 8.27899e-16 15.7248 -8.95008
257 1 17.2976 1.57157 17.2974 -8.94951
258 1 18.8694 5.7351e-16 15.7244 -8.94962
259 1 20.4415 1.57206 17.297 -8.94955
260 1 -0.000706433 3.14407 15.7248 -8.94944
261 1 1.57083 4.71618 17.2981 -8.94955
262 1 3.1425 3.1426 15.7262 -8.94818
263 1 4.71327 4.7135 17.3012 -8.94625
264 1 6.28799 3.14112 15.7266 -8.95104
265 1 7.86049 4.71339 17.3008 -8.94752
266 1 9.43434 3.14059 15.7272 -8.94931
267 1 11.0079 4.71303 17.3011 -8.94781
268 1 12.581 3.14043 15.7267 -8.95062
269 1 14.1558 4.7125 17.3016 -8.94592
270 1 15.7266 3.14178 15.726 -8.94955
271 1 17.2997 4.71468 17.2991 -8.94759
272 1 18.8699 3.14389 15.7247 -8.94968
273 1 20.442 4.7165 17.2975 -8.94985
274 1 22.0133 6.28912 15.7251 -8.95065
275 1 1.57188 7.86232 17.2973 -8.94953
276 1 3.14033 6.28713 15.7277 -8.9498
277 1 4.71603 7.86259 17.2988 -8.95219
278 1 6.27925 6.27894 15.7372 -8.93801
279 1 7.8598 7.85878 17.3058 -8.95738
280 1 9.43368 6.27957 15.7353 -8.94132
281 1 11.0081 7.85771 17.3078 -8.95651
282 1 12.5894 6.27679 15.7382 -8.93547
283 1 14.1555 7.85945 17.3038 -8.95289
284 1 15.7331 6.28217 15.7318 -8.94264
285 1 17.2991 7.86127 17.2988 -8.94924
286 1 18.8717 6.28818 15.7258 -8.95042
287 1 20.4422 7.86192 17.2974 -8.94939
288 1 22.014 9.43455 15.7251 -8.94921
289 1 3.14418 9.43529 15.725 -8.94823
290 1 6.29089 9.43799 15.7256 -8.95646
291 1 9.43434 9.42889 15.731 -8.96873
292 1 12.5836 9.43334 15.74 -8.96289
293 1 15.7294 9.43342 15.7296 -8.94736
294 1 18.8712 9.43422 15.7257 -8.94909
295 1 -0.000291928 5.67936e-16 18.8694 -8.94933
296 1 1.57189 1.57204 20.4419 -8.94916
297 1 3.14415 -7.07334e-17 18.8698 -8.94959
298 1 4.71678 1.57197 20.442 -8.94945
299 1 6.28922 9.34968e-16 18.8699 -8.94936
300 1 7.86187 1.57188 20.4421 -8.94946
301 1 9.43446 -2.80864e-16 18.87 -8.94946
302 1 11.0071 1.57186 20.4421 -8.94947
303 1 12.5798 1.59107e-15 18.8699 -8.94938
304 1 14.1522 1.5719 20.4421 -8.94944
305 1 15.7249 1.73585e-15 18.8698 -8.94952
306 1 17.2972 1.57196 20.442 -8.94928
307 1 18.8695 1.16104e-15 18.8695 -8.94942
308 1 20.4416 1.57213 20.4417 -8.94917
309 1 22.0136 3.14431 18.8697 -8.94946
310 1 1.57194 4.71701 20.4418 -8.94993
311 1 3.14341 3.1436 18.8705 -8.94858
312 1 4.71609 4.71624 20.4427 -8.94998
313 1 6.28877 3.1434 18.8706 -8.94912
314 1 7.86147 4.71592 20.4429 -8.94924
315 1 9.43436 3.14321 18.8708 -8.94939
316 1 11.0072 4.71582 20.443 -8.94929
317 1 12.5801 3.14319 18.8707 -8.94914
318 1 14.1528 4.71588 20.443 -8.94967
319 1 15.7257 3.14324 18.8707 -8.94859
320 1 17.2977 4.71637 20.442 -8.94965
321 1 18.87 3.14397 18.8698 -8.94896
322 1 20.4418 4.717 20.4416 -8.94964
323 1 22.0138 6.28959 18.8695 -8.94966
324 1 1.57201 7.86205 20.4416 -8.9494
325 1 3.14386 6.28951 18.8701 -8.95053
326 1 4.71666 7.86229 20.4419 -8.94986
327 1 6.28762 6.28782 18.8731 -8.95121
328 1 7.8615 7.86171 20.4434 -8.9517
329 1 9.43397 6.28698 18.8736 -8.94905
330 1 11.0068 7.86138 20.4439 -8.95171
331 1 12.581 6.28713 18.8738 -8.95059
332 1 14.1528 7.86144 20.4428 -8.95074
333 1 15.7263 6.2881 18.8716 -8.95041
334 1 17.2978 7.86165 20.442 -8.94927
335 1 18.87 6.28923 18.8698 -8.94957
336 1 20.4418 7.86195 20.4417 -8.94949
337 1 -6.02935e-05 9.43449 18.8695 -8.94954
338 1 3.14402 9.43462 18.8698 -8.94907
339 1 6.28919 9.43538 18.8699 -8.94959
7 1 9.43451 -3.02933e-16 22.014 -8.94952
44 1 3.14413 9.43446 22.0134 -8.94953
17 1 3.1441 3.14415 22.0138 -8.94947
19 1 6.28926 3.14406 22.014 -8.94936
21 1 9.43446 3.14396 22.014 -8.94946
43 1 22.0138 9.43445 22.0136 -8.94953
27 1 18.8696 3.14429 22.0138 -8.94927
39 1 15.7254 6.28859 22.0133 -8.95005
31 1 3.14428 6.28951 22.0135 -8.94997
33 1 6.28892 6.28899 22.0138 -8.95086
3 1 3.14449 1.04396e-15 22.0139 -8.94957
13 1 18.8693 1.04352e-15 22.0139 -8.94921
15 1 22.0137 3.14453 22.0137 -8.9496
23 1 12.5797 3.14398 22.0141 -8.94934
49 1 18.8698 9.43436 22.0136 -8.94947
344 1 1.57177 11.007 1.57148 -8.9495
345 1 4.7163 11.007 1.57074 -8.9499
346 1 7.86221 11.007 1.57235 -8.94753
347 1 11.0068 11.007 1.57079 -8.94962
348 1 14.1542 11.007 1.56896 -8.94969
349 1 17.2983 11.007 1.5711 -8.94939
350 1 20.4419 11.007 1.57177 -8.94949
688 3 10.149 11.007 9.53719 2.2304
352 1 1.57181 14.152 1.57154 -8.94931
511 1 18.8695 18.87 9.43436 -8.94944
354 1 4.71657 14.1518 1.57093 -8.9503
355 1 6.28921 12.5791 -0.000318193 -8.94962
356 1 7.86174 14.1523 1.57056 -8.95205
510 1 15.7255 18.8709 9.43405 -8.94918
358 1 11.0066 14.1527 1.57061 -8.95058
509 1 12.5797 18.8712 9.43422 -8.95135
360 1 14.1536 14.1534 1.5692 -8.95118
361 1 15.7257 12.5798 -0.000663796 -8.9494
362 1 17.2982 14.1526 1.57111 -8.94921
538 1 17.2974 20.4421 11.0068 -8.94948
364 1 20.4418 14.1521 1.57181 -8.94944
508 1 9.43434 18.8697 9.43466 -8.94511
366 1 1.57174 17.2972 1.57154 -8.94981
507 1 6.28725 18.8747 9.43434 -8.95222
368 1 4.71608 17.2979 1.57089 -8.94979
506 1 3.14247 18.8716 9.43419 -8.94906
370 1 7.8617 17.298 1.57138 -8.94917
371 1 9.43421 15.7254 0.00024098 -8.94994
372 1 11.0071 17.298 1.57156 -8.94925
373 1 12.5797 15.7253 0.000206848 -8.95019
374 1 14.1525 17.298 1.57152 -8.94992
505 1 22.013 18.87 9.43443 -8.94941
376 1 17.298 17.298 1.57128 -8.94865
504 1 18.8703 15.7256 9.43432 -8.9495
378 1 20.4418 17.2971 1.5719 -8.94954
534 1 4.71559 20.4434 11.0071 -8.94945
380 1 1.57183 20.4419 1.57196 -8.94917
503 1 15.7282 15.728 9.43323 -8.94695
382 1 4.71687 20.442 1.57198 -8.94955
502 1 12.5831 15.7325 9.42975 -8.95202
384 1 7.862 20.442 1.57202 -8.94947
501 1 9.42817 15.7178 9.43864 -9.00606
386 1 11.0071 20.442 1.57207 -8.9495
532 1 20.4413 17.2977 11.0071 -8.94951
388 1 14.1521 20.442 1.57218 -8.94945
500 1 6.27444 15.7439 9.4302 -8.95074
390 1 17.2971 20.442 1.57211 -8.94949
499 1 3.13722 15.7293 9.4334 -8.94813
392 1 20.4415 20.4418 1.57214 -8.94929
393 1 1.57054 11.007 4.71501 -8.94927
394 1 4.714 11.007 4.71178 -8.94594
395 1 7.86546 11.007 4.72019 -8.94457
396 1 11.0091 11.007 4.71119 -8.98281
397 1 14.1609 11.007 4.70677 -8.94304
398 1 17.3008 11.007 4.71435 -8.94915
399 1 20.4421 11.007 4.71602 -8.94971
400 1 -0.000354945 12.5796 3.14374 -8.94943
401 1 1.57048 14.1525 4.71528 -8.94929
402 1 3.14332 12.5797 3.14251 -8.94875
403 1 4.71372 14.1535 4.71169 -8.9532
404 1 6.28935 12.5787 3.14229 -8.9516
405 1 7.85852 14.1569 4.70749 -8.95719
406 1 9.4344 12.58 3.14389 -8.94631
407 1 11.0065 14.1552 4.71003 -8.95261
408 1 12.5822 12.5808 3.13673 -8.95688
409 1 14.1619 14.1613 4.70534 -8.93972
410 1 15.7279 12.5807 3.1409 -8.94814
411 1 17.3006 14.1539 4.71457 -8.95013
412 1 18.8706 12.5798 3.14352 -8.94933
413 1 20.442 14.1524 4.71618 -8.94977
414 1 22.0135 15.7247 3.14389 -8.94966
415 1 1.56965 17.299 4.71484 -8.94805
416 1 3.1431 15.7254 3.14238 -8.95055
417 1 4.71284 17.3016 4.71214 -8.94479
418 1 6.28745 15.7268 3.14017 -8.95081
419 1 7.86117 17.3004 4.71426 -8.94826
420 1 9.4342 15.7269 3.14175 -8.94822
421 1 11.0074 17.2997 4.71485 -8.94734
422 1 12.5802 15.7265 3.1417 -8.95003
423 1 14.1543 17.3009 4.71427 -8.95004
424 1 15.728 15.728 3.14079 -8.94657
425 1 17.2985 17.2987 4.71576 -8.94884
426 1 18.8704 15.7253 3.14366 -8.94957
427 1 20.4413 17.2976 4.71642 -8.94973
428 1 22.0132 18.8699 3.14399 -8.94906
429 1 1.57146 20.4423 4.71646 -8.94944
430 1 3.14332 18.8706 3.14316 -8.94837
431 1 4.71636 20.4428 4.71605 -8.95006
432 1 6.28911 18.8705 3.1435 -8.94942
433 1 7.86204 20.4426 4.71622 -8.94947
434 1 9.43458 18.8705 3.1437 -8.94946
435 1 11.0073 20.4425 4.71636 -8.94941
436 1 12.5798 18.8704 3.14393 -8.94908
437 1 14.1522 20.4424 4.71677 -8.95048
438 1 15.7253 18.8707 3.14375 -8.94961
439 1 17.2972 20.4421 4.71685 -8.94959
440 1 18.8695 18.8699 3.14423 -8.94937
441 1 20.4414 20.4418 4.71697 -8.94956
442 1 1.5681 11.007 7.85929 -8.94733
443 1 4.70972 11.007 7.85275 -8.93504
444 1 7.87401 11.007 7.87652 -8.92363
445 1 11.0712 11.007 7.72773 -8.29898
446 1 14.1679 11.007 7.84991 -8.95969
447 1 17.302 11.007 7.86033 -8.9509
448 1 20.4417 11.007 7.86133 -8.95004
449 1 22.0125 12.5797 6.28824 -8.94937
450 1 1.56604 14.154 7.8598 -8.95351
451 1 3.14005 12.5799 6.28528 -8.94742
452 1 4.69377 14.1689 7.84541 -8.93666
453 1 6.2847 12.5786 6.28004 -8.96149
454 1 7.8215 14.1915 7.82428 -8.84871
455 1 9.42595 12.594 6.29282 -8.92508
456 1 11.0164 14.1636 7.83947 -8.90347
457 1 12.6072 12.6003 6.2566 -8.91178
458 1 14.1658 14.1639 7.85053 -8.93475
459 1 15.7339 12.5822 6.28375 -8.95335
460 1 17.3011 14.154 7.86066 -8.95122
461 1 18.8716 12.58 6.28836 -8.95067
462 1 20.4412 14.1526 7.86157 -8.95088
463 1 22.0118 15.7257 6.28831 -8.95053
464 1 1.56959 17.2989 7.8611 -8.94924
465 1 3.13635 15.7307 6.28305 -8.94502
466 1 4.71129 17.3046 7.85827 -8.94868
467 1 6.27644 15.7385 6.27543 -8.93004
468 1 7.85994 17.3056 7.86049 -8.95932
469 1 9.43346 15.7328 6.28413 -8.94462
470 1 11.0052 17.299 7.86192 -8.95293
471 1 12.5844 15.7332 6.28223 -8.9511
472 1 14.1541 17.3013 7.86004 -8.94977
473 1 15.7296 15.7293 6.28553 -8.94617
474 1 17.2982 17.2984 7.86147 -8.94918
475 1 18.8705 15.7256 6.28875 -8.95011
476 1 20.4412 17.2977 7.86178 -8.94951
477 1 -0.000871557 18.87 6.28914 -8.94948
478 1 1.5714 20.4423 7.86175 -8.9494
479 1 3.14248 18.8719 6.28783 -8.94928
480 1 4.71591 20.4435 7.8613 -8.95035
481 1 6.28818 18.8733 6.28767 -8.95162
482 1 7.86213 20.4433 7.86172 -8.95134
483 1 9.43472 18.8722 6.28811 -8.94995
484 1 11.0069 20.4422 7.86191 -8.94946
485 1 12.5795 18.8713 6.28908 -8.95176
486 1 14.1524 20.4426 7.86173 -8.95034
487 1 15.7254 18.8711 6.2888 -8.94958
488 1 17.2973 20.4421 7.86184 -8.94944
489 1 18.8695 18.8699 6.28932 -8.9495
490 1 20.4414 20.4419 7.86194 -8.94949
491 1 22.0114 12.5795 9.43423 -8.95154
492 1 3.13307 12.581 9.43093 -8.96022
493 1 6.24166 12.6282 9.39131 -8.86679
494 1 9.34492 12.8249 9.44591 -7.96701
495 1 12.6011 12.6102 9.39045 -8.80945
496 1 15.7318 12.5818 9.43121 -8.94967
497 1 18.8711 12.5799 9.4342 -8.94996
498 1 -0.00210018 15.7256 9.43438 -8.94984
513 1 4.71895 11.007 10.9995 -9.00751
514 1 7.60044 11.007 10.915 -8.00143
531 1 17.2984 17.2985 11.0067 -8.9489
526 1 1.56968 17.2987 11.0074 -8.94912
527 1 4.71131 17.3032 11.0081 -8.94619
389 1 15.7249 18.8699 0.000142199 -8.94959
365 1 22.0138 15.7244 -0.000233757 -8.94947
377 1 18.8698 15.7247 -0.000246871 -8.94944
512 1 1.5705 11.007 11.0071 -8.9456
687 3 9.47653 11.007 11.6088 2.15668
686 1 20.4416 20.4418 20.4417 -8.94917
515 1 11.4079 11.007 11.0904 -7.18038
516 1 14.1736 11.007 11.0123 -9.02191
517 1 17.3022 11.007 11.007 -8.95323
518 1 20.4422 11.007 11.0071 -8.94918
519 1 1.56717 14.1533 11.0075 -8.95246
520 1 4.69814 14.1606 11.0092 -8.95652
521 1 7.80109 14.1903 11.0355 -8.81524
522 1 11.0463 14.1588 11.0174 -8.86844
523 1 14.1645 14.1572 11.0057 -8.95488
524 1 17.3009 14.1536 11.0068 -8.95046
525 1 20.4415 14.1525 11.0072 -8.95049
391 1 18.8696 18.8696 22.0138 -8.94927
385 1 9.43446 18.8699 22.014 -8.94946
528 1 7.85901 17.3053 11.0095 -8.95923
529 1 11.0065 17.2985 11.0074 -8.95085
530 1 14.1545 17.3005 11.0059 -8.94693
685 1 18.87 18.8699 18.8698 -8.94896
684 1 17.2972 20.4419 20.442 -8.94928
533 1 1.57134 20.4422 11.007 -8.94942
683 1 15.7257 18.8707 18.8707 -8.94859
535 1 7.86209 20.4434 11.007 -8.95109
536 1 11.0069 20.4423 11.0067 -8.94894
537 1 14.1527 20.4427 11.0065 -8.94941
682 1 14.1522 20.442 20.4421 -8.94944
539 1 20.4414 20.4419 11.007 -8.94952
540 1 1.57177 11.007 14.1528 -8.94806
541 1 4.71825 11.007 14.1507 -8.94052
542 1 7.8757 11.007 14.1162 -8.92783
543 1 11.0065 11.007 14.1437 -8.97536
544 1 14.1617 11.007 14.163 -8.93671
545 1 17.3016 11.007 14.1549 -8.94766
546 1 20.4427 11.007 14.1528 -8.94952
547 1 22.0133 12.5793 12.5799 -8.94986
548 1 1.57003 14.1521 14.1528 -8.95206
549 1 3.14135 12.5789 12.5796 -8.95224
550 1 4.70694 14.1581 14.1592 -8.95077
551 1 6.2761 12.6003 12.5953 -8.89197
552 1 7.83709 14.1824 14.187 -8.89844
553 1 9.43822 12.7556 12.6392 -8.22529
554 1 11.0309 14.1852 14.1908 -8.88265
555 1 12.6296 12.64 12.643 -8.77424
556 1 14.1753 14.1727 14.1735 -8.92435
557 1 15.7377 12.5835 12.5853 -8.95708
558 1 17.3035 14.1547 14.1549 -8.95288
559 1 18.8724 12.5798 12.5802 -8.9516
560 1 20.4426 14.1523 14.1526 -8.95083
561 1 -0.00167121 15.7253 12.5801 -8.95011
562 1 1.56986 17.2984 14.1532 -8.9492
563 1 3.13788 15.7285 12.5822 -8.94886
564 1 4.71106 17.3036 14.1572 -8.94403
565 1 6.273 15.7438 12.5929 -8.93121
566 1 7.86066 17.3051 14.1561 -8.95634
567 1 9.43576 15.7275 12.5863 -8.98739
568 1 11.0083 17.3061 14.1566 -8.95528
569 1 12.5895 15.7428 12.5871 -8.95665
570 1 14.1569 17.3049 14.1559 -8.95007
571 1 15.7297 15.7288 12.5804 -8.94954
572 1 17.299 17.2988 14.1526 -8.94979
573 1 18.8707 15.7255 12.5797 -8.94975
574 1 20.4415 17.2976 14.1523 -8.9497
575 1 22.0131 18.87 12.5797 -8.94939
576 1 1.5714 20.4422 14.1523 -8.94938
577 1 3.14246 18.8715 12.5803 -8.94898
578 1 4.71574 20.4434 14.1529 -8.95009
579 1 6.28717 18.8748 12.581 -8.9524
580 1 7.86196 20.4435 14.1526 -8.95075
581 1 9.43486 18.8718 12.5804 -8.94746
582 1 11.0073 20.4437 14.1526 -8.95103
583 1 12.5806 18.8736 12.5794 -8.95365
584 1 14.1529 20.4434 14.1523 -8.95086
585 1 15.7257 18.8711 12.5792 -8.94943
586 1 17.2974 20.4422 14.1519 -8.94958
587 1 18.8696 18.87 12.5794 -8.94938
588 1 20.4414 20.4419 14.152 -8.94948
589 1 1.57186 11.007 17.2974 -8.9497
590 1 4.71594 11.007 17.2979 -8.94747
591 1 7.86273 11.007 17.2928 -8.9355
592 1 11.0062 11.007 17.2988 -8.94217
593 1 14.1559 11.007 17.3032 -8.9464
594 1 17.2991 11.007 17.2989 -8.94925
595 1 20.4422 11.007 17.2975 -8.94955
596 1 22.014 12.5793 15.7251 -8.94921
597 1 1.57188 14.1516 17.2973 -8.94953
598 1 3.14418 12.5786 15.725 -8.94823
599 1 4.71603 14.1513 17.2988 -8.95219
600 1 6.29089 12.5759 15.7256 -8.95646
601 1 7.8598 14.1551 17.3058 -8.95738
602 1 9.43434 12.585 15.731 -8.96873
603 1 11.0081 14.1562 17.3078 -8.95651
604 1 12.5836 12.5806 15.74 -8.96289
605 1 14.1555 14.1544 17.3038 -8.95289
606 1 15.7294 12.5805 15.7296 -8.94736
607 1 17.2991 14.1526 17.2988 -8.94924
608 1 18.8712 12.5797 15.7257 -8.94909
609 1 20.4422 14.152 17.2974 -8.94939
610 1 22.0133 15.7248 15.7251 -8.95065
611 1 1.57083 17.2977 17.2981 -8.94955
612 1 3.14033 15.7268 15.7277 -8.9498
613 1 4.71327 17.3004 17.3012 -8.94625
614 1 6.27925 15.735 15.7372 -8.93801
615 1 7.86049 17.3005 17.3008 -8.94752
616 1 9.43368 15.7343 15.7353 -8.94132
617 1 11.0079 17.3009 17.3011 -8.94781
618 1 12.5894 15.7371 15.7382 -8.93547
619 1 14.1558 17.3014 17.3016 -8.94592
620 1 15.7331 15.7317 15.7318 -8.94264
621 1 17.2997 17.2992 17.2991 -8.94759
622 1 18.8717 15.7257 15.7258 -8.95042
623 1 20.442 17.2974 17.2975 -8.94985
624 1 -0.000706433 18.8698 15.7248 -8.94944
625 1 1.57154 20.442 17.2974 -8.94918
626 1 3.1425 18.8713 15.7262 -8.94818
627 1 4.71622 20.4426 17.2979 -8.94994
628 1 6.28799 18.8728 15.7266 -8.95104
629 1 7.8616 20.4428 17.2981 -8.94931
630 1 9.43434 18.8733 15.7272 -8.94931
631 1 11.0073 20.4429 17.2981 -8.94935
632 1 12.581 18.8735 15.7267 -8.95062
633 1 14.1528 20.4428 17.2979 -8.94981
634 1 15.7266 18.8721 15.726 -8.94955
635 1 17.2976 20.4423 17.2974 -8.94951
636 1 18.8699 18.87 15.7247 -8.94968
637 1 20.4415 20.4418 17.297 -8.94955
638 1 1.57195 11.007 20.4416 -8.94955
639 1 4.71639 11.007 20.4418 -8.94967
640 1 7.8615 11.007 20.4416 -8.94694
641 1 11.0067 11.007 20.4426 -8.94813
642 1 14.1533 11.007 20.4428 -8.95009
643 1 17.2979 11.007 20.442 -8.94944
644 1 20.4418 11.007 20.4417 -8.94953
645 1 -6.02935e-05 12.5794 18.8695 -8.94954
646 1 1.57201 14.1519 20.4416 -8.9494
647 1 3.14402 12.5793 18.8698 -8.94907
648 1 4.71666 14.1516 20.4419 -8.94986
649 1 6.28919 12.5785 18.8699 -8.94959
650 1 7.8615 14.1522 20.4434 -8.9517
651 1 9.43388 12.5792 18.8717 -8.95021
652 1 11.0068 14.1525 20.4439 -8.95171
653 1 12.5801 12.5793 18.8734 -8.95228
654 1 14.1528 14.1525 20.4428 -8.95074
655 1 15.7263 12.5799 18.8715 -8.94886
656 1 17.2978 14.1522 20.442 -8.94927
657 1 18.8701 12.5795 18.8699 -8.94941
658 1 20.4418 14.152 20.4417 -8.94949
659 1 22.0138 15.7243 18.8695 -8.94966
660 1 1.57194 17.2969 20.4418 -8.94993
661 1 3.14386 15.7244 18.8701 -8.95053
662 1 4.71609 17.2977 20.4427 -8.94998
663 1 6.28762 15.7261 18.8731 -8.95121
664 1 7.86147 17.298 20.4429 -8.94924
665 1 9.43397 15.7269 18.8736 -8.94905
666 1 11.0072 17.2981 20.443 -8.94929
667 1 12.581 15.7268 18.8738 -8.95059
668 1 14.1528 17.298 20.443 -8.94967
669 1 15.7263 15.7258 18.8716 -8.95041
670 1 17.2977 17.2975 20.442 -8.94965
671 1 18.87 15.7247 18.8698 -8.94957
672 1 20.4418 17.2969 20.4416 -8.94964
673 1 22.0136 18.8696 18.8697 -8.94946
674 1 1.57189 20.4419 20.4419 -8.94916
675 1 3.14341 18.8703 18.8705 -8.94858
676 1 4.71678 20.4419 20.442 -8.94945
677 1 6.28877 18.8705 18.8706 -8.94912
678 1 7.86187 20.442 20.4421 -8.94946
679 1 9.43436 18.8707 18.8708 -8.94939
680 1 11.0071 20.442 20.4421 -8.94947
681 1 12.5801 18.8707 18.8707 -8.94914
351 1 22.0138 12.5795 22.0136 -8.94953
353 1 3.14413 12.5794 22.0134 -8.94953
357 1 9.43417 12.5793 22.0141 -8.94898
359 1 12.5798 12.5796 22.0132 -8.9514
383 1 6.28926 18.8698 22.014 -8.94936
367 1 3.14428 15.7244 22.0135 -8.94997
369 1 6.28892 15.7249 22.0138 -8.95086
375 1 15.7254 15.7253 22.0133 -8.95005
381 1 3.1441 18.8698 22.0138 -8.94947
363 1 18.8698 12.5795 22.0136 -8.94947
379 1 22.0137 18.8694 22.0137 -8.9496
387 1 12.5797 18.8699 22.0141 -8.94934
