ITEM: TIMESTEP
43
ITEM: NUMBER OF ATOMS
688
ITEM: BOX BOUNDS pp pp pp
0.0000000000000000e+00 2.2013900999999997e+01
0.0000000000000000e+00 2.2013900999999997e+01
0.0000000000000000e+00 2.2013900999999997e+01
ITEM: ATOMS id type x y z c_pot
1 1 22.0139 4.08744e-16 2.42878e-11 -8.94963
2 1 1.57242 1.57242 1.57242 -8.94963
189 1 20.4415 4.71726 11.007 -8.94963
4 1 4.71726 1.57242 1.57242 -8.94963
5 1 6.28969 1.07607e-15 2.51587e-10 -8.94963
6 1 7.86211 1.57242 1.57242 -8.94963
175 1 18.8691 9.43453 9.43453 -8.94971
8 1 11.007 1.57242 1.57242 -8.94963
9 1 12.5794 -2.08065e-16 7.55483e-10 -8.94963
10 1 14.1518 1.57242 1.57242 -8.94963
174 1 15.7246 9.43438 9.43446 -8.95043
12 1 17.2966 1.57242 1.57242 -8.94963
188 1 17.2966 4.71727 11.007 -8.94964
14 1 20.4415 1.57242 1.57242 -8.94963
181 1 17.2966 1.57242 11.007 -8.94963
16 1 1.57242 4.71726 1.57242 -8.94963
173 1 12.5864 9.42751 9.43023 -8.87781
18 1 4.71726 4.71726 1.57242 -8.94963
172 1 9.37792 9.31179 9.43137 -7.96221
20 1 7.86211 4.71726 1.57242 -8.94963
171 1 6.28262 9.42946 9.4298 -8.91784
22 1 11.007 4.71726 1.57242 -8.94963
177 1 4.71726 1.57242 11.007 -8.94964
24 1 14.1518 4.71726 1.57242 -8.94964
170 1 3.14453 9.43443 9.43443 -8.95067
26 1 17.2966 4.71726 1.57242 -8.94963
169 1 22.0139 9.43453 9.43453 -8.94969
28 1 20.4415 4.71726 1.57242 -8.94963
168 1 18.8691 6.28969 9.43453 -8.94963
30 1 1.57242 7.86211 1.57242 -8.94963
167 1 15.7242 6.2897 9.43453 -8.94977
32 1 4.71726 7.86211 1.57242 -8.94964
166 1 12.5794 6.28943 9.43445 -8.95157
34 1 7.8621 7.8621 1.57241 -8.94964
35 1 9.43453 6.28969 2.86686e-07 -8.94963
36 1 11.0069 7.86211 1.57242 -8.94965
37 1 12.5794 6.28969 6.74779e-07 -8.94964
38 1 14.1518 7.8621 1.57241 -8.94962
165 1 9.43443 6.28521 9.4346 -8.97231
40 1 17.2966 7.86211 1.57242 -8.94964
164 1 6.28962 6.28947 9.43446 -8.95211
42 1 20.4415 7.86211 1.57242 -8.94963
163 1 3.14485 6.28969 9.43453 -8.94978
162 1 4.02177e-07 6.28969 9.43453 -8.94963
45 1 6.28969 9.43453 2.71622e-07 -8.94964
161 1 18.8691 3.14484 9.43453 -8.94963
160 1 15.7242 3.14484 9.43453 -8.94963
48 1 15.7242 9.43453 3.94549e-07 -8.94963
159 1 12.5794 3.14483 9.43453 -8.94968
50 1 22.0139 5.17538e-16 3.14484 -8.94963
51 1 1.57242 1.57242 4.71726 -8.94963
52 1 3.14484 4.88838e-16 3.14484 -8.94963
53 1 4.71726 1.57242 4.71726 -8.94963
54 1 6.28969 8.57926e-16 3.14484 -8.94963
55 1 7.86211 1.57242 4.71726 -8.94963
56 1 9.43453 -5.88788e-17 3.14484 -8.94963
57 1 11.007 1.57242 4.71726 -8.94963
58 1 12.5794 2.79288e-16 3.14484 -8.94963
59 1 14.1518 1.57242 4.71726 -8.94963
60 1 15.7242 -1.89798e-16 3.14484 -8.94963
61 1 17.2966 1.57242 4.71726 -8.94963
62 1 18.8691 -4.19705e-16 3.14484 -8.94963
63 1 20.4415 1.57242 4.71726 -8.94963
64 1 22.0139 3.14484 3.14484 -8.94963
65 1 1.57242 4.71726 4.71726 -8.94963
66 1 3.14484 3.14484 3.14484 -8.94963
67 1 4.71726 4.71726 4.71726 -8.94954
68 1 6.28969 3.14484 3.14484 -8.94964
69 1 7.86211 4.71727 4.71727 -8.9498
70 1 9.43453 3.14484 3.14484 -8.94963
71 1 11.0069 4.71727 4.71726 -8.94966
72 1 12.5794 3.14484 3.14484 -8.94963
73 1 14.1518 4.71726 4.71726 -8.94964
74 1 15.7242 3.14484 3.14484 -8.94963
75 1 17.2966 4.71726 4.71726 -8.94964
76 1 18.8691 3.14484 3.14484 -8.94963
77 1 20.4415 4.71726 4.71726 -8.94963
78 1 22.0139 6.28969 3.14484 -8.94963
79 1 1.57242 7.86211 4.71726 -8.94964
80 1 3.14484 6.28969 3.14484 -8.94964
81 1 4.71726 7.8621 4.71726 -8.94972
82 1 6.28968 6.28968 3.14483 -8.94964
83 1 7.86203 7.86203 4.71705 -8.95026
84 1 9.43453 6.28969 3.14485 -8.94965
85 1 11.0069 7.86215 4.71725 -8.95123
86 1 12.5794 6.28969 3.14485 -8.94979
87 1 14.152 7.86189 4.71705 -8.94746
88 1 15.7242 6.28968 3.14484 -8.94954
89 1 17.2966 7.8621 4.71726 -8.94966
90 1 18.8691 6.28969 3.14484 -8.94963
91 1 20.4415 7.86211 4.71726 -8.94963
92 1 4.52644e-09 9.43453 3.14484 -8.94963
93 1 3.14484 9.43453 3.14484 -8.94964
94 1 6.28968 9.43453 3.14483 -8.94974
95 1 9.43444 9.43444 3.14471 -8.94913
96 1 12.5795 9.43443 3.14461 -8.95007
97 1 15.7242 9.43453 3.14485 -8.94977
98 1 18.8691 9.43453 3.14484 -8.94963
99 1 22.0139 7.93634e-16 6.28969 -8.94963
100 1 1.57242 1.57242 7.86211 -8.94963
101 1 3.14484 5.96407e-16 6.28969 -8.94963
102 1 4.71726 1.57242 7.86211 -8.94963
103 1 6.28969 1.70028e-16 6.28969 -8.94963
104 1 7.86211 1.57241 7.86211 -8.94967
105 1 9.43453 -5.58806e-17 6.28969 -8.94963
106 1 11.007 1.57242 7.86211 -8.94964
107 1 12.5794 3.78064e-16 6.28969 -8.94963
108 1 14.1518 1.57242 7.86211 -8.94964
109 1 15.7242 -6.92793e-16 6.28969 -8.94963
110 1 17.2966 1.57242 7.86211 -8.94963
111 1 18.8691 1.49992e-16 6.28969 -8.94963
112 1 20.4415 1.57242 7.86211 -8.94963
113 1 3.21743e-08 3.14484 6.28969 -8.94963
114 1 1.57242 4.71727 7.86211 -8.94964
115 1 3.14484 3.14484 6.28969 -8.94964
116 1 4.71727 4.71726 7.86211 -8.94978
117 1 6.28968 3.14483 6.28968 -8.94963
118 1 7.86201 4.71703 7.86201 -8.95013
119 1 9.43453 3.14484 6.28969 -8.94964
120 1 11.007 4.71714 7.86202 -8.94919
121 1 12.5794 3.14483 6.28968 -8.94964
122 1 14.1518 4.71725 7.86211 -8.9497
123 1 15.7242 3.14484 6.28969 -8.94963
124 1 17.2966 4.71727 7.86211 -8.94965
125 1 18.8691 3.14484 6.28969 -8.94963
126 1 20.4415 4.71726 7.86211 -8.94963
127 1 22.0139 6.28969 6.28969 -8.94963
128 1 1.57241 7.8621 7.8621 -8.94966
129 1 3.14483 6.28968 6.28968 -8.94955
130 1 4.71687 7.86185 7.86184 -8.94821
131 1 6.28947 6.28948 6.28947 -8.9475
132 1 7.85727 7.85747 7.85721 -8.90411
133 1 9.43458 6.28968 6.28974 -8.95131
134 1 11.0086 7.86093 7.86019 -8.93551
135 1 12.5795 6.28948 6.28962 -8.95028
136 1 14.1522 7.86178 7.86183 -8.94719
137 1 15.7242 6.28968 6.28968 -8.94962
138 1 17.2967 7.8621 7.8621 -8.94964
139 1 18.8691 6.28969 6.28969 -8.94963
140 1 20.4415 7.86211 7.86211 -8.94964
141 1 22.0139 9.43453 6.28969 -8.94964
142 1 3.14484 9.43453 6.28969 -8.94979
143 1 6.28945 9.43438 6.28936 -8.94992
144 1 9.43297 9.43273 6.28849 -8.93741
145 1 12.5841 9.42983 6.28505 -8.90745
146 1 15.7244 9.43448 6.28965 -8.95058
147 1 18.8691 9.43453 6.28969 -8.94967
148 1 -6.60169e-10 6.98629e-16 9.43453 -8.94963
149 1 3.14484 7.99041e-16 9.43453 -8.94963
150 1 6.28969 1.85121e-16 9.43453 -8.94963
151 1 9.43453 3.12121e-16 9.43453 -8.94971
152 1 12.5794 2.29072e-16 9.43453 -8.94963
153 1 15.7242 -2.06932e-17 9.43453 -8.94963
154 1 18.8691 3.22086e-16 9.43453 -8.94963
155 1 22.0139 3.14484 9.43453 -8.94963
156 1 3.14484 3.14484 9.43453 -8.94964
157 1 6.28968 3.14483 9.43453 -8.94963
158 1 9.43453 3.14468 9.43453 -8.95083
183 1 1.57242 4.71726 11.007 -8.94963
184 1 4.71727 4.71727 11.007 -8.94979
11 1 15.7242 5.00979e-16 3.87353e-10 -8.94963
25 1 15.7242 3.14484 2.40312e-08 -8.94963
29 1 22.0139 6.28969 1.17861e-09 -8.94963
41 1 18.8691 6.28969 1.6191e-08 -8.94963
176 1 1.57242 1.57242 11.007 -8.94963
343 1 18.8691 9.43453 18.8691 -8.94963
178 1 7.8621 1.57241 11.007 -8.94968
179 1 11.007 1.57241 11.007 -8.94965
180 1 14.1518 1.57242 11.007 -8.94964
342 1 15.7242 9.43453 18.8691 -8.94964
182 1 20.4415 1.57242 11.007 -8.94963
47 1 12.5794 9.43453 22.0139 -8.94967
46 1 9.43453 9.43453 22.0139 -8.94966
185 1 7.86192 4.71691 11.007 -8.94951
186 1 11.0071 4.71702 11.007 -8.94857
187 1 14.1518 4.71726 11.007 -8.94973
341 1 12.5794 9.43452 18.8691 -8.94968
340 1 9.43453 9.43453 18.8691 -8.95029
190 1 1.57242 7.86211 11.007 -8.94968
191 1 4.71707 7.86211 11.0071 -8.95208
192 1 7.85571 7.85667 11.01 -8.89397
193 1 11.0103 7.86015 11.0071 -8.92398
194 1 14.152 7.86196 11.0071 -8.95121
195 1 17.2966 7.8621 11.007 -8.94964
196 1 20.4415 7.86211 11.007 -8.94964
197 1 -1.37355e-09 1.44512e-16 12.5794 -8.94963
198 1 1.57242 1.57242 14.1518 -8.94963
199 1 3.14484 8.41438e-17 12.5794 -8.94963
200 1 4.71726 1.57242 14.1518 -8.94963
201 1 6.28969 -2.30744e-17 12.5794 -8.94963
202 1 7.86211 1.57241 14.1518 -8.94967
203 1 9.43453 -2.9204e-17 12.5794 -8.94971
204 1 11.007 1.57241 14.1518 -8.94967
205 1 12.5794 5.8372e-16 12.5794 -8.94963
206 1 14.1518 1.57242 14.1518 -8.94963
207 1 15.7242 1.70367e-16 12.5794 -8.94963
208 1 17.2966 1.57242 14.1518 -8.94963
209 1 18.8691 1.15182e-16 12.5794 -8.94963
210 1 20.4415 1.57242 14.1518 -8.94963
211 1 22.0139 3.14484 12.5794 -8.94963
212 1 1.57242 4.71726 14.1518 -8.94963
213 1 3.14484 3.14484 12.5794 -8.94964
214 1 4.71726 4.71727 14.1518 -8.9497
215 1 6.28968 3.14483 12.5794 -8.94963
216 1 7.86201 4.71704 14.1519 -8.9502
217 1 9.43453 3.14468 12.5794 -8.95082
218 1 11.007 4.71704 14.1519 -8.95004
219 1 12.5794 3.14484 12.5794 -8.94966
220 1 14.1518 4.71726 14.1518 -8.9498
221 1 15.7242 3.14484 12.5794 -8.94964
222 1 17.2966 4.71726 14.1518 -8.94964
223 1 18.8691 3.14484 12.5794 -8.94963
224 1 20.4415 4.71726 14.1518 -8.94963
225 1 4.47693e-08 6.28969 12.5794 -8.94964
226 1 1.57241 7.8621 14.1518 -8.94964
227 1 3.14484 6.28968 12.5794 -8.94966
228 1 4.71706 7.86203 14.1519 -8.95029
229 1 6.28953 6.28947 12.5795 -8.94906
230 1 7.85736 7.85756 14.1567 -8.90686
231 1 9.43458 6.28517 12.5794 -8.97241
232 1 11.0116 7.85773 14.1564 -8.90702
233 1 12.5794 6.28946 12.5794 -8.95206
234 1 14.1522 7.8618 14.1521 -8.9476
235 1 15.7242 6.28969 12.5794 -8.94972
236 1 17.2967 7.8621 14.1518 -8.94967
237 1 18.8691 6.28969 12.5794 -8.94963
238 1 20.4415 7.86211 14.1518 -8.94964
239 1 22.0139 9.43453 12.5794 -8.94964
240 1 3.14471 9.43444 12.5795 -8.94914
241 1 6.28847 9.43267 12.5811 -8.93541
242 1 9.43388 9.31494 12.6361 -8.03016
243 1 12.5856 9.42724 12.5864 -8.87695
244 1 15.7245 9.43441 12.5795 -8.95049
245 1 18.8691 9.43453 12.5794 -8.94968
246 1 22.0139 1.06777e-16 15.7242 -8.94963
247 1 1.57242 1.57242 17.2966 -8.94963
248 1 3.14484 -9.71671e-17 15.7242 -8.94963
249 1 4.71726 1.57242 17.2966 -8.94963
250 1 6.28969 -6.14671e-16 15.7242 -8.94963
251 1 7.86211 1.57242 17.2966 -8.94963
252 1 9.43453 -4.00924e-17 15.7242 -8.94963
253 1 11.007 1.57242 17.2966 -8.94963
254 1 12.5794 5.81017e-17 15.7242 -8.94963
255 1 14.1518 1.57242 17.2966 -8.94963
256 1 15.7242 3.04799e-17 15.7242 -8.94963
257 1 17.2966 1.57242 17.2966 -8.94963
258 1 18.8691 3.00165e-16 15.7242 -8.94963
259 1 20.4415 1.57242 17.2966 -8.94963
260 1 1.20491e-08 3.14484 15.7242 -8.94963
261 1 1.57242 4.71726 17.2966 -8.94963
262 1 3.14484 3.14484 15.7242 -8.94964
263 1 4.71726 4.71726 17.2966 -8.94954
264 1 6.28968 3.14483 15.7242 -8.94963
265 1 7.86211 4.71727 17.2966 -8.94978
266 1 9.43453 3.14484 15.7242 -8.94963
267 1 11.0069 4.71727 17.2966 -8.94977
268 1 12.5794 3.14483 15.7242 -8.94962
269 1 14.1518 4.71726 17.2966 -8.94955
270 1 15.7242 3.14484 15.7242 -8.94964
271 1 17.2966 4.71726 17.2966 -8.94963
272 1 18.8691 3.14484 15.7242 -8.94963
273 1 20.4415 4.71726 17.2966 -8.94963
274 1 22.0139 6.28969 15.7242 -8.94963
275 1 1.57242 7.86211 17.2966 -8.94963
276 1 3.14483 6.28968 15.7242 -8.94964
277 1 4.71726 7.8621 17.2966 -8.94971
278 1 6.28947 6.28947 15.7244 -8.94744
279 1 7.86205 7.86205 17.2968 -8.95043
280 1 9.43453 6.28968 15.7242 -8.95149
281 1 11.007 7.86206 17.2968 -8.95042
282 1 12.5796 6.28949 15.7244 -8.94765
283 1 14.1518 7.8621 17.2966 -8.94971
284 1 15.7242 6.28967 15.7242 -8.94953
285 1 17.2966 7.86211 17.2966 -8.94964
286 1 18.8691 6.28969 15.7242 -8.94963
287 1 20.4415 7.86211 17.2966 -8.94963
288 1 22.0139 9.43453 15.7242 -8.94964
289 1 3.14484 9.43453 15.7242 -8.94971
290 1 6.28955 9.43444 15.7244 -8.94921
291 1 9.43445 9.43409 15.727 -8.96086
292 1 12.5796 9.43435 15.7246 -8.94979
293 1 15.7242 9.43453 15.7242 -8.94981
294 1 18.8691 9.43453 15.7242 -8.94964
295 1 4.86912e-10 1.09023e-16 18.8691 -8.94963
296 1 1.57242 1.57242 20.4415 -8.94963
297 1 3.14484 7.95621e-16 18.8691 -8.94963
298 1 4.71726 1.57242 20.4415 -8.94963
299 1 6.28969 3.27331e-16 18.8691 -8.94963
300 1 7.86211 1.57242 20.4415 -8.94963
301 1 9.43453 -3.19982e-17 18.8691 -8.94963
302 1 11.007 1.57242 20.4415 -8.94963
303 1 12.5794 2.17187e-16 18.8691 -8.94963
304 1 14.1518 1.57242 20.4415 -8.94963
305 1 15.7242 -1.04567e-17 18.8691 -8.94963
306 1 17.2966 1.57242 20.4415 -8.94963
307 1 18.8691 2.06302e-16 18.8691 -8.94963
308 1 20.4415 1.57242 20.4415 -8.94963
309 1 22.0139 3.14484 18.8691 -8.94963
310 1 1.57242 4.71726 20.4415 -8.94963
311 1 3.14484 3.14484 18.8691 -8.94963
312 1 4.71726 4.71726 20.4415 -8.94963
313 1 6.28969 3.14484 18.8691 -8.94964
314 1 7.86211 4.71726 20.4415 -8.94963
315 1 9.43453 3.14484 18.8691 -8.94964
316 1 11.007 4.71726 20.4415 -8.94963
317 1 12.5794 3.14484 18.8691 -8.94964
318 1 14.1518 4.71726 20.4415 -8.94963
319 1 15.7242 3.14484 18.8691 -8.94963
320 1 17.2966 4.71726 20.4415 -8.94963
321 1 18.8691 3.14484 18.8691 -8.94963
322 1 20.4415 4.71726 20.4415 -8.94963
323 1 22.0139 6.28969 18.8691 -8.94963
324 1 1.57242 7.86211 20.4415 -8.94963
325 1 3.14484 6.28969 18.8691 -8.94964
326 1 4.71726 7.86211 20.4415 -8.94963
327 1 6.28968 6.28968 18.8691 -8.94965
328 1 7.86211 7.86211 20.4415 -8.94967
329 1 9.43453 6.28969 18.8691 -8.94962
330 1 11.007 7.86211 20.4415 -8.94967
331 1 12.5794 6.28968 18.8691 -8.94965
332 1 14.1518 7.86211 20.4415 -8.94963
333 1 15.7242 6.28969 18.8691 -8.94964
334 1 17.2966 7.86211 20.4415 -8.94963
335 1 18.8691 6.28969 18.8691 -8.94963
336 1 20.4415 7.86211 20.4415 -8.94963
337 1 1.5459e-08 9.43453 18.8691 -8.94963
338 1 3.14484 9.43453 18.8691 -8.94964
339 1 6.28968 9.43453 18.8691 -8.94965
7 1 9.43453 7.52914e-16 22.0139 -8.94963
44 1 3.14484 9.43453 22.0139 -8.94963
17 1 3.14484 3.14484 22.0139 -8.94963
19 1 6.28969 3.14484 22.0139 -8.94963
21 1 9.43453 3.14484 22.0139 -8.94963
43 1 22.0139 9.43453 22.0139 -8.94963
27 1 18.8691 3.14484 22.0139 -8.94963
39 1 15.7242 6.28969 22.0139 -8.94963
31 1 3.14484 6.28969 22.0139 -8.94963
33 1 6.28969 6.28969 22.0139 -8.94963
3 1 3.14484 1.08737e-15 22.0139 -8.94963
13 1 18.8691 1.23852e-17 22.0139 -8.94963
15 1 22.0139 3.14484 22.0139 -8.94963
23 1 12.5794 3.14484 22.0139 -8.94963
49 1 18.8691 9.43453 22.0139 -8.94963
344 1 1.57242 11.007 1.57242 -8.94963
345 1 4.71726 11.007 1.57242 -8.94963
346 1 7.86211 11.007 1.57242 -8.9497
347 1 11.0069 11.007 1.57226 -8.95083
348 1 14.1518 11.007 1.57242 -8.94963
349 1 17.2966 11.007 1.57242 -8.94964
350 1 20.4415 11.007 1.57242 -8.94963
688 3 10.2144 11.007 9.44094 3.20382
352 1 1.57242 14.1518 1.57242 -8.94963
511 1 18.8691 18.8691 9.43453 -8.94963
354 1 4.71726 14.1518 1.57242 -8.94964
355 1 6.28969 12.5794 2.71622e-07 -8.94964
356 1 7.8621 14.1518 1.57241 -8.94964
510 1 15.7242 18.8691 9.43453 -8.94963
358 1 11.0069 14.1518 1.57242 -8.94965
509 1 12.5794 18.8691 9.43453 -8.94968
360 1 14.1518 14.1518 1.57241 -8.94962
361 1 15.7242 12.5794 3.94549e-07 -8.94963
362 1 17.2966 14.1518 1.57242 -8.94964
538 1 17.2966 20.4415 11.007 -8.94963
364 1 20.4415 14.1518 1.57242 -8.94963
508 1 9.43453 18.8692 9.43453 -8.95083
366 1 1.57242 17.2966 1.57242 -8.94963
507 1 6.28968 18.8691 9.43453 -8.94963
368 1 4.71726 17.2966 1.57242 -8.94963
506 1 3.14484 18.8691 9.43453 -8.94964
370 1 7.86211 17.2966 1.57242 -8.94963
371 1 9.43453 15.7242 2.86686e-07 -8.94963
372 1 11.007 17.2966 1.57242 -8.94963
373 1 12.5794 15.7242 6.74779e-07 -8.94964
374 1 14.1518 17.2966 1.57242 -8.94964
505 1 22.0139 18.8691 9.43453 -8.94963
376 1 17.2966 17.2966 1.57242 -8.94963
504 1 18.8691 15.7242 9.43453 -8.94963
378 1 20.4415 17.2966 1.57242 -8.94963
534 1 4.71726 20.4415 11.007 -8.94964
380 1 1.57242 20.4415 1.57242 -8.94963
503 1 15.7242 15.7242 9.43453 -8.94977
382 1 4.71726 20.4415 1.57242 -8.94963
502 1 12.5794 15.7245 9.43445 -8.95157
384 1 7.86211 20.4415 1.57242 -8.94963
501 1 9.43443 15.7287 9.4346 -8.97231
386 1 11.007 20.4415 1.57242 -8.94963
532 1 20.4415 17.2966 11.007 -8.94963
388 1 14.1518 20.4415 1.57242 -8.94963
500 1 6.28962 15.7244 9.43446 -8.95211
390 1 17.2966 20.4415 1.57242 -8.94963
499 1 3.14485 15.7242 9.43453 -8.94978
392 1 20.4415 20.4415 1.57242 -8.94963
393 1 1.57242 11.007 4.71726 -8.94963
394 1 4.71727 11.007 4.71727 -8.94964
395 1 7.86217 11.007 4.71712 -8.95174
396 1 11.007 11.007 4.71267 -8.97105
397 1 14.1518 11.007 4.71726 -8.95138
398 1 17.2966 11.007 4.71726 -8.94962
399 1 20.4415 11.007 4.71726 -8.94963
400 1 4.52644e-09 12.5794 3.14484 -8.94963
401 1 1.57242 14.1518 4.71726 -8.94964
402 1 3.14484 12.5794 3.14484 -8.94964
403 1 4.71726 14.1518 4.71726 -8.94972
404 1 6.28968 12.5794 3.14483 -8.94974
405 1 7.86203 14.1519 4.71705 -8.95026
406 1 9.43444 12.5795 3.14471 -8.94913
407 1 11.0069 14.1517 4.71725 -8.95123
408 1 12.5795 12.5795 3.14461 -8.95007
409 1 14.152 14.152 4.71705 -8.94746
410 1 15.7242 12.5794 3.14485 -8.94977
411 1 17.2966 14.1518 4.71726 -8.94966
412 1 18.8691 12.5794 3.14484 -8.94963
413 1 20.4415 14.1518 4.71726 -8.94963
414 1 22.0139 15.7242 3.14484 -8.94963
415 1 1.57242 17.2966 4.71726 -8.94963
416 1 3.14484 15.7242 3.14484 -8.94964
417 1 4.71726 17.2966 4.71726 -8.94954
418 1 6.28968 15.7242 3.14483 -8.94964
419 1 7.86211 17.2966 4.71727 -8.9498
420 1 9.43453 15.7242 3.14485 -8.94965
421 1 11.0069 17.2966 4.71726 -8.94966
422 1 12.5794 15.7242 3.14485 -8.94979
423 1 14.1518 17.2966 4.71726 -8.94964
424 1 15.7242 15.7242 3.14484 -8.94954
425 1 17.2966 17.2966 4.71726 -8.94964
426 1 18.8691 15.7242 3.14484 -8.94963
427 1 20.4415 17.2966 4.71726 -8.94963
428 1 22.0139 18.8691 3.14484 -8.94963
429 1 1.57242 20.4415 4.71726 -8.94963
430 1 3.14484 18.8691 3.14484 -8.94963
431 1 4.71726 20.4415 4.71726 -8.94963
432 1 6.28969 18.8691 3.14484 -8.94964
433 1 7.86211 20.4415 4.71726 -8.94963
434 1 9.43453 18.8691 3.14484 -8.94963
435 1 11.007 20.4415 4.71726 -8.94963
436 1 12.5794 18.8691 3.14484 -8.94963
437 1 14.1518 20.4415 4.71726 -8.94963
438 1 15.7242 18.8691 3.14484 -8.94963
439 1 17.2966 20.4415 4.71726 -8.94963
440 1 18.8691 18.8691 3.14484 -8.94963
441 1 20.4415 20.4415 4.71726 -8.94963
442 1 1.57241 11.007 7.86211 -8.94966
443 1 4.71704 11.007 7.86203 -8.95169
444 1 7.8584 11.007 7.85658 -8.92288
445 1 11.0632 11.007 7.7435 -8.0593
446 1 14.1543 11.007 7.8619 -8.96309
447 1 17.2967 11.007 7.86211 -8.95021
448 1 20.4415 11.007 7.86211 -8.94965
449 1 22.0139 12.5794 6.28969 -8.94964
450 1 1.57241 14.1518 7.8621 -8.94966
451 1 3.14484 12.5794 6.28969 -8.94979
452 1 4.71687 14.1521 7.86184 -8.94821
453 1 6.28945 12.5795 6.28936 -8.94992
454 1 7.85727 14.1564 7.85721 -8.90411
455 1 9.43297 12.5812 6.28849 -8.93741
456 1 11.0086 14.153 7.86019 -8.93551
457 1 12.5841 12.5841 6.28505 -8.90745
458 1 14.1522 14.1521 7.86183 -8.94719
459 1 15.7244 12.5794 6.28965 -8.95058
460 1 17.2967 14.1518 7.8621 -8.94964
461 1 18.8691 12.5794 6.28969 -8.94967
462 1 20.4415 14.1518 7.86211 -8.94964
463 1 22.0139 15.7242 6.28969 -8.94963
464 1 1.57242 17.2966 7.86211 -8.94964
465 1 3.14483 15.7242 6.28968 -8.94955
466 1 4.71727 17.2966 7.86211 -8.94978
467 1 6.28947 15.7244 6.28947 -8.9475
468 1 7.86201 17.2969 7.86201 -8.95013
469 1 9.43458 15.7242 6.28974 -8.95131
470 1 11.007 17.2968 7.86202 -8.94919
471 1 12.5795 15.7244 6.28962 -8.95028
472 1 14.1518 17.2966 7.86211 -8.9497
473 1 15.7242 15.7242 6.28968 -8.94962
474 1 17.2966 17.2966 7.86211 -8.94965
475 1 18.8691 15.7242 6.28969 -8.94963
476 1 20.4415 17.2966 7.86211 -8.94963
477 1 3.21743e-08 18.8691 6.28969 -8.94963
478 1 1.57242 20.4415 7.86211 -8.94963
479 1 3.14484 18.8691 6.28969 -8.94964
480 1 4.71726 20.4415 7.86211 -8.94963
481 1 6.28968 18.8691 6.28968 -8.94963
482 1 7.86211 20.4415 7.86211 -8.94967
483 1 9.43453 18.8691 6.28969 -8.94964
484 1 11.007 20.4415 7.86211 -8.94964
485 1 12.5794 18.8691 6.28968 -8.94964
486 1 14.1518 20.4415 7.86211 -8.94964
487 1 15.7242 18.8691 6.28969 -8.94963
488 1 17.2966 20.4415 7.86211 -8.94963
489 1 18.8691 18.8691 6.28969 -8.94963
490 1 20.4415 20.4415 7.86211 -8.94963
491 1 22.0139 12.5794 9.43453 -8.94969
492 1 3.14453 12.5795 9.43443 -8.95067
493 1 6.28262 12.5844 9.4298 -8.91784
494 1 9.37792 12.7021 9.43137 -7.96221
495 1 12.5864 12.5864 9.43023 -8.87781
496 1 15.7246 12.5795 9.43446 -8.95043
497 1 18.8691 12.5794 9.43453 -8.94971
498 1 4.02177e-07 15.7242 9.43453 -8.94963
513 1 4.71264 11.007 11.0069 -8.97116
514 1 7.73742 11.007 10.9529 -7.95965
531 1 17.2966 17.2966 11.007 -8.94964
526 1 1.57242 17.2966 11.007 -8.94963
527 1 4.71727 17.2966 11.007 -8.94979
389 1 15.7242 18.8691 2.40312e-08 -8.94963
365 1 22.0139 15.7242 1.17861e-09 -8.94963
377 1 18.8691 15.7242 1.6191e-08 -8.94963
512 1 1.57225 11.007 11.007 -8.95082
687 3 9.43426 11.007 11.783 3.19429
686 1 20.4415 20.4415 20.4415 -8.94963
515 1 11.1939 11.007 11.0693 -7.11892
516 1 14.156 11.007 11.0072 -8.98115
517 1 17.2968 11.007 11.007 -8.95067
518 1 20.4415 11.007 11.007 -8.94972
519 1 1.57242 14.1518 11.007 -8.94968
520 1 4.71707 14.1518 11.0071 -8.95208
521 1 7.85571 14.1572 11.01 -8.89397
522 1 11.0103 14.1538 11.0071 -8.92398
523 1 14.152 14.1519 11.0071 -8.95121
524 1 17.2966 14.1518 11.007 -8.94964
525 1 20.4415 14.1518 11.007 -8.94964
391 1 18.8691 18.8691 22.0139 -8.94963
385 1 9.43453 18.8691 22.0139 -8.94963
528 1 7.86192 17.297 11.007 -8.94951
529 1 11.0071 17.2969 11.007 -8.94857
530 1 14.1518 17.2966 11.007 -8.94973
685 1 18.8691 18.8691 18.8691 -8.94963
684 1 17.2966 20.4415 20.4415 -8.94963
533 1 1.57242 20.4415 11.007 -8.94963
683 1 15.7242 18.8691 18.8691 -8.94963
535 1 7.8621 20.4415 11.007 -8.94968
536 1 11.007 20.4415 11.007 -8.94965
537 1 14.1518 20.4415 11.007 -8.94964
682 1 14.1518 20.4415 20.4415 -8.94963
539 1 20.4415 20.4415 11.007 -8.94963
540 1 1.57242 11.007 14.1518 -8.94967
541 1 4.71721 11.007 14.1517 -8.95122
542 1 7.8592 11.007 14.155 -8.91251
543 1 11.0099 11.007 14.1595 -8.94481
544 1 14.152 11.007 14.1519 -8.95309
545 1 17.2966 11.007 14.1518 -8.94965
546 1 20.4415 11.007 14.1518 -8.94963
547 1 22.0139 12.5794 12.5794 -8.94964
548 1 1.57241 14.1518 14.1518 -8.94964
549 1 3.14471 12.5795 12.5795 -8.94914
550 1 4.71706 14.1519 14.1519 -8.95029
551 1 6.28847 12.5812 12.5811 -8.93541
552 1 7.85736 14.1563 14.1567 -8.90686
553 1 9.43388 12.699 12.6361 -8.03016
554 1 11.0116 14.1562 14.1564 -8.90702
555 1 12.5856 12.5867 12.5864 -8.87695
556 1 14.1522 14.1521 14.1521 -8.9476
557 1 15.7245 12.5795 12.5795 -8.95049
558 1 17.2967 14.1518 14.1518 -8.94967
559 1 18.8691 12.5794 12.5794 -8.94968
560 1 20.4415 14.1518 14.1518 -8.94964
561 1 4.47693e-08 15.7242 12.5794 -8.94964
562 1 1.57242 17.2966 14.1518 -8.94963
563 1 3.14484 15.7242 12.5794 -8.94966
564 1 4.71726 17.2966 14.1518 -8.9497
565 1 6.28953 15.7244 12.5795 -8.94906
566 1 7.86201 17.2969 14.1519 -8.9502
567 1 9.43458 15.7287 12.5794 -8.97241
568 1 11.007 17.2969 14.1519 -8.95004
569 1 12.5794 15.7244 12.5794 -8.95206
570 1 14.1518 17.2966 14.1518 -8.9498
571 1 15.7242 15.7242 12.5794 -8.94972
572 1 17.2966 17.2966 14.1518 -8.94964
573 1 18.8691 15.7242 12.5794 -8.94963
574 1 20.4415 17.2966 14.1518 -8.94963
575 1 22.0139 18.8691 12.5794 -8.94963
576 1 1.57242 20.4415 14.1518 -8.94963
577 1 3.14484 18.8691 12.5794 -8.94964
578 1 4.71726 20.4415 14.1518 -8.94963
579 1 6.28968 18.8691 12.5794 -8.94963
580 1 7.86211 20.4415 14.1518 -8.94967
581 1 9.43453 18.8692 12.5794 -8.95082
582 1 11.007 20.4415 14.1518 -8.94967
583 1 12.5794 18.8691 12.5794 -8.94966
584 1 14.1518 20.4415 14.1518 -8.94963
585 1 15.7242 18.8691 12.5794 -8.94964
586 1 17.2966 20.4415 14.1518 -8.94963
587 1 18.8691 18.8691 12.5794 -8.94963
588 1 20.4415 20.4415 14.1518 -8.94963
589 1 1.57242 11.007 17.2966 -8.94963
590 1 4.71727 11.007 17.2966 -8.94965
591 1 7.86203 11.007 17.2969 -8.94977
592 1 11.007 11.007 17.297 -8.95086
593 1 14.1518 11.007 17.2966 -8.94968
594 1 17.2966 11.007 17.2966 -8.94963
595 1 20.4415 11.007 17.2966 -8.94963
596 1 22.0139 12.5794 15.7242 -8.94964
597 1 1.57242 14.1518 17.2966 -8.94963
598 1 3.14484 12.5794 15.7242 -8.94971
599 1 4.71726 14.1518 17.2966 -8.94971
600 1 6.28955 12.5795 15.7244 -8.94921
601 1 7.86205 14.1518 17.2968 -8.95043
602 1 9.43445 12.5798 15.727 -8.96086
603 1 11.007 14.1518 17.2968 -8.95042
604 1 12.5796 12.5795 15.7246 -8.94979
605 1 14.1518 14.1518 17.2966 -8.94971
606 1 15.7242 12.5794 15.7242 -8.94981
607 1 17.2966 14.1518 17.2966 -8.94964
608 1 18.8691 12.5794 15.7242 -8.94964
609 1 20.4415 14.1518 17.2966 -8.94963
610 1 22.0139 15.7242 15.7242 -8.94963
611 1 1.57242 17.2966 17.2966 -8.94963
612 1 3.14483 15.7242 15.7242 -8.94964
613 1 4.71726 17.2966 17.2966 -8.94954
614 1 6.28947 15.7244 15.7244 -8.94744
615 1 7.86211 17.2966 17.2966 -8.94978
616 1 9.43453 15.7242 15.7242 -8.95149
617 1 11.0069 17.2966 17.2966 -8.94977
618 1 12.5796 15.7244 15.7244 -8.94765
619 1 14.1518 17.2966 17.2966 -8.94955
620 1 15.7242 15.7242 15.7242 -8.94953
621 1 17.2966 17.2966 17.2966 -8.94963
622 1 18.8691 15.7242 15.7242 -8.94963
623 1 20.4415 17.2966 17.2966 -8.94963
624 1 1.20491e-08 18.8691 15.7242 -8.94963
625 1 1.57242 20.4415 17.2966 -8.94963
626 1 3.14484 18.8691 15.7242 -8.94964
627 1 4.71726 20.4415 17.2966 -8.94963
628 1 6.28968 18.8691 15.7242 -8.94963
629 1 7.86211 20.4415 17.2966 -8.94963
630 1 9.43453 18.8691 15.7242 -8.94963
631 1 11.007 20.4415 17.2966 -8.94963
632 1 12.5794 18.8691 15.7242 -8.94962
633 1 14.1518 20.4415 17.2966 -8.94963
634 1 15.7242 18.8691 15.7242 -8.94964
635 1 17.2966 20.4415 17.2966 -8.94963
636 1 18.8691 18.8691 15.7242 -8.94963
637 1 20.4415 20.4415 17.2966 -8.94963
638 1 1.57242 11.007 20.4415 -8.94963
639 1 4.71726 11.007 20.4415 -8.94963
640 1 7.86211 11.007 20.4415 -8.94967
641 1 11.007 11.007 20.4415 -8.94975
642 1 14.1518 11.007 20.4415 -8.94963
643 1 17.2966 11.007 20.4415 -8.94963
644 1 20.4415 11.007 20.4415 -8.94963
645 1 1.5459e-08 12.5794 18.8691 -8.94963
646 1 1.57242 14.1518 20.4415 -8.94963
647 1 3.14484 12.5794 18.8691 -8.94964
648 1 4.71726 14.1518 20.4415 -8.94963
649 1 6.28968 12.5794 18.8691 -8.94965
650 1 7.86211 14.1518 20.4415 -8.94967
651 1 9.43453 12.5794 18.8691 -8.95029
652 1 11.007 14.1518 20.4415 -8.94967
653 1 12.5794 12.5794 18.8691 -8.94968
654 1 14.1518 14.1518 20.4415 -8.94963
655 1 15.7242 12.5794 18.8691 -8.94964
656 1 17.2966 14.1518 20.4415 -8.94963
657 1 18.8691 12.5794 18.8691 -8.94963
658 1 20.4415 14.1518 20.4415 -8.94963
659 1 22.0139 15.7242 18.8691 -8.94963
660 1 1.57242 17.2966 20.4415 -8.94963
661 1 3.14484 15.7242 18.8691 -8.94964
662 1 4.71726 17.2966 20.4415 -8.94963
663 1 6.28968 15.7242 18.8691 -8.94965
664 1 7.86211 17.2966 20.4415 -8.94963
665 1 9.43453 15.7242 18.8691 -8.94962
666 1 11.007 17.2966 20.4415 -8.94963
667 1 12.5794 15.7242 18.8691 -8.94965
668 1 14.1518 17.2966 20.4415 -8.94963
669 1 15.7242 15.7242 18.8691 -8.94964
670 1 17.2966 17.2966 20.4415 -8.94963
671 1 18.8691 15.7242 18.8691 -8.94963
672 1 20.4415 17.2966 20.4415 -8.94963
673 1 22.0139 18.8691 18.8691 -8.94963
674 1 1.57242 20.4415 20.4415 -8.94963
675 1 3.14484 18.8691 18.8691 -8.94963
676 1 4.71726 20.4415 20.4415 -8.94963
677 1 6.28969 18.8691 18.8691 -8.94964
678 1 7.86211 20.4415 20.4415 -8.94963
679 1 9.43453 18.8691 18.8691 -8.94964
680 1 11.007 20.4415 20.4415 -8.94963
681 1 12.5794 18.8691 18.8691 -8.94964
351 1 22.0139 12.5794 22.0139 -8.94963
353 1 3.14484 12.5794 22.0139 -8.94963
357 1 9.43453 12.5794 22.0139 -8.94966
359 1 12.5794 12.5794 22.0139 -8.94967
383 1 6.28969 18.8691 22.0139 -8.94963
367 1 3.14484 15.7242 22.0139 -8.94963
369 1 6.28969 15.7242 22.0139 -8.94963
375 1 15.7242 15.7242 22.0139 -8.94963
381 1 3.14484 18.8691 22.0139 -8.94963
363 1 18.8691 12.5794 22.0139 -8.94963
379 1 22.0139 18.8691 22.0139 -8.94963
387 1 12.5794 18.8691 22.0139 -8.94963
