ITEM: TIMESTEP
80
ITEM: NUMBER OF ATOMS
688
ITEM: BOX BOUNDS pp pp pp
0.0000000000000000e+00 2.2013900999999997e+01
0.0000000000000000e+00 2.2013900999999997e+01
0.0000000000000000e+00 2.2013900999999997e+01
ITEM: ATOMS id type x y z c_pot
1 1 22.0137 8.48187e-16 -4.21386e-06 -8.94913
2 1 1.57188 1.57203 1.572 -8.94919
189 1 20.4413 4.71626 11.007 -8.94951
4 1 4.71692 1.57198 1.57201 -8.94957
5 1 6.2895 9.35361e-16 4.60699e-05 -8.94951
6 1 7.86201 1.57195 1.57205 -8.94949
175 1 18.8711 9.43402 9.43424 -8.94993
8 1 11.0071 1.57194 1.57208 -8.94951
9 1 12.5795 5.12761e-16 8.04422e-05 -8.94952
10 1 14.1521 1.57197 1.57219 -8.94946
174 1 15.7316 9.43225 9.43135 -8.94971
12 1 17.2971 1.57192 1.57213 -8.9495
188 1 17.2984 4.71553 11.0067 -8.9489
14 1 20.4415 1.57215 1.57217 -8.94932
181 1 17.2974 1.57182 11.0068 -8.94948
16 1 1.57179 4.71675 1.57161 -8.94981
173 1 12.6006 9.40413 9.39053 -8.80995
18 1 4.71615 4.71606 1.57096 -8.94977
172 1 9.34452 9.19006 9.44656 -7.96906
20 1 7.86174 4.71602 1.57141 -8.94917
171 1 6.24181 9.38608 9.39146 -8.86714
22 1 11.0071 4.71596 1.57158 -8.94926
177 1 4.71568 1.57055 11.0071 -8.94943
24 1 14.1525 4.71596 1.57156 -8.94991
170 1 3.13322 9.43296 9.43107 -8.96025
26 1 17.2979 4.71594 1.57132 -8.94863
169 1 22.0115 9.43444 9.43427 -8.95153
28 1 20.4418 4.71682 1.57194 -8.94955
168 1 18.8703 6.28835 9.43435 -8.94949
30 1 1.57185 7.86189 1.57161 -8.94932
167 1 15.7281 6.28604 9.43331 -8.94695
32 1 4.7166 7.86208 1.571 -8.95028
166 1 12.5829 6.28156 9.42973 -8.95195
34 1 7.86176 7.86161 1.57058 -8.95207
35 1 9.43423 6.28858 0.000218405 -8.94992
36 1 11.0066 7.86117 1.5706 -8.95057
37 1 12.5797 6.28869 0.000185903 -8.95017
38 1 14.1536 7.86051 1.56924 -8.95121
165 1 9.42826 6.29613 9.43856 -9.00581
40 1 17.2981 7.86134 1.57118 -8.94921
164 1 6.2747 6.27029 9.4302 -8.95065
42 1 20.4418 7.86184 1.57186 -8.94946
163 1 3.13747 6.28482 9.43349 -8.94816
162 1 -0.00199769 6.28841 9.43441 -8.94983
45 1 6.28921 9.43475 -0.000300868 -8.94962
161 1 18.8695 3.144 9.43438 -8.94945
160 1 15.7255 3.1431 9.43408 -8.94917
48 1 15.7256 9.43411 -0.000651898 -8.94939
159 1 12.5797 3.14269 9.43422 -8.95133
50 1 22.0135 2.89343e-16 3.1445 -8.94943
51 1 1.57154 1.57169 4.71653 -8.94945
52 1 3.14424 9.05239e-16 3.14416 -8.9496
53 1 4.71642 1.57116 4.71612 -8.95005
54 1 6.28949 8.64612e-16 3.1442 -8.94947
55 1 7.86205 1.57131 4.71628 -8.94948
56 1 9.43463 5.88438e-16 3.14422 -8.94952
57 1 11.0073 1.57146 4.71639 -8.94942
58 1 12.5797 9.52493e-16 3.14434 -8.94942
59 1 14.1522 1.57151 4.71679 -8.95047
60 1 15.7246 3.19321e-16 3.14451 -8.95
61 1 17.2972 1.57183 4.71689 -8.94959
62 1 18.8693 6.69483e-16 3.14463 -8.94953
63 1 20.4414 1.57209 4.71701 -8.94957
64 1 22.0132 3.1441 3.14406 -8.94908
65 1 1.56978 4.71507 4.71498 -8.94807
66 1 3.14341 3.14335 3.14327 -8.94839
67 1 4.713 4.71251 4.71232 -8.94484
68 1 6.28917 3.14345 3.14358 -8.94944
69 1 7.86124 4.71366 4.71435 -8.9483
70 1 9.43458 3.14347 3.14375 -8.94947
71 1 11.0074 4.7143 4.71491 -8.94737
72 1 12.5797 3.14356 3.14397 -8.94909
73 1 14.1542 4.71311 4.71438 -8.9501
74 1 15.7253 3.14323 3.14381 -8.94962
75 1 17.2984 4.71533 4.71586 -8.94885
76 1 18.8695 3.14409 3.14429 -8.94939
77 1 20.4413 4.71635 4.7165 -8.94972
78 1 22.0135 6.28921 3.14397 -8.94967
79 1 1.57057 7.8615 4.7154 -8.9493
80 1 3.14319 6.28862 3.1425 -8.95053
81 1 4.71383 7.8605 4.71184 -8.95318
82 1 6.28752 6.28719 3.14028 -8.95077
83 1 7.85854 7.85708 4.70752 -8.95702
84 1 9.43421 6.2871 3.1418 -8.94819
85 1 11.0065 7.85873 4.71005 -8.95248
86 1 12.5802 6.28744 3.14177 -8.94997
87 1 14.1619 7.85255 4.70536 -8.93937
88 1 15.7279 6.28601 3.14086 -8.94648
89 1 17.3006 7.86007 4.71469 -8.95016
90 1 18.8704 6.28869 3.14374 -8.94958
91 1 20.442 7.86154 4.71627 -8.94978
92 1 -0.00033593 9.43434 3.14382 -8.94944
93 1 3.14338 9.43427 3.14261 -8.94876
94 1 6.28936 9.43525 3.14231 -8.95156
95 1 9.43445 9.434 3.14386 -8.94653
96 1 12.5821 9.43312 3.13677 -8.95707
97 1 15.7278 9.43324 3.14101 -8.94811
98 1 18.8705 9.43416 3.14361 -8.94933
99 1 22.0135 5.08115e-16 6.28945 -8.94952
100 1 1.57149 1.57171 7.86179 -8.94941
101 1 3.1439 7.20716e-16 6.28899 -8.94982
102 1 4.71599 1.5705 7.86135 -8.95033
103 1 6.28937 1.12228e-15 6.28896 -8.95057
104 1 7.86215 1.57059 7.86173 -8.95132
105 1 9.43481 1.72076e-15 6.28897 -8.95017
106 1 11.0069 1.57168 7.86191 -8.94944
107 1 12.5795 1.39775e-15 6.28941 -8.95008
108 1 14.1523 1.57135 7.86175 -8.95032
109 1 15.7247 2.50646e-16 6.28936 -8.94989
110 1 17.2972 1.57185 7.86187 -8.94944
111 1 18.8693 -1.34266e-16 6.28952 -8.94952
112 1 20.4414 1.57205 7.86196 -8.94951
113 1 -0.000798927 3.14397 6.2892 -8.9495
114 1 1.56975 4.71514 7.86119 -8.94925
115 1 3.14261 3.14211 6.28794 -8.94928
116 1 4.7115 4.70952 7.85838 -8.94869
117 1 6.28827 3.14072 6.28775 -8.95159
118 1 7.86006 4.70848 7.86052 -8.95926
119 1 9.43475 3.1418 6.28815 -8.94996
120 1 11.0052 4.715 7.86194 -8.95281
121 1 12.5795 3.14267 6.28911 -8.95176
122 1 14.1541 4.7127 7.86013 -8.94977
123 1 15.7254 3.14292 6.28886 -8.94956
124 1 17.2981 4.71556 7.86154 -8.94919
125 1 18.8695 3.14408 6.28937 -8.94951
126 1 20.4413 4.71629 7.86182 -8.94951
127 1 22.0118 6.28833 6.2884 -8.95051
128 1 1.56621 7.86002 7.85991 -8.95349
129 1 3.13658 6.28339 6.28325 -8.94503
130 1 4.69407 7.84522 7.84563 -8.93666
131 1 6.2767 6.27566 6.27565 -8.93019
132 1 7.82183 7.8227 7.82454 -8.84925
133 1 9.43353 6.28119 6.28422 -8.9448
134 1 11.0162 7.85067 7.83963 -8.90414
135 1 12.5843 6.28078 6.28241 -8.95142
136 1 14.1656 7.85011 7.85083 -8.93469
137 1 15.7294 6.28477 6.28571 -8.94621
138 1 17.301 7.86003 7.86078 -8.95121
139 1 18.8704 6.2884 6.28883 -8.9501
140 1 20.4412 7.86137 7.86163 -8.95086
141 1 22.0126 9.4342 6.28833 -8.94939
142 1 3.14017 9.434 6.28543 -8.94743
143 1 6.28477 9.4353 6.28009 -8.96154
144 1 9.42575 9.41968 6.29249 -8.92395
145 1 12.6078 9.41306 6.2563 -8.91024
146 1 15.7338 9.43171 6.28392 -8.95349
147 1 18.8716 9.43398 6.28846 -8.9507
148 1 -0.000442501 1.69851e-15 9.43446 -8.94952
149 1 3.14372 1.68655e-15 9.43433 -8.94944
150 1 6.28904 1.45196e-15 9.43437 -8.95098
151 1 9.43479 1.27817e-15 9.43426 -8.94814
152 1 12.5797 1.28051e-15 9.43431 -8.95002
153 1 15.725 8.12381e-16 9.43424 -8.94954
154 1 18.8694 -2.77493e-17 9.43442 -8.94953
155 1 22.0131 3.14395 9.43444 -8.94942
156 1 3.14262 3.1424 9.43421 -8.94906
157 1 6.28737 3.13928 9.43434 -8.9522
158 1 9.43438 3.14412 9.43462 -8.94512
183 1 1.56982 4.71535 11.0073 -8.94913
184 1 4.71153 4.71091 11.0081 -8.9462
11 1 15.7245 1.59377e-15 9.64571e-05 -8.94955
25 1 15.7248 3.14408 0.000129984 -8.9496
29 1 22.0138 6.28952 -0.000207914 -8.94948
41 1 18.8697 6.28929 -0.000230988 -8.94946
176 1 1.57143 1.57174 11.007 -8.94944
343 1 18.87 9.43438 18.8698 -8.94942
178 1 7.86211 1.57054 11.007 -8.95108
179 1 11.0069 1.57157 11.0067 -8.94896
180 1 14.1527 1.57125 11.0065 -8.9494
342 1 15.7262 9.43407 18.8714 -8.94886
182 1 20.4414 1.57204 11.007 -8.94953
47 1 12.5798 9.43436 22.0131 -8.9514
46 1 9.43418 9.4346 22.0141 -8.94902
185 1 7.85917 4.70869 11.0094 -8.95932
186 1 11.0065 4.71535 11.0073 -8.95095
187 1 14.1544 4.71354 11.0059 -8.94695
341 1 12.5801 9.43465 18.8733 -8.95225
340 1 9.43387 9.43474 18.8717 -8.95026
190 1 1.5673 7.86068 11.0075 -8.95243
191 1 4.69844 7.85352 11.0092 -8.95661
192 1 7.80124 7.82359 11.0353 -8.81477
193 1 11.0461 7.85504 11.017 -8.86819
194 1 14.1642 7.85686 11.0056 -8.955
195 1 17.3008 7.86043 11.0068 -8.95044
196 1 20.4415 7.86142 11.0071 -8.95047
197 1 -0.000432721 1.47389e-15 12.5795 -8.94952
198 1 1.57148 1.57179 14.1522 -8.9494
199 1 3.1437 1.14104e-15 12.5797 -8.94938
200 1 4.71582 1.57061 14.1528 -8.95007
201 1 6.28901 9.18757e-16 12.5797 -8.95112
202 1 7.86198 1.57043 14.1526 -8.95076
203 1 9.43475 1.07695e-15 12.5795 -8.94906
204 1 11.0073 1.57026 14.1526 -8.95104
205 1 12.5798 1.54001e-15 12.5791 -8.95093
206 1 14.1529 1.57058 14.1522 -8.95082
207 1 15.725 1.51334e-15 12.5792 -8.94951
208 1 17.2973 1.57178 14.1519 -8.94959
209 1 18.8694 1.25191e-15 12.5794 -8.94951
210 1 20.4414 1.57207 14.1519 -8.9495
211 1 22.0131 3.14399 12.5796 -8.9494
212 1 1.56997 4.71558 14.1531 -8.94921
213 1 3.1426 3.14256 12.5802 -8.94899
214 1 4.71123 4.71053 14.157 -8.94403
215 1 6.28726 3.13922 12.5809 -8.95237
216 1 7.86072 4.70885 14.156 -8.95644
217 1 9.43487 3.14213 12.5804 -8.94738
218 1 11.0082 4.70784 14.1565 -8.95539
219 1 12.5805 3.14032 12.5794 -8.95361
220 1 14.1568 4.70924 14.1557 -8.95006
221 1 15.7256 3.14291 12.5792 -8.94944
222 1 17.2989 4.71519 14.1525 -8.94979
223 1 18.8696 3.14401 12.5794 -8.94939
224 1 20.4415 4.7164 14.1522 -8.94969
225 1 -0.00161218 6.28861 12.58 -8.9501
226 1 1.57008 7.86186 14.1528 -8.95205
227 1 3.13807 6.2856 12.5822 -8.94887
228 1 4.70707 7.85603 14.1591 -8.95103
229 1 6.27322 6.2703 12.5927 -8.93114
230 1 7.83674 7.83138 14.1873 -8.89717
231 1 9.43577 6.28669 12.5863 -8.98798
232 1 11.0312 7.82857 14.191 -8.88132
233 1 12.5893 6.27123 12.5869 -8.95664
234 1 14.175 7.84149 14.1731 -8.92464
235 1 15.7295 6.28528 12.5803 -8.94955
236 1 17.3033 7.85928 14.1548 -8.9529
237 1 18.8706 6.28845 12.5796 -8.94974
238 1 20.4425 7.86166 14.1525 -8.95082
239 1 22.0133 9.43462 12.5799 -8.94983
240 1 3.14146 9.43505 12.5796 -8.95214
241 1 6.27659 9.41399 12.5951 -8.89272
242 1 9.43816 9.25569 12.6402 -8.22225
243 1 12.629 9.3741 12.6427 -8.77479
244 1 15.7374 9.43053 12.5851 -8.95713
245 1 18.8723 9.43416 12.5801 -8.95157
246 1 22.0135 -6.7919e-16 15.7245 -8.94952
247 1 1.57161 1.57189 17.2973 -8.9492
248 1 3.14382 -2.70397e-17 15.725 -8.94954
249 1 4.71628 1.57134 17.2978 -8.94995
250 1 6.28915 2.11429e-16 15.7251 -8.95025
251 1 7.86164 1.57117 17.298 -8.94931
252 1 9.43451 7.19391e-16 15.7253 -8.95013
253 1 11.0073 1.5711 17.298 -8.94936
254 1 12.58 6.65462e-16 15.7251 -8.95034
255 1 14.1528 1.57112 17.2978 -8.94982
256 1 15.7251 8.78341e-16 15.7247 -8.95006
257 1 17.2975 1.57163 17.2974 -8.94951
258 1 18.8694 3.27273e-16 15.7244 -8.94963
259 1 20.4415 1.57209 17.2969 -8.94956
260 1 -0.000664541 3.14413 15.7248 -8.94944
261 1 1.57089 4.71624 17.298 -8.94956
262 1 3.14262 3.14271 15.7261 -8.94819
263 1 4.71334 4.71357 17.3011 -8.94619
264 1 6.28805 3.14121 15.7265 -8.95107
265 1 7.86053 4.71349 17.3007 -8.94751
266 1 9.43434 3.14067 15.7271 -8.94931
267 1 11.0079 4.71314 17.301 -8.9478
268 1 12.5809 3.14054 15.7266 -8.95064
269 1 14.1557 4.71263 17.3014 -8.94588
270 1 15.7264 3.14192 15.7259 -8.94955
271 1 17.2996 4.7148 17.299 -8.94762
272 1 18.8698 3.14397 15.7246 -8.94969
273 1 20.442 4.71656 17.2974 -8.94985
274 1 22.0133 6.28917 15.7251 -8.95063
275 1 1.57189 7.86233 17.2973 -8.94953
276 1 3.14043 6.28723 15.7276 -8.94985
277 1 4.71603 7.86261 17.2987 -8.95215
278 1 6.27923 6.27897 15.7371 -8.93778
279 1 7.85976 7.85881 17.3059 -8.9574
280 1 9.43367 6.27964 15.7352 -8.94133
281 1 11.0081 7.85778 17.3078 -8.95655
282 1 12.5894 6.27687 15.7381 -8.93524
283 1 14.1554 7.85956 17.3036 -8.95286
284 1 15.7329 6.28238 15.7316 -8.94272
285 1 17.2989 7.86135 17.2986 -8.94925
286 1 18.8716 6.28827 15.7257 -8.95043
287 1 20.4421 7.86194 17.2973 -8.9494
288 1 22.0139 9.43456 15.725 -8.94923
289 1 3.14417 9.43531 15.725 -8.94828
290 1 6.29081 9.43803 15.7256 -8.95628
291 1 9.43426 9.4288 15.7313 -8.96878
292 1 12.5835 9.43343 15.7399 -8.96277
293 1 15.7292 9.43351 15.7294 -8.94739
294 1 18.8711 9.43425 15.7256 -8.94911
295 1 -0.000265107 5.87794e-16 18.8693 -8.94936
296 1 1.57193 1.57207 20.4418 -8.94918
297 1 3.14421 2.31993e-16 18.8697 -8.9496
298 1 4.71684 1.572 20.4419 -8.94947
299 1 6.28926 9.8363e-16 18.8698 -8.94937
300 1 7.8619 1.57192 20.442 -8.94948
301 1 9.43447 1.84008e-16 18.8699 -8.94947
302 1 11.0071 1.5719 20.442 -8.94948
303 1 12.5797 1.26151e-15 18.8699 -8.94939
304 1 14.1522 1.57194 20.442 -8.94946
305 1 15.7249 1.62909e-15 18.8698 -8.94953
306 1 17.2972 1.572 20.4419 -8.94929
307 1 18.8694 1.0634e-15 18.8694 -8.94944
308 1 20.4416 1.57216 20.4417 -8.9492
309 1 22.0136 3.14436 18.8696 -8.94947
310 1 1.57198 4.71703 20.4417 -8.94992
311 1 3.14348 3.14365 18.8705 -8.94857
312 1 4.71615 4.71628 20.4426 -8.94996
313 1 6.28884 3.14347 18.8705 -8.94913
314 1 7.86151 4.71598 20.4428 -8.94924
315 1 9.43437 3.14329 18.8707 -8.9494
316 1 11.0071 4.71589 20.4429 -8.94929
317 1 12.58 3.14327 18.8706 -8.94916
318 1 14.1528 4.71595 20.4429 -8.94967
319 1 15.7256 3.14333 18.8706 -8.94858
320 1 17.2977 4.71644 20.442 -8.94965
321 1 18.8699 3.14403 18.8698 -8.94898
322 1 20.4417 4.71704 20.4416 -8.94965
323 1 22.0138 6.28961 18.8694 -8.94966
324 1 1.57203 7.86205 20.4416 -8.94941
325 1 3.1439 6.28953 18.8701 -8.95051
326 1 4.71668 7.86229 20.4419 -8.94984
327 1 6.28766 6.28786 18.873 -8.9512
328 1 7.86152 7.86173 20.4434 -8.95171
329 1 9.43399 6.28706 18.8735 -8.94904
330 1 11.0068 7.86141 20.4438 -8.95171
331 1 12.581 6.28721 18.8737 -8.95058
332 1 14.1528 7.86149 20.4428 -8.95071
333 1 15.7262 6.2882 18.8715 -8.9504
334 1 17.2977 7.8617 20.4419 -8.94928
335 1 18.87 6.28928 18.8697 -8.94958
336 1 20.4418 7.86197 20.4416 -8.94951
337 1 -8.17303e-05 9.43449 18.8695 -8.94955
338 1 3.14402 9.43461 18.8698 -8.94907
339 1 6.28916 9.43537 18.87 -8.94958
7 1 9.43452 7.53181e-17 22.014 -8.94954
44 1 3.14416 9.43446 22.0135 -8.94953
17 1 3.14416 3.1442 22.0138 -8.94948
19 1 6.2893 3.14411 22.014 -8.94937
21 1 9.43447 3.14402 22.014 -8.94947
43 1 22.0138 9.43445 22.0137 -8.94954
27 1 18.8696 3.14434 22.0138 -8.94928
39 1 15.7254 6.28865 22.0133 -8.95005
31 1 3.14431 6.28953 22.0136 -8.94996
33 1 6.28895 6.28902 22.0138 -8.95085
3 1 3.14453 1.00441e-15 22.0139 -8.94959
13 1 18.8693 9.40918e-16 22.0139 -8.94923
15 1 22.0137 3.14457 22.0138 -8.94961
23 1 12.5796 3.14404 22.0141 -8.94936
49 1 18.8698 9.43438 22.0137 -8.94949
344 1 1.5718 11.007 1.57155 -8.94951
345 1 4.71633 11.007 1.5708 -8.9499
346 1 7.86219 11.007 1.5723 -8.9476
347 1 11.0068 11.007 1.57084 -8.94942
348 1 14.1541 11.007 1.56901 -8.94968
349 1 17.2982 11.007 1.57116 -8.9494
350 1 20.4418 11.007 1.57183 -8.9495
688 3 10.1514 11.007 9.53408 2.23094
352 1 1.57185 14.152 1.57161 -8.94932
511 1 18.8695 18.8699 9.43438 -8.94945
354 1 4.7166 14.1518 1.571 -8.95028
355 1 6.28921 12.5792 -0.000300868 -8.94962
356 1 7.86176 14.1523 1.57058 -8.95207
510 1 15.7255 18.8708 9.43408 -8.94917
358 1 11.0066 14.1527 1.5706 -8.95057
509 1 12.5797 18.8712 9.43422 -8.95133
360 1 14.1536 14.1534 1.56924 -8.95121
361 1 15.7256 12.5798 -0.000651898 -8.94939
362 1 17.2981 14.1526 1.57118 -8.94921
538 1 17.2974 20.4421 11.0068 -8.94948
364 1 20.4418 14.1521 1.57186 -8.94946
508 1 9.43438 18.8698 9.43462 -8.94512
366 1 1.57179 17.2972 1.57161 -8.94981
507 1 6.28737 18.8746 9.43434 -8.9522
368 1 4.71615 17.2978 1.57096 -8.94977
506 1 3.14262 18.8715 9.43421 -8.94906
370 1 7.86174 17.2979 1.57141 -8.94917
371 1 9.43423 15.7253 0.000218405 -8.94992
372 1 11.0071 17.2979 1.57158 -8.94926
373 1 12.5797 15.7252 0.000185903 -8.95017
374 1 14.1525 17.2979 1.57156 -8.94991
505 1 22.0131 18.87 9.43444 -8.94942
376 1 17.2979 17.298 1.57132 -8.94863
504 1 18.8703 15.7255 9.43435 -8.94949
378 1 20.4418 17.2971 1.57194 -8.94955
534 1 4.71568 20.4434 11.0071 -8.94943
380 1 1.57188 20.4419 1.572 -8.94919
503 1 15.7281 15.7279 9.43331 -8.94695
382 1 4.71692 20.4419 1.57201 -8.94957
502 1 12.5829 15.7323 9.42973 -8.95195
384 1 7.86201 20.442 1.57205 -8.94949
501 1 9.42826 15.7178 9.43856 -9.00581
386 1 11.0071 20.442 1.57208 -8.94951
532 1 20.4413 17.2976 11.007 -8.94951
388 1 14.1521 20.4419 1.57219 -8.94946
500 1 6.2747 15.7436 9.4302 -8.95065
390 1 17.2971 20.442 1.57213 -8.9495
499 1 3.13747 15.7291 9.43349 -8.94816
392 1 20.4415 20.4418 1.57217 -8.94932
393 1 1.57061 11.007 4.71513 -8.94928
394 1 4.71407 11.007 4.71188 -8.94596
395 1 7.86544 11.007 4.71999 -8.94468
396 1 11.0091 11.007 4.7118 -8.98344
397 1 14.1609 11.007 4.70685 -8.94299
398 1 17.3007 11.007 4.71448 -8.94916
399 1 20.4421 11.007 4.71611 -8.94972
400 1 -0.00033593 12.5796 3.14382 -8.94944
401 1 1.57057 14.1524 4.7154 -8.9493
402 1 3.14338 12.5796 3.14261 -8.94876
403 1 4.71383 14.1534 4.71184 -8.95318
404 1 6.28936 12.5787 3.14231 -8.95156
405 1 7.85854 14.1568 4.70752 -8.95702
406 1 9.43445 12.5799 3.14386 -8.94653
407 1 11.0065 14.1552 4.71005 -8.95248
408 1 12.5821 12.5808 3.13677 -8.95707
409 1 14.1619 14.1613 4.70536 -8.93937
410 1 15.7278 12.5807 3.14101 -8.94811
411 1 17.3006 14.1538 4.71469 -8.95016
412 1 18.8705 12.5797 3.14361 -8.94933
413 1 20.442 14.1524 4.71627 -8.94978
414 1 22.0135 15.7247 3.14397 -8.94967
415 1 1.56978 17.2988 4.71498 -8.94807
416 1 3.14319 15.7253 3.1425 -8.95053
417 1 4.713 17.3014 4.71232 -8.94484
418 1 6.28752 15.7267 3.14028 -8.95077
419 1 7.86124 17.3002 4.71435 -8.9483
420 1 9.43421 15.7268 3.1418 -8.94819
421 1 11.0074 17.2996 4.71491 -8.94737
422 1 12.5802 15.7265 3.14177 -8.94997
423 1 14.1542 17.3008 4.71438 -8.9501
424 1 15.7279 15.7279 3.14086 -8.94648
425 1 17.2984 17.2986 4.71586 -8.94885
426 1 18.8704 15.7252 3.14374 -8.94958
427 1 20.4413 17.2975 4.7165 -8.94972
428 1 22.0132 18.8698 3.14406 -8.94908
429 1 1.57154 20.4422 4.71653 -8.94945
430 1 3.14341 18.8705 3.14327 -8.94839
431 1 4.71642 20.4427 4.71612 -8.95005
432 1 6.28917 18.8705 3.14358 -8.94944
433 1 7.86205 20.4426 4.71628 -8.94948
434 1 9.43458 18.8704 3.14375 -8.94947
435 1 11.0073 20.4424 4.71639 -8.94942
436 1 12.5797 18.8703 3.14397 -8.94909
437 1 14.1522 20.4424 4.71679 -8.95047
438 1 15.7253 18.8707 3.14381 -8.94962
439 1 17.2972 20.4421 4.71689 -8.94959
440 1 18.8695 18.8698 3.14429 -8.94939
441 1 20.4414 20.4418 4.71701 -8.94957
442 1 1.56818 11.007 7.8594 -8.94735
443 1 4.7098 11.007 7.85284 -8.93496
444 1 7.87417 11.007 7.87598 -8.92367
445 1 11.072 11.007 7.72418 -8.29531
446 1 14.1678 11.007 7.84995 -8.9599
447 1 17.3019 11.007 7.86046 -8.95096
448 1 20.4417 11.007 7.86139 -8.95005
449 1 22.0126 12.5797 6.28833 -8.94939
450 1 1.56621 14.1539 7.85991 -8.95349
451 1 3.14017 12.5799 6.28543 -8.94743
452 1 4.69407 14.1687 7.84563 -8.93666
453 1 6.28477 12.5786 6.28009 -8.96154
454 1 7.82183 14.1912 7.82454 -8.84925
455 1 9.42575 12.5942 6.29249 -8.92395
456 1 11.0162 14.1632 7.83963 -8.90414
457 1 12.6078 12.6008 6.2563 -8.91024
458 1 14.1656 14.1638 7.85083 -8.93469
459 1 15.7338 12.5822 6.28392 -8.95349
460 1 17.301 14.1539 7.86078 -8.95121
461 1 18.8716 12.5799 6.28846 -8.9507
462 1 20.4412 14.1525 7.86163 -8.95086
463 1 22.0118 15.7256 6.2884 -8.95051
464 1 1.56975 17.2988 7.86119 -8.94925
465 1 3.13658 15.7305 6.28325 -8.94503
466 1 4.7115 17.3044 7.85838 -8.94869
467 1 6.2767 15.7382 6.27565 -8.93019
468 1 7.86006 17.3054 7.86052 -8.95926
469 1 9.43353 15.7327 6.28422 -8.9448
470 1 11.0052 17.2989 7.86194 -8.95281
471 1 12.5843 15.7331 6.28241 -8.95142
472 1 14.1541 17.3012 7.86013 -8.94977
473 1 15.7294 15.7291 6.28571 -8.94621
474 1 17.2981 17.2983 7.86154 -8.94919
475 1 18.8704 15.7255 6.28883 -8.9501
476 1 20.4413 17.2976 7.86182 -8.94951
477 1 -0.000798927 18.8699 6.2892 -8.9495
478 1 1.57149 20.4422 7.86179 -8.94941
479 1 3.14261 18.8718 6.28794 -8.94928
480 1 4.71599 20.4434 7.86135 -8.95033
481 1 6.28827 18.8732 6.28775 -8.95159
482 1 7.86215 20.4433 7.86173 -8.95132
483 1 9.43475 18.8721 6.28815 -8.94996
484 1 11.0069 20.4422 7.86191 -8.94944
485 1 12.5795 18.8712 6.28911 -8.95176
486 1 14.1523 20.4425 7.86175 -8.95032
487 1 15.7254 18.871 6.28886 -8.94956
488 1 17.2972 20.442 7.86187 -8.94944
489 1 18.8695 18.8698 6.28937 -8.94951
490 1 20.4414 20.4418 7.86196 -8.94951
491 1 22.0115 12.5795 9.43427 -8.95153
492 1 3.13322 12.5809 9.43107 -8.96025
493 1 6.24181 12.6278 9.39146 -8.86714
494 1 9.34452 12.8238 9.44656 -7.96906
495 1 12.6006 12.6098 9.39053 -8.80995
496 1 15.7316 12.5817 9.43135 -8.94971
497 1 18.8711 12.5799 9.43424 -8.94993
498 1 -0.00199769 15.7255 9.43441 -8.94983
513 1 4.71916 11.007 10.9996 -9.00718
514 1 7.60203 11.007 10.9142 -8.00271
531 1 17.2984 17.2984 11.0067 -8.9489
526 1 1.56982 17.2986 11.0073 -8.94913
527 1 4.71153 17.303 11.0081 -8.9462
389 1 15.7248 18.8698 0.000129984 -8.9496
365 1 22.0138 15.7244 -0.000207914 -8.94948
377 1 18.8697 15.7246 -0.000230988 -8.94946
512 1 1.57053 11.007 11.0071 -8.94557
687 3 9.47575 11.007 11.6143 2.15604
686 1 20.4416 20.4417 20.4417 -8.9492
515 1 11.4057 11.007 11.0909 -7.18157
516 1 14.1728 11.007 11.0123 -9.02203
517 1 17.302 11.007 11.007 -8.95307
518 1 20.4421 11.007 11.0071 -8.94916
519 1 1.5673 14.1532 11.0075 -8.95243
520 1 4.69844 14.1604 11.0092 -8.95661
521 1 7.80124 14.1903 11.0353 -8.81477
522 1 11.0461 14.1589 11.017 -8.86819
523 1 14.1642 14.157 11.0056 -8.955
524 1 17.3008 14.1535 11.0068 -8.95044
525 1 20.4415 14.1525 11.0071 -8.95047
391 1 18.8696 18.8696 22.0138 -8.94928
385 1 9.43447 18.8699 22.014 -8.94947
528 1 7.85917 17.3052 11.0094 -8.95932
529 1 11.0065 17.2985 11.0073 -8.95095
530 1 14.1544 17.3004 11.0059 -8.94695
685 1 18.8699 18.8699 18.8698 -8.94898
684 1 17.2972 20.4419 20.4419 -8.94929
533 1 1.57143 20.4422 11.007 -8.94944
683 1 15.7256 18.8706 18.8706 -8.94858
535 1 7.86211 20.4434 11.007 -8.95108
536 1 11.0069 20.4423 11.0067 -8.94896
537 1 14.1527 20.4426 11.0065 -8.9494
682 1 14.1522 20.442 20.442 -8.94946
539 1 20.4414 20.4419 11.007 -8.94953
540 1 1.57177 11.007 14.1528 -8.94806
541 1 4.71833 11.007 14.1507 -8.94067
542 1 7.8757 11.007 14.1168 -8.92716
543 1 11.0061 11.007 14.144 -8.97499
544 1 14.1614 11.007 14.1628 -8.9368
545 1 17.3014 11.007 14.1547 -8.94768
546 1 20.4426 11.007 14.1527 -8.94952
547 1 22.0133 12.5793 12.5799 -8.94983
548 1 1.57008 14.152 14.1528 -8.95205
549 1 3.14146 12.5789 12.5796 -8.95214
550 1 4.70707 14.1579 14.1591 -8.95103
551 1 6.27659 12.5999 12.5951 -8.89272
552 1 7.83674 14.1825 14.1873 -8.89717
553 1 9.43816 12.7582 12.6402 -8.22225
554 1 11.0312 14.1853 14.191 -8.88132
555 1 12.629 12.6398 12.6427 -8.77479
556 1 14.175 14.1724 14.1731 -8.92464
557 1 15.7374 12.5834 12.5851 -8.95713
558 1 17.3033 14.1546 14.1548 -8.9529
559 1 18.8723 12.5797 12.5801 -8.95157
560 1 20.4425 14.1522 14.1525 -8.95082
561 1 -0.00161218 15.7253 12.58 -8.9501
562 1 1.56997 17.2983 14.1531 -8.94921
563 1 3.13807 15.7283 12.5822 -8.94887
564 1 4.71123 17.3034 14.157 -8.94403
565 1 6.27322 15.7436 12.5927 -8.93114
566 1 7.86072 17.305 14.156 -8.95644
567 1 9.43577 15.7272 12.5863 -8.98798
568 1 11.0082 17.3061 14.1565 -8.95539
569 1 12.5893 15.7427 12.5869 -8.95664
570 1 14.1568 17.3047 14.1557 -8.95006
571 1 15.7295 15.7286 12.5803 -8.94955
572 1 17.2989 17.2987 14.1525 -8.94979
573 1 18.8706 15.7255 12.5796 -8.94974
574 1 20.4415 17.2975 14.1522 -8.94969
575 1 22.0131 18.8699 12.5796 -8.9494
576 1 1.57148 20.4421 14.1522 -8.9494
577 1 3.1426 18.8713 12.5802 -8.94899
578 1 4.71582 20.4433 14.1528 -8.95007
579 1 6.28726 18.8747 12.5809 -8.95237
580 1 7.86198 20.4435 14.1526 -8.95076
581 1 9.43487 18.8718 12.5804 -8.94738
582 1 11.0073 20.4436 14.1526 -8.95104
583 1 12.5805 18.8736 12.5794 -8.95361
584 1 14.1529 20.4433 14.1522 -8.95082
585 1 15.7256 18.871 12.5792 -8.94944
586 1 17.2973 20.4421 14.1519 -8.94959
587 1 18.8696 18.8699 12.5794 -8.94939
588 1 20.4414 20.4418 14.1519 -8.9495
589 1 1.57184 11.007 17.2974 -8.94971
590 1 4.7159 11.007 17.2979 -8.94745
591 1 7.86267 11.007 17.293 -8.93564
592 1 11.0062 11.007 17.2989 -8.94225
593 1 14.1558 11.007 17.303 -8.94637
594 1 17.299 11.007 17.2987 -8.94927
595 1 20.4421 11.007 17.2974 -8.94957
596 1 22.0139 12.5793 15.725 -8.94923
597 1 1.57189 14.1516 17.2973 -8.94953
598 1 3.14417 12.5786 15.725 -8.94828
599 1 4.71603 14.1513 17.2987 -8.95215
600 1 6.29081 12.5759 15.7256 -8.95628
601 1 7.85976 14.1551 17.3059 -8.9574
602 1 9.43426 12.5851 15.7313 -8.96878
603 1 11.0081 14.1561 17.3078 -8.95655
604 1 12.5835 12.5805 15.7399 -8.96277
605 1 14.1554 14.1543 17.3036 -8.95286
606 1 15.7292 12.5804 15.7294 -8.94739
607 1 17.2989 14.1526 17.2986 -8.94925
608 1 18.8711 12.5796 15.7256 -8.94911
609 1 20.4421 14.152 17.2973 -8.9494
610 1 22.0133 15.7247 15.7251 -8.95063
611 1 1.57089 17.2977 17.298 -8.94956
612 1 3.14043 15.7267 15.7276 -8.94985
613 1 4.71334 17.3003 17.3011 -8.94619
614 1 6.27923 15.7349 15.7371 -8.93778
615 1 7.86053 17.3004 17.3007 -8.94751
616 1 9.43367 15.7343 15.7352 -8.94133
617 1 11.0079 17.3008 17.301 -8.9478
618 1 12.5894 15.737 15.7381 -8.93524
619 1 14.1557 17.3013 17.3014 -8.94588
620 1 15.7329 15.7315 15.7316 -8.94272
621 1 17.2996 17.2991 17.299 -8.94762
622 1 18.8716 15.7256 15.7257 -8.95043
623 1 20.442 17.2973 17.2974 -8.94985
624 1 -0.000664541 18.8698 15.7248 -8.94944
625 1 1.57161 20.442 17.2973 -8.9492
626 1 3.14262 18.8712 15.7261 -8.94819
627 1 4.71628 20.4426 17.2978 -8.94995
628 1 6.28805 18.8727 15.7265 -8.95107
629 1 7.86164 20.4427 17.298 -8.94931
630 1 9.43434 18.8732 15.7271 -8.94931
631 1 11.0073 20.4428 17.298 -8.94936
632 1 12.5809 18.8734 15.7266 -8.95064
633 1 14.1528 20.4428 17.2978 -8.94982
634 1 15.7264 18.872 15.7259 -8.94955
635 1 17.2975 20.4423 17.2974 -8.94951
636 1 18.8698 18.8699 15.7246 -8.94969
637 1 20.4415 20.4418 17.2969 -8.94956
638 1 1.57197 11.007 20.4416 -8.94956
639 1 4.7164 11.007 20.4418 -8.94966
640 1 7.86149 11.007 20.4417 -8.94699
641 1 11.0067 11.007 20.4426 -8.94814
642 1 14.1532 11.007 20.4428 -8.95007
643 1 17.2978 11.007 20.442 -8.94945
644 1 20.4418 11.007 20.4417 -8.94954
645 1 -8.17303e-05 12.5794 18.8695 -8.94955
646 1 1.57203 14.1518 20.4416 -8.94941
647 1 3.14402 12.5793 18.8698 -8.94907
648 1 4.71668 14.1516 20.4419 -8.94984
649 1 6.28916 12.5785 18.87 -8.94958
650 1 7.86152 14.1522 20.4434 -8.95171
651 1 9.43387 12.5792 18.8717 -8.95026
652 1 11.0068 14.1525 20.4438 -8.95171
653 1 12.5801 12.5792 18.8733 -8.95225
654 1 14.1528 14.1524 20.4428 -8.95071
655 1 15.7262 12.5798 18.8714 -8.94886
656 1 17.2977 14.1522 20.4419 -8.94928
657 1 18.87 12.5795 18.8698 -8.94942
658 1 20.4418 14.1519 20.4416 -8.94951
659 1 22.0138 15.7243 18.8694 -8.94966
660 1 1.57198 17.2969 20.4417 -8.94992
661 1 3.1439 15.7244 18.8701 -8.95051
662 1 4.71615 17.2976 20.4426 -8.94996
663 1 6.28766 15.726 18.873 -8.9512
664 1 7.86151 17.2979 20.4428 -8.94924
665 1 9.43399 15.7268 18.8735 -8.94904
666 1 11.0071 17.298 20.4429 -8.94929
667 1 12.581 15.7267 18.8737 -8.95058
668 1 14.1528 17.2979 20.4429 -8.94967
669 1 15.7262 15.7257 18.8715 -8.9504
670 1 17.2977 17.2975 20.442 -8.94965
671 1 18.87 15.7246 18.8697 -8.94958
672 1 20.4417 17.2969 20.4416 -8.94965
673 1 22.0136 18.8695 18.8696 -8.94947
674 1 1.57193 20.4418 20.4418 -8.94918
675 1 3.14348 18.8703 18.8705 -8.94857
676 1 4.71684 20.4419 20.4419 -8.94947
677 1 6.28884 18.8704 18.8705 -8.94913
678 1 7.8619 20.442 20.442 -8.94948
679 1 9.43437 18.8706 18.8707 -8.9494
680 1 11.0071 20.442 20.442 -8.94948
681 1 12.58 18.8706 18.8706 -8.94916
351 1 22.0138 12.5794 22.0137 -8.94954
353 1 3.14416 12.5794 22.0135 -8.94953
357 1 9.43418 12.5793 22.0141 -8.94902
359 1 12.5798 12.5795 22.0131 -8.9514
383 1 6.2893 18.8698 22.014 -8.94937
367 1 3.14431 15.7244 22.0136 -8.94996
369 1 6.28895 15.7249 22.0138 -8.95085
375 1 15.7254 15.7252 22.0133 -8.95005
381 1 3.14416 18.8697 22.0138 -8.94948
363 1 18.8698 12.5795 22.0137 -8.94949
379 1 22.0137 18.8693 22.0138 -8.94961
387 1 12.5796 18.8699 22.0141 -8.94936
