ITEM: TIMESTEP
73
ITEM: NUMBER OF ATOMS
688
ITEM: BOX BOUNDS pp pp pp
0.0000000000000000e+00 2.2013900999999997e+01
0.0000000000000000e+00 2.2013900999999997e+01
0.0000000000000000e+00 2.2013900999999997e+01
ITEM: ATOMS id type x y z c_pot
1 1 22.0137 6.57177e-16 -6.15234e-07 -8.94917
2 1 1.57195 1.57207 1.57206 -8.94922
189 1 20.4414 4.71635 11.007 -8.94951
4 1 4.71697 1.57203 1.57206 -8.94959
5 1 6.28953 1.20055e-15 3.56165e-05 -8.94953
6 1 7.86203 1.57199 1.57208 -8.9495
175 1 18.871 9.43405 9.43429 -8.94989
8 1 11.0071 1.57198 1.5721 -8.94952
9 1 12.5795 8.83237e-16 5.80751e-05 -8.94954
10 1 14.152 1.57202 1.5722 -8.94947
174 1 15.7312 9.43238 9.43154 -8.94971
12 1 17.297 1.57197 1.57215 -8.94951
188 1 17.2983 4.71564 11.0067 -8.94891
14 1 20.4415 1.57219 1.57221 -8.94936
181 1 17.2973 1.57187 11.0068 -8.94949
16 1 1.57186 4.71681 1.5717 -8.9498
173 1 12.5999 9.40483 9.3907 -8.81073
18 1 4.71623 4.71615 1.57106 -8.94975
172 1 9.34407 9.19159 9.44719 -7.97175
20 1 7.86178 4.71611 1.57147 -8.94917
171 1 6.24204 9.38667 9.39168 -8.86779
22 1 11.0071 4.71605 1.57161 -8.94927
177 1 4.71579 1.57065 11.0071 -8.94942
24 1 14.1524 4.71606 1.57161 -8.94989
170 1 3.13342 9.43308 9.43126 -8.96029
26 1 17.2978 4.71604 1.57138 -8.94862
169 1 22.0116 9.43447 9.43432 -8.95152
28 1 20.4417 4.71688 1.572 -8.94956
168 1 18.8702 6.28845 9.43438 -8.94949
30 1 1.5719 7.86192 1.5717 -8.94933
167 1 15.728 6.28619 9.43342 -8.94696
32 1 4.71665 7.8621 1.57108 -8.95025
166 1 12.5828 6.28174 9.42972 -8.95185
34 1 7.86178 7.86164 1.5706 -8.95208
35 1 9.43425 6.28865 0.000188586 -8.9499
36 1 11.0066 7.8612 1.57061 -8.95055
37 1 12.5797 6.28876 0.000159891 -8.95014
38 1 14.1535 7.86057 1.56931 -8.95124
165 1 9.4284 6.29609 9.43844 -9.00545
40 1 17.298 7.86141 1.57127 -8.94922
164 1 6.27508 6.27066 9.43021 -8.95056
42 1 20.4418 7.86188 1.57193 -8.94947
163 1 3.13781 6.2851 9.4336 -8.94821
162 1 -0.0018608 6.28852 9.43444 -8.94982
45 1 6.28922 9.43473 -0.00027962 -8.94962
161 1 18.8695 3.14409 9.4344 -8.94946
160 1 15.7254 3.14319 9.43413 -8.94917
48 1 15.7255 9.43414 -0.000631751 -8.94938
159 1 12.5797 3.14272 9.43422 -8.95129
50 1 22.0136 9.35112e-17 3.14456 -8.94946
51 1 1.57164 1.57176 4.71663 -8.94946
52 1 3.14431 1.00428e-15 3.14424 -8.94961
53 1 4.7165 1.57125 4.71622 -8.95004
54 1 6.28952 7.03837e-16 3.14427 -8.94948
55 1 7.86207 1.57138 4.71635 -8.94948
56 1 9.43462 6.59485e-16 3.14427 -8.94953
57 1 11.0073 1.57151 4.71644 -8.94943
58 1 12.5796 1.20882e-15 3.14438 -8.94943
59 1 14.1521 1.57157 4.71683 -8.95045
60 1 15.7245 9.7795e-16 3.14454 -8.94998
61 1 17.2971 1.57189 4.71694 -8.94959
62 1 18.8692 5.15381e-16 3.14467 -8.94955
63 1 20.4414 1.57214 4.71706 -8.94959
64 1 22.0133 3.14418 3.14415 -8.94911
65 1 1.56996 4.71523 4.71515 -8.94809
66 1 3.14353 3.14347 3.1434 -8.94842
67 1 4.71321 4.71274 4.71255 -8.94491
68 1 6.28923 3.14356 3.14368 -8.94946
69 1 7.86133 4.71383 4.71449 -8.94836
70 1 9.43458 3.14356 3.14381 -8.94948
71 1 11.0074 4.71439 4.715 -8.94741
72 1 12.5797 3.14364 3.14402 -8.9491
73 1 14.1541 4.71324 4.71452 -8.95017
74 1 15.7252 3.14334 3.14388 -8.94963
75 1 17.2983 4.71548 4.71599 -8.94888
76 1 18.8695 3.14418 3.14436 -8.94941
77 1 20.4413 4.71645 4.71659 -8.94972
78 1 22.0136 6.28928 3.14408 -8.94968
79 1 1.5707 7.86157 4.71556 -8.94932
80 1 3.14331 6.28871 3.14267 -8.9505
81 1 4.71397 7.8606 4.71204 -8.95314
82 1 6.2876 6.28729 3.14042 -8.95072
83 1 7.85857 7.85715 4.70757 -8.95681
84 1 9.43423 6.28721 3.14188 -8.94816
85 1 11.0065 7.85874 4.7101 -8.95231
86 1 12.5801 6.28753 3.14189 -8.9499
87 1 14.162 7.85249 4.70542 -8.93892
88 1 15.7278 6.2861 3.14098 -8.94637
89 1 17.3004 7.86017 4.71484 -8.95019
90 1 18.8703 6.28878 3.14383 -8.9496
91 1 20.4419 7.8616 4.71637 -8.94979
92 1 -0.000309622 9.43437 3.14393 -8.94946
93 1 3.14346 9.43429 3.14276 -8.94877
94 1 6.28938 9.43524 3.14235 -8.95152
95 1 9.43451 9.43407 3.1438 -8.94679
96 1 12.582 9.43317 3.13684 -8.95729
97 1 15.7276 9.43329 3.14117 -8.94808
98 1 18.8704 9.43419 3.14372 -8.94934
99 1 22.0136 -3.3633e-17 6.2895 -8.94954
100 1 1.5716 1.57178 7.86184 -8.94943
101 1 3.144 5.04732e-16 6.28907 -8.9498
102 1 4.71609 1.57061 7.8614 -8.95031
103 1 6.2894 1.1327e-15 6.28902 -8.95054
104 1 7.86217 1.57064 7.86174 -8.95128
105 1 9.4348 1.5981e-15 6.28901 -8.95016
106 1 11.007 1.57168 7.86192 -8.94943
107 1 12.5795 1.46742e-15 6.28942 -8.95008
108 1 14.1523 1.5714 7.86178 -8.9503
109 1 15.7247 5.07684e-16 6.2894 -8.94987
110 1 17.2972 1.5719 7.8619 -8.94945
111 1 18.8693 -3.29594e-17 6.28955 -8.94953
112 1 20.4414 1.5721 7.86199 -8.94952
113 1 -0.000706336 3.14407 6.28927 -8.94952
114 1 1.56996 4.71532 7.86129 -8.94928
115 1 3.14279 3.14229 6.28808 -8.94929
116 1 4.71179 4.70983 7.85853 -8.9487
117 1 6.28838 3.1409 6.28785 -8.95156
118 1 7.86022 4.70866 7.86057 -8.95917
119 1 9.43478 3.14189 6.28821 -8.94996
120 1 11.0053 4.71505 7.86197 -8.95266
121 1 12.5795 3.14274 6.28916 -8.95175
122 1 14.154 4.71284 7.86026 -8.94976
123 1 15.7253 3.14304 6.28894 -8.94955
124 1 17.2981 4.71569 7.86161 -8.94921
125 1 18.8694 3.14417 6.28942 -8.94953
126 1 20.4413 4.71639 7.86186 -8.94951
127 1 22.012 6.28845 6.28852 -8.95049
128 1 1.56645 7.86014 7.86005 -8.95345
129 1 3.1369 6.28365 6.28352 -8.94505
130 1 4.6945 7.84557 7.84593 -8.93668
131 1 6.27705 6.27601 6.27595 -8.9304
132 1 7.8223 7.82317 7.82491 -8.84995
133 1 9.43364 6.28135 6.28436 -8.94504
134 1 11.0158 7.85118 7.83988 -8.90496
135 1 12.5841 6.28088 6.28266 -8.95183
136 1 14.1653 7.85033 7.85124 -8.93472
137 1 15.7292 6.28497 6.28595 -8.94626
138 1 17.3008 7.86015 7.86094 -8.9512
139 1 18.8703 6.28851 6.28893 -8.95009
140 1 20.4413 7.86143 7.86169 -8.95083
141 1 22.0126 9.43424 6.28844 -8.94941
142 1 3.14034 9.43406 6.28563 -8.94744
143 1 6.28486 9.43536 6.28017 -8.96159
144 1 9.42553 9.41944 6.29207 -8.92257
145 1 12.6084 9.41235 6.25595 -8.90819
146 1 15.7338 9.43175 6.28415 -8.95366
147 1 18.8715 9.43402 6.28858 -8.95073
148 1 -0.000379844 1.43333e-15 9.43447 -8.94954
149 1 3.14383 1.6734e-15 9.43435 -8.94944
150 1 6.28908 1.25628e-15 9.43437 -8.95094
151 1 9.43479 1.18871e-15 9.43426 -8.9482
152 1 12.5797 1.08916e-15 9.43432 -8.95001
153 1 15.7249 5.37034e-16 9.43427 -8.94954
154 1 18.8693 2.06116e-16 9.43444 -8.94954
155 1 22.0132 3.14405 9.43446 -8.94944
156 1 3.1428 3.14258 9.43425 -8.94908
157 1 6.28751 3.13946 9.43433 -8.95216
158 1 9.43443 3.14407 9.43456 -8.94515
183 1 1.57001 4.7155 11.0073 -8.94914
184 1 4.71184 4.71119 11.008 -8.94622
11 1 15.7244 1.7398e-15 7.5211e-05 -8.94957
25 1 15.7247 3.14417 0.00011502 -8.94961
29 1 22.0138 6.28955 -0.000175659 -8.94949
41 1 18.8696 6.28935 -0.000209598 -8.94947
176 1 1.57154 1.5718 11.007 -8.94946
343 1 18.8699 9.4344 18.8698 -8.94944
178 1 7.86213 1.57057 11.007 -8.95108
179 1 11.0069 1.57156 11.0067 -8.949
180 1 14.1527 1.5713 11.0065 -8.94939
342 1 15.7261 9.43412 18.8712 -8.94886
182 1 20.4414 1.57208 11.007 -8.94955
47 1 12.5798 9.43437 22.0131 -8.9514
46 1 9.4342 9.4346 22.0141 -8.94908
185 1 7.85936 4.70878 11.0093 -8.9594
186 1 11.0064 4.71531 11.0072 -8.95106
187 1 14.1543 4.71368 11.0058 -8.94699
341 1 12.5801 9.43468 18.8732 -8.9522
340 1 9.43387 9.43476 18.8718 -8.95031
190 1 1.56749 7.86078 11.0075 -8.95238
191 1 4.69886 7.85385 11.0093 -8.95672
192 1 7.80157 7.82364 11.0349 -8.81446
193 1 11.0457 7.85496 11.0166 -8.86805
194 1 14.1637 7.85709 11.0055 -8.9552
195 1 17.3006 7.86053 11.0067 -8.9504
196 1 20.4415 7.86147 11.0071 -8.95044
197 1 -0.000371562 1.61412e-15 12.5795 -8.94954
198 1 1.57159 1.57185 14.1522 -8.94942
199 1 3.14382 1.41328e-15 12.5796 -8.94939
200 1 4.71593 1.57071 14.1527 -8.95004
201 1 6.28905 9.32537e-16 12.5796 -8.95108
202 1 7.862 1.57049 14.1525 -8.95077
203 1 9.43475 1.28791e-15 12.5795 -8.94907
204 1 11.0072 1.57032 14.1525 -8.95104
205 1 12.5798 1.29795e-15 12.5791 -8.95091
206 1 14.1528 1.57068 14.1522 -8.95077
207 1 15.7249 1.54028e-15 12.5792 -8.94951
208 1 17.2973 1.57185 14.1518 -8.94959
209 1 18.8693 1.4309e-15 12.5794 -8.94953
210 1 20.4414 1.57212 14.1519 -8.94951
211 1 22.0132 3.14408 12.5796 -8.94942
212 1 1.57012 4.71571 14.153 -8.94922
213 1 3.14277 3.14272 12.5801 -8.94902
214 1 4.71147 4.71079 14.1567 -8.94404
215 1 6.28739 3.13939 12.5808 -8.95232
216 1 7.86078 4.70897 14.1558 -8.95653
217 1 9.43488 3.14216 12.5803 -8.94731
218 1 11.0082 4.70794 14.1563 -8.95549
219 1 12.5805 3.14042 12.5793 -8.95354
220 1 14.1566 4.70952 14.1555 -8.95005
221 1 15.7255 3.14304 12.5792 -8.94944
222 1 17.2988 4.71536 14.1524 -8.94978
223 1 18.8696 3.14409 12.5794 -8.9494
224 1 20.4415 4.71649 14.1522 -8.94968
225 1 -0.00153045 6.28869 12.58 -8.95008
226 1 1.57015 7.86191 14.1527 -8.95202
227 1 3.13833 6.2858 12.582 -8.9489
228 1 4.70726 7.85629 14.1589 -8.95133
229 1 6.27354 6.27063 12.5925 -8.93111
230 1 7.83639 7.83127 14.1877 -8.89564
231 1 9.43578 6.28695 12.5862 -8.98866
232 1 11.0314 7.82844 14.1912 -8.87974
233 1 12.589 6.27147 12.5866 -8.95663
234 1 14.1747 7.84186 14.1727 -8.92504
235 1 15.7293 6.28551 12.5801 -8.94957
236 1 17.3031 7.85945 14.1546 -8.95294
237 1 18.8706 6.28854 12.5796 -8.94972
238 1 20.4425 7.86171 14.1524 -8.9508
239 1 22.0133 9.43463 12.5799 -8.94981
240 1 3.1416 9.43512 12.5796 -8.95201
241 1 6.27721 9.41442 12.5949 -8.89367
242 1 9.43812 9.25261 12.6414 -8.218
243 1 12.6282 9.37446 12.6422 -8.77525
244 1 15.737 9.4307 12.5849 -8.95719
245 1 18.8721 9.4342 12.58 -8.95153
246 1 22.0136 -3.88272e-16 15.7244 -8.94954
247 1 1.5717 1.57194 17.2972 -8.94923
248 1 3.14393 3.59433e-16 15.7249 -8.94954
249 1 4.71637 1.5714 17.2977 -8.94996
250 1 6.2892 3.72874e-16 15.725 -8.95026
251 1 7.86168 1.57124 17.2979 -8.94932
252 1 9.43451 8.65222e-16 15.7252 -8.95013
253 1 11.0072 1.57118 17.2979 -8.94936
254 1 12.5799 5.43343e-16 15.725 -8.95034
255 1 14.1527 1.5712 17.2977 -8.94982
256 1 15.725 9.88046e-16 15.7247 -8.95003
257 1 17.2974 1.57171 17.2973 -8.94953
258 1 18.8693 6.85823e-16 15.7243 -8.94964
259 1 20.4415 1.57214 17.2969 -8.94958
260 1 -0.000607637 3.14421 15.7247 -8.94945
261 1 1.57097 4.71632 17.2979 -8.94958
262 1 3.14278 3.14286 15.7259 -8.94822
263 1 4.71345 4.71367 17.301 -8.94612
264 1 6.28814 3.14134 15.7264 -8.95109
265 1 7.86059 4.71363 17.3005 -8.94751
266 1 9.43435 3.1408 15.7269 -8.94932
267 1 11.0078 4.71331 17.3007 -8.9478
268 1 12.5809 3.14069 15.7264 -8.95067
269 1 14.1556 4.71281 17.3012 -8.94582
270 1 15.7263 3.14211 15.7257 -8.94956
271 1 17.2994 4.71497 17.2989 -8.94766
272 1 18.8697 3.14407 15.7246 -8.94969
273 1 20.4419 4.71664 17.2973 -8.94984
274 1 22.0133 6.28922 15.725 -8.95061
275 1 1.5719 7.86234 17.2972 -8.94954
276 1 3.14057 6.28737 15.7274 -8.94991
277 1 4.71605 7.86264 17.2986 -8.95209
278 1 6.27924 6.27904 15.737 -8.93755
279 1 7.85973 7.85886 17.3059 -8.95742
280 1 9.43367 6.27975 15.7351 -8.94138
281 1 11.0081 7.85788 17.3077 -8.95658
282 1 12.5894 6.27701 15.7379 -8.93501
283 1 14.1552 7.85972 17.3033 -8.95281
284 1 15.7326 6.28265 15.7313 -8.94283
285 1 17.2988 7.86145 17.2985 -8.94927
286 1 18.8714 6.28839 15.7255 -8.95043
287 1 20.442 7.86197 17.2973 -8.94941
288 1 22.0139 9.43457 15.7249 -8.94925
289 1 3.14416 9.43533 15.725 -8.94835
290 1 6.2907 9.43808 15.7258 -8.95609
291 1 9.43416 9.42871 15.7316 -8.96881
292 1 12.5833 9.43354 15.7397 -8.96256
293 1 15.7289 9.43362 15.7291 -8.94744
294 1 18.871 9.43429 15.7255 -8.94913
295 1 -0.000229962 6.19002e-16 18.8693 -8.9494
296 1 1.57199 1.5721 20.4418 -8.9492
297 1 3.14429 4.30728e-16 18.8696 -8.94961
298 1 4.7169 1.57204 20.4419 -8.94949
299 1 6.28932 1.13426e-15 18.8698 -8.94939
300 1 7.86194 1.57197 20.442 -8.94949
301 1 9.43448 9.33427e-16 18.8698 -8.94948
302 1 11.007 1.57196 20.442 -8.9495
303 1 12.5797 1.277e-15 18.8698 -8.94941
304 1 14.1521 1.57199 20.4419 -8.94948
305 1 15.7248 1.55862e-15 18.8697 -8.94954
306 1 17.2971 1.57205 20.4419 -8.94931
307 1 18.8694 7.07738e-16 18.8694 -8.94947
308 1 20.4416 1.57219 20.4417 -8.94924
309 1 22.0136 3.14441 18.8695 -8.94948
310 1 1.57202 4.71707 20.4417 -8.94991
311 1 3.14357 3.14372 18.8704 -8.94856
312 1 4.71623 4.71634 20.4426 -8.94994
313 1 6.28892 3.14356 18.8704 -8.94915
314 1 7.86157 4.71607 20.4427 -8.94924
315 1 9.43439 3.1434 18.8705 -8.94941
316 1 11.0071 4.71599 20.4428 -8.94929
317 1 12.58 3.14339 18.8705 -8.94918
318 1 14.1527 4.71606 20.4428 -8.94966
319 1 15.7255 3.14345 18.8705 -8.94858
320 1 17.2975 4.71653 20.4419 -8.94966
321 1 18.8698 3.14412 18.8697 -8.94901
322 1 20.4417 4.71708 20.4416 -8.94966
323 1 22.0138 6.28963 18.8694 -8.94967
324 1 1.57205 7.86206 20.4416 -8.94941
325 1 3.14396 6.28955 18.87 -8.95048
326 1 4.71671 7.86228 20.4419 -8.94981
327 1 6.28771 6.28791 18.8729 -8.95117
328 1 7.86153 7.86175 20.4434 -8.95171
329 1 9.43401 6.28717 18.8734 -8.94903
330 1 11.0068 7.86146 20.4438 -8.95171
331 1 12.5809 6.28733 18.8735 -8.95058
332 1 14.1527 7.86154 20.4427 -8.95068
333 1 15.7261 6.28833 18.8713 -8.95039
334 1 17.2976 7.86175 20.4419 -8.94929
335 1 18.8699 6.28934 18.8697 -8.9496
336 1 20.4417 7.86199 20.4416 -8.94952
337 1 -0.000103327 9.43449 18.8695 -8.94956
338 1 3.14404 9.4346 18.8697 -8.94907
339 1 6.28913 9.43536 18.87 -8.94957
7 1 9.43452 7.54221e-16 22.0139 -8.94955
44 1 3.1442 9.43446 22.0135 -8.94953
17 1 3.14423 3.14426 22.0138 -8.94948
19 1 6.28936 3.14418 22.014 -8.94939
21 1 9.43448 3.14409 22.014 -8.94948
43 1 22.0138 9.43447 22.0137 -8.94956
27 1 18.8695 3.1444 22.0138 -8.9493
39 1 15.7253 6.28874 22.0133 -8.95004
31 1 3.14436 6.28955 22.0136 -8.94993
33 1 6.289 6.28906 22.0138 -8.95083
3 1 3.14459 8.12883e-16 22.0139 -8.94961
13 1 18.8693 7.77344e-16 22.0139 -8.94927
15 1 22.0138 3.14461 22.0138 -8.94962
23 1 12.5796 3.14412 22.014 -8.94938
49 1 18.8697 9.4344 22.0137 -8.94951
344 1 1.57184 11.007 1.57164 -8.94952
345 1 4.71636 11.007 1.57088 -8.94989
346 1 7.86217 11.007 1.57224 -8.94769
347 1 11.0068 11.007 1.5709 -8.94919
348 1 14.154 11.007 1.56909 -8.94966
349 1 17.2981 11.007 1.57126 -8.94941
350 1 20.4418 11.007 1.5719 -8.94952
688 3 10.1547 11.007 9.53011 2.23148
352 1 1.5719 14.152 1.5717 -8.94933
511 1 18.8695 18.8698 9.4344 -8.94946
354 1 4.71665 14.1518 1.57108 -8.95025
355 1 6.28922 12.5792 -0.00027962 -8.94962
356 1 7.86178 14.1523 1.5706 -8.95208
510 1 15.7254 18.8707 9.43413 -8.94917
358 1 11.0066 14.1527 1.57061 -8.95055
509 1 12.5797 18.8712 9.43422 -8.95129
360 1 14.1535 14.1533 1.56931 -8.95124
361 1 15.7255 12.5798 -0.000631751 -8.94938
362 1 17.298 14.1525 1.57127 -8.94922
538 1 17.2973 20.442 11.0068 -8.94949
364 1 20.4418 14.152 1.57193 -8.94947
508 1 9.43443 18.8698 9.43456 -8.94515
366 1 1.57186 17.2971 1.5717 -8.9498
507 1 6.28751 18.8744 9.43433 -8.95216
368 1 4.71623 17.2978 1.57106 -8.94975
506 1 3.1428 18.8713 9.43425 -8.94908
370 1 7.86178 17.2978 1.57147 -8.94917
371 1 9.43425 15.7253 0.000188586 -8.9499
372 1 11.0071 17.2979 1.57161 -8.94927
373 1 12.5797 15.7251 0.000159891 -8.95014
374 1 14.1524 17.2978 1.57161 -8.94989
505 1 22.0132 18.8699 9.43446 -8.94944
376 1 17.2978 17.2979 1.57138 -8.94862
504 1 18.8702 15.7255 9.43438 -8.94949
378 1 20.4417 17.297 1.572 -8.94956
534 1 4.71579 20.4432 11.0071 -8.94942
380 1 1.57195 20.4418 1.57206 -8.94922
503 1 15.728 15.7277 9.43342 -8.94696
382 1 4.71697 20.4419 1.57206 -8.94959
502 1 12.5828 15.7322 9.42972 -8.95185
384 1 7.86203 20.4419 1.57208 -8.9495
501 1 9.4284 15.7178 9.43844 -9.00545
386 1 11.0071 20.4419 1.5721 -8.94952
532 1 20.4414 17.2975 11.007 -8.94951
388 1 14.152 20.4419 1.5722 -8.94947
500 1 6.27508 15.7432 9.43021 -8.95056
390 1 17.297 20.4419 1.57215 -8.94951
499 1 3.13781 15.7288 9.4336 -8.94821
392 1 20.4415 20.4417 1.57221 -8.94936
393 1 1.57071 11.007 4.71528 -8.94929
394 1 4.71417 11.007 4.71203 -8.946
395 1 7.86542 11.007 4.71973 -8.94483
396 1 11.0092 11.007 4.71251 -8.98428
397 1 14.1608 11.007 4.707 -8.94295
398 1 17.3006 11.007 4.71465 -8.94918
399 1 20.4421 11.007 4.71622 -8.94972
400 1 -0.000309622 12.5795 3.14393 -8.94946
401 1 1.5707 14.1523 4.71556 -8.94932
402 1 3.14346 12.5796 3.14276 -8.94877
403 1 4.71397 14.1533 4.71204 -8.95314
404 1 6.28938 12.5787 3.14235 -8.95152
405 1 7.85857 14.1568 4.70757 -8.95681
406 1 9.43451 12.5798 3.1438 -8.94679
407 1 11.0065 14.1552 4.7101 -8.95231
408 1 12.582 12.5807 3.13684 -8.95729
409 1 14.162 14.1614 4.70542 -8.93892
410 1 15.7276 12.5806 3.14117 -8.94808
411 1 17.3004 14.1537 4.71484 -8.95019
412 1 18.8704 12.5797 3.14372 -8.94934
413 1 20.4419 14.1523 4.71637 -8.94979
414 1 22.0136 15.7246 3.14408 -8.94968
415 1 1.56996 17.2987 4.71515 -8.94809
416 1 3.14331 15.7252 3.14267 -8.9505
417 1 4.71321 17.3012 4.71255 -8.94491
418 1 6.2876 15.7266 3.14042 -8.95072
419 1 7.86133 17.3001 4.71449 -8.94836
420 1 9.43423 15.7267 3.14188 -8.94816
421 1 11.0074 17.2995 4.715 -8.94741
422 1 12.5801 15.7264 3.14189 -8.9499
423 1 14.1541 17.3007 4.71452 -8.95017
424 1 15.7278 15.7278 3.14098 -8.94637
425 1 17.2983 17.2984 4.71599 -8.94888
426 1 18.8703 15.7251 3.14383 -8.9496
427 1 20.4413 17.2974 4.71659 -8.94972
428 1 22.0133 18.8697 3.14415 -8.94911
429 1 1.57164 20.4421 4.71663 -8.94946
430 1 3.14353 18.8704 3.1434 -8.94842
431 1 4.7165 20.4427 4.71622 -8.95004
432 1 6.28923 18.8703 3.14368 -8.94946
433 1 7.86207 20.4425 4.71635 -8.94948
434 1 9.43458 18.8703 3.14381 -8.94948
435 1 11.0073 20.4424 4.71644 -8.94943
436 1 12.5797 18.8703 3.14402 -8.9491
437 1 14.1521 20.4423 4.71683 -8.95045
438 1 15.7252 18.8706 3.14388 -8.94963
439 1 17.2971 20.442 4.71694 -8.94959
440 1 18.8695 18.8697 3.14436 -8.94941
441 1 20.4414 20.4418 4.71706 -8.94959
442 1 1.5683 11.007 7.85954 -8.94738
443 1 4.70991 11.007 7.85297 -8.93486
444 1 7.8744 11.007 7.87524 -8.92371
445 1 11.0731 11.007 7.7195 -8.29029
446 1 14.1678 11.007 7.85006 -8.96021
447 1 17.3018 11.007 7.86062 -8.95102
448 1 20.4417 11.007 7.86147 -8.95007
449 1 22.0126 12.5797 6.28844 -8.94941
450 1 1.56645 14.1538 7.86005 -8.95345
451 1 3.14034 12.5798 6.28563 -8.94744
452 1 4.6945 14.1683 7.84593 -8.93668
453 1 6.28486 12.5785 6.28017 -8.96159
454 1 7.8223 14.1907 7.82491 -8.84995
455 1 9.42553 12.5945 6.29207 -8.92257
456 1 11.0158 14.1627 7.83988 -8.90496
457 1 12.6084 12.6015 6.25595 -8.90819
458 1 14.1653 14.1636 7.85124 -8.93472
459 1 15.7338 12.5822 6.28415 -8.95366
460 1 17.3008 14.1537 7.86094 -8.9512
461 1 18.8715 12.5799 6.28858 -8.95073
462 1 20.4413 14.1525 7.86169 -8.95083
463 1 22.012 15.7255 6.28852 -8.95049
464 1 1.56996 17.2986 7.86129 -8.94928
465 1 3.1369 15.7302 6.28352 -8.94505
466 1 4.71179 17.3041 7.85853 -8.9487
467 1 6.27705 15.7379 6.27595 -8.9304
468 1 7.86022 17.3052 7.86057 -8.95917
469 1 9.43364 15.7326 6.28436 -8.94504
470 1 11.0053 17.2988 7.86197 -8.95266
471 1 12.5841 15.733 6.28266 -8.95183
472 1 14.154 17.3011 7.86026 -8.94976
473 1 15.7292 15.7289 6.28595 -8.94626
474 1 17.2981 17.2982 7.86161 -8.94921
475 1 18.8703 15.7254 6.28893 -8.95009
476 1 20.4413 17.2975 7.86186 -8.94951
477 1 -0.000706336 18.8698 6.28927 -8.94952
478 1 1.5716 20.4421 7.86184 -8.94943
479 1 3.14279 18.8716 6.28808 -8.94929
480 1 4.71609 20.4433 7.8614 -8.95031
481 1 6.28838 18.873 6.28785 -8.95156
482 1 7.86217 20.4433 7.86174 -8.95128
483 1 9.43478 18.872 6.28821 -8.94996
484 1 11.007 20.4422 7.86192 -8.94943
485 1 12.5795 18.8712 6.28916 -8.95175
486 1 14.1523 20.4425 7.86178 -8.9503
487 1 15.7253 18.8709 6.28894 -8.94955
488 1 17.2972 20.442 7.8619 -8.94945
489 1 18.8694 18.8697 6.28942 -8.94953
490 1 20.4414 20.4418 7.86199 -8.94952
491 1 22.0116 12.5794 9.43432 -8.95152
492 1 3.13342 12.5808 9.43126 -8.96029
493 1 6.24204 12.6272 9.39168 -8.86779
494 1 9.34407 12.8223 9.44719 -7.97175
495 1 12.5999 12.6091 9.3907 -8.81073
496 1 15.7312 12.5815 9.43154 -8.94971
497 1 18.871 12.5799 9.43429 -8.94989
498 1 -0.0018608 15.7254 9.43444 -8.94982
513 1 4.71937 11.007 10.9999 -9.00672
514 1 7.60434 11.007 10.9134 -8.00351
531 1 17.2983 17.2983 11.0067 -8.94891
526 1 1.57001 17.2984 11.0073 -8.94914
527 1 4.71184 17.3027 11.008 -8.94622
389 1 15.7247 18.8697 0.00011502 -8.94961
365 1 22.0138 15.7243 -0.000175659 -8.94949
377 1 18.8696 15.7246 -0.000209598 -8.94947
512 1 1.57056 11.007 11.0072 -8.94555
687 3 9.47406 11.007 11.6216 2.15651
686 1 20.4416 20.4417 20.4417 -8.94924
515 1 11.403 11.007 11.0921 -7.1838
516 1 14.1717 11.007 11.0122 -9.02215
517 1 17.3017 11.007 11.0069 -8.95285
518 1 20.4421 11.007 11.0071 -8.94915
519 1 1.56749 14.1531 11.0075 -8.95238
520 1 4.69886 14.16 11.0093 -8.95672
521 1 7.80157 14.1903 11.0349 -8.81446
522 1 11.0457 14.1589 11.0166 -8.86805
523 1 14.1637 14.1568 11.0055 -8.9552
524 1 17.3006 14.1534 11.0067 -8.9504
525 1 20.4415 14.1524 11.0071 -8.95044
391 1 18.8695 18.8695 22.0138 -8.9493
385 1 9.43448 18.8698 22.014 -8.94948
528 1 7.85936 17.3051 11.0093 -8.9594
529 1 11.0064 17.2986 11.0072 -8.95106
530 1 14.1543 17.3002 11.0058 -8.94699
685 1 18.8698 18.8698 18.8697 -8.94901
684 1 17.2971 20.4419 20.4419 -8.94931
533 1 1.57154 20.4421 11.007 -8.94946
683 1 15.7255 18.8705 18.8705 -8.94858
535 1 7.86213 20.4433 11.007 -8.95108
536 1 11.0069 20.4423 11.0067 -8.949
537 1 14.1527 20.4426 11.0065 -8.94939
682 1 14.1521 20.4419 20.4419 -8.94948
539 1 20.4414 20.4418 11.007 -8.94955
540 1 1.57176 11.007 14.1528 -8.94807
541 1 4.71841 11.007 14.1507 -8.94085
542 1 7.87574 11.007 14.1175 -8.92621
543 1 11.0057 11.007 14.1447 -8.97459
544 1 14.1609 11.007 14.1624 -8.93698
545 1 17.3012 11.007 14.1545 -8.94771
546 1 20.4425 11.007 14.1527 -8.94952
547 1 22.0133 12.5793 12.5799 -8.94981
548 1 1.57015 14.152 14.1527 -8.95202
549 1 3.1416 12.5788 12.5796 -8.95201
550 1 4.70726 14.1576 14.1589 -8.95133
551 1 6.27721 12.5995 12.5949 -8.89367
552 1 7.83639 14.1826 14.1877 -8.89564
553 1 9.43812 12.7613 12.6414 -8.218
554 1 11.0314 14.1855 14.1912 -8.87974
555 1 12.6282 12.6394 12.6422 -8.77525
556 1 14.1747 14.172 14.1727 -8.92504
557 1 15.737 12.5832 12.5849 -8.95719
558 1 17.3031 14.1544 14.1546 -8.95294
559 1 18.8721 12.5797 12.58 -8.95153
560 1 20.4425 14.1522 14.1524 -8.9508
561 1 -0.00153045 15.7252 12.58 -8.95008
562 1 1.57012 17.2982 14.153 -8.94922
563 1 3.13833 15.7281 12.582 -8.9489
564 1 4.71147 17.3031 14.1567 -8.94404
565 1 6.27354 15.7433 12.5925 -8.93111
566 1 7.86078 17.3049 14.1558 -8.95653
567 1 9.43578 15.7269 12.5862 -8.98866
568 1 11.0082 17.306 14.1563 -8.95549
569 1 12.589 15.7424 12.5866 -8.95663
570 1 14.1566 17.3044 14.1555 -8.95005
571 1 15.7293 15.7284 12.5801 -8.94957
572 1 17.2988 17.2985 14.1524 -8.94978
573 1 18.8706 15.7254 12.5796 -8.94972
574 1 20.4415 17.2974 14.1522 -8.94968
575 1 22.0132 18.8698 12.5796 -8.94942
576 1 1.57159 20.442 14.1522 -8.94942
577 1 3.14277 18.8712 12.5801 -8.94902
578 1 4.71593 20.4432 14.1527 -8.95004
579 1 6.28739 18.8745 12.5808 -8.95232
580 1 7.862 20.4434 14.1525 -8.95077
581 1 9.43488 18.8717 12.5803 -8.94731
582 1 11.0072 20.4436 14.1525 -8.95104
583 1 12.5805 18.8735 12.5793 -8.95354
584 1 14.1528 20.4432 14.1522 -8.95077
585 1 15.7255 18.8709 12.5792 -8.94944
586 1 17.2973 20.4421 14.1518 -8.94959
587 1 18.8696 18.8698 12.5794 -8.9494
588 1 20.4414 20.4418 14.1519 -8.94951
589 1 1.57182 11.007 17.2974 -8.94972
590 1 4.71585 11.007 17.298 -8.94741
591 1 7.86258 11.007 17.2932 -8.93581
592 1 11.0062 11.007 17.299 -8.94243
593 1 14.1557 11.007 17.3028 -8.94635
594 1 17.2989 11.007 17.2986 -8.94929
595 1 20.442 11.007 17.2974 -8.94958
596 1 22.0139 12.5793 15.7249 -8.94925
597 1 1.5719 14.1516 17.2972 -8.94954
598 1 3.14416 12.5786 15.725 -8.94835
599 1 4.71605 14.1513 17.2986 -8.95209
600 1 6.2907 12.5758 15.7258 -8.95609
601 1 7.85973 14.155 17.3059 -8.95742
602 1 9.43416 12.5852 15.7316 -8.96881
603 1 11.0081 14.156 17.3077 -8.95658
604 1 12.5833 12.5804 15.7397 -8.96256
605 1 14.1552 14.1542 17.3033 -8.95281
606 1 15.7289 12.5803 15.7291 -8.94744
607 1 17.2988 14.1525 17.2985 -8.94927
608 1 18.871 12.5796 15.7255 -8.94913
609 1 20.442 14.1519 17.2973 -8.94941
610 1 22.0133 15.7247 15.725 -8.95061
611 1 1.57097 17.2976 17.2979 -8.94958
612 1 3.14057 15.7265 15.7274 -8.94991
613 1 4.71345 17.3002 17.301 -8.94612
614 1 6.27924 15.7349 15.737 -8.93755
615 1 7.86059 17.3003 17.3005 -8.94751
616 1 9.43367 15.7342 15.7351 -8.94138
617 1 11.0078 17.3006 17.3007 -8.9478
618 1 12.5894 15.7369 15.7379 -8.93501
619 1 14.1556 17.3011 17.3012 -8.94582
620 1 15.7326 15.7312 15.7313 -8.94283
621 1 17.2994 17.2989 17.2989 -8.94766
622 1 18.8714 15.7255 15.7255 -8.95043
623 1 20.4419 17.2973 17.2973 -8.94984
624 1 -0.000607637 18.8697 15.7247 -8.94945
625 1 1.5717 20.442 17.2972 -8.94923
626 1 3.14278 18.871 15.7259 -8.94822
627 1 4.71637 20.4425 17.2977 -8.94996
628 1 6.28814 18.8726 15.7264 -8.95109
629 1 7.86168 20.4427 17.2979 -8.94932
630 1 9.43435 18.8731 15.7269 -8.94932
631 1 11.0072 20.4427 17.2979 -8.94936
632 1 12.5809 18.8732 15.7264 -8.95067
633 1 14.1527 20.4427 17.2977 -8.94982
634 1 15.7263 18.8718 15.7257 -8.94956
635 1 17.2974 20.4422 17.2973 -8.94953
636 1 18.8697 18.8698 15.7246 -8.94969
637 1 20.4415 20.4418 17.2969 -8.94958
638 1 1.57199 11.007 20.4416 -8.94957
639 1 4.71641 11.007 20.4418 -8.94965
640 1 7.86149 11.007 20.4417 -8.94707
641 1 11.0068 11.007 20.4427 -8.94816
642 1 14.1531 11.007 20.4427 -8.95005
643 1 17.2977 11.007 20.4419 -8.94946
644 1 20.4417 11.007 20.4416 -8.94956
645 1 -0.000103327 12.5794 18.8695 -8.94956
646 1 1.57205 14.1518 20.4416 -8.94941
647 1 3.14404 12.5793 18.8697 -8.94907
648 1 4.71671 14.1516 20.4419 -8.94981
649 1 6.28913 12.5785 18.87 -8.94957
650 1 7.86153 14.1522 20.4434 -8.95171
651 1 9.43387 12.5791 18.8718 -8.95031
652 1 11.0068 14.1524 20.4438 -8.95171
653 1 12.5801 12.5792 18.8732 -8.9522
654 1 14.1527 14.1524 20.4427 -8.95068
655 1 15.7261 12.5798 18.8712 -8.94886
656 1 17.2976 14.1521 20.4419 -8.94929
657 1 18.8699 12.5795 18.8698 -8.94944
658 1 20.4417 14.1519 20.4416 -8.94952
659 1 22.0138 15.7243 18.8694 -8.94967
660 1 1.57202 17.2968 20.4417 -8.94991
661 1 3.14396 15.7243 18.87 -8.95048
662 1 4.71623 17.2976 20.4426 -8.94994
663 1 6.28771 15.726 18.8729 -8.95117
664 1 7.86157 17.2978 20.4427 -8.94924
665 1 9.43401 15.7267 18.8734 -8.94903
666 1 11.0071 17.2979 20.4428 -8.94929
667 1 12.5809 15.7266 18.8735 -8.95058
668 1 14.1527 17.2978 20.4428 -8.94966
669 1 15.7261 15.7256 18.8713 -8.95039
670 1 17.2975 17.2974 20.4419 -8.94966
671 1 18.8699 15.7246 18.8697 -8.9496
672 1 20.4417 17.2968 20.4416 -8.94966
673 1 22.0136 18.8695 18.8695 -8.94948
674 1 1.57199 20.4418 20.4418 -8.9492
675 1 3.14357 18.8702 18.8704 -8.94856
676 1 4.7169 20.4419 20.4419 -8.94949
677 1 6.28892 18.8703 18.8704 -8.94915
678 1 7.86194 20.4419 20.442 -8.94949
679 1 9.43439 18.8705 18.8705 -8.94941
680 1 11.007 20.4419 20.442 -8.9495
681 1 12.58 18.8705 18.8705 -8.94918
351 1 22.0138 12.5794 22.0137 -8.94956
353 1 3.1442 12.5794 22.0135 -8.94953
357 1 9.4342 12.5793 22.0141 -8.94908
359 1 12.5798 12.5795 22.0131 -8.9514
383 1 6.28936 18.8697 22.014 -8.94939
367 1 3.14436 15.7243 22.0136 -8.94993
369 1 6.289 15.7248 22.0138 -8.95083
375 1 15.7253 15.7252 22.0133 -8.95004
381 1 3.14423 18.8696 22.0138 -8.94948
363 1 18.8697 12.5795 22.0137 -8.94951
379 1 22.0138 18.8693 22.0138 -8.94962
387 1 12.5796 18.8698 22.014 -8.94938
