ITEM: TIMESTEP
107
ITEM: NUMBER OF ATOMS
688
ITEM: BOX BOUNDS pp pp pp
0.0000000000000000e+00 2.2013900999999997e+01
0.0000000000000000e+00 2.2013900999999997e+01
0.0000000000000000e+00 2.2013900999999997e+01
ITEM: ATOMS id type x y z c_pot
1 1 22.0136 6.05114e-15 -2.5665e-05 -8.94899
2 1 1.57165 1.57188 1.57181 -8.9491
189 1 20.4412 4.71596 11.0071 -8.94951
4 1 4.71671 1.57183 1.57186 -8.94951
5 1 6.28936 9.29969e-15 8.78733e-05 -8.94946
6 1 7.86194 1.57181 1.57197 -8.94944
175 1 18.8714 9.4339 9.43404 -8.95006
8 1 11.0071 1.57181 1.57205 -8.94946
9 1 12.5797 1.88649e-15 0.000178194 -8.94946
10 1 14.1522 1.57183 1.57217 -8.94943
174 1 15.7328 9.43178 9.43082 -8.94959
12 1 17.2973 1.57177 1.57205 -8.94946
188 1 17.2986 4.71517 11.0067 -8.94891
14 1 20.4414 1.57201 1.57204 -8.94921
181 1 17.2975 1.57167 11.0068 -8.94946
16 1 1.57158 4.71653 1.57133 -8.94982
173 1 12.6027 9.402 9.3904 -8.80823
18 1 4.71589 4.71581 1.57067 -8.94984
172 1 9.34628 9.18481 9.44311 -7.95703
20 1 7.8616 4.71574 1.57128 -8.94918
171 1 6.24134 9.38447 9.39098 -8.86583
22 1 11.0071 4.7157 1.57151 -8.94922
177 1 4.71528 1.57025 11.0072 -8.94948
24 1 14.1527 4.71566 1.57142 -8.94996
170 1 3.13264 9.43251 9.43049 -8.96003
26 1 17.2982 4.71566 1.57117 -8.94872
169 1 22.0113 9.43433 9.43405 -8.95156
28 1 20.4418 4.71661 1.57174 -8.94951
168 1 18.8704 6.28806 9.43422 -8.94952
30 1 1.57172 7.8618 1.57131 -8.94929
167 1 15.7286 6.28556 9.43299 -8.94697
32 1 4.71648 7.86203 1.57073 -8.95037
166 1 12.5835 6.28096 9.42994 -8.9524
34 1 7.86165 7.86147 1.5705 -8.95196
35 1 9.43417 6.2884 0.000308502 -8.94998
36 1 11.0067 7.8611 1.57063 -8.9506
37 1 12.5798 6.2885 0.000279767 -8.95024
38 1 14.1538 7.86031 1.56911 -8.95105
165 1 9.42793 6.29595 9.43884 -9.007
40 1 17.2985 7.86111 1.57093 -8.94921
164 1 6.27375 6.26935 9.43025 -8.95109
42 1 20.4419 7.86169 1.57162 -8.9494
163 1 3.13646 6.284 9.43313 -8.94801
162 1 -0.00242031 6.28805 9.43427 -8.94986
45 1 6.28923 9.43478 -0.000383893 -8.94962
161 1 18.8696 3.14374 9.4343 -8.9494
160 1 15.7256 3.14283 9.43395 -8.94918
48 1 15.7259 9.434 -0.000679659 -8.94943
159 1 12.5798 3.14256 9.43424 -8.95141
50 1 22.0133 3.11327e-15 3.14429 -8.94935
51 1 1.57119 1.57146 4.71621 -8.9494
52 1 3.14397 3.21094e-13 3.14389 -8.94958
53 1 4.71615 1.57088 4.7158 -8.95009
54 1 6.28937 -9.78771e-15 3.144 -8.94943
55 1 7.86197 1.57112 4.71607 -8.94947
56 1 9.43465 1.36988e-13 3.14408 -8.94949
57 1 11.0073 1.57135 4.71626 -8.94939
58 1 12.5797 1.01633e-13 3.14426 -8.94939
59 1 14.1523 1.57137 4.71668 -8.95049
60 1 15.7247 1.11881e-13 3.14442 -8.95001
61 1 17.2973 1.57165 4.71671 -8.9496
62 1 18.8693 -2.09e-14 3.14449 -8.94949
63 1 20.4413 1.57193 4.71681 -8.94951
64 1 22.013 3.14381 3.14374 -8.949
65 1 1.56923 4.71456 4.71442 -8.94801
66 1 3.14302 3.14298 3.14283 -8.9483
67 1 4.71233 4.71182 4.71161 -8.94462
68 1 6.28894 3.14313 3.14327 -8.94937
69 1 7.86094 4.71321 4.71398 -8.94813
70 1 9.43456 3.14321 3.14358 -8.94946
71 1 11.0074 4.71405 4.71467 -8.94726
72 1 12.5798 3.14333 3.14382 -8.94907
73 1 14.1545 4.71279 4.71396 -8.94981
74 1 15.7255 3.14293 3.1436 -8.94958
75 1 17.2987 4.71487 4.71544 -8.94879
76 1 18.8696 3.1438 3.14404 -8.94932
77 1 20.4412 4.716 4.71616 -8.94973
78 1 22.0134 6.28898 3.1436 -8.94963
79 1 1.5702 7.86125 4.71489 -8.94927
80 1 3.14282 6.28831 3.14199 -8.95059
81 1 4.7134 7.86016 4.71127 -8.95325
82 1 6.28727 6.2869 3.1399 -8.95094
83 1 7.85849 7.85696 4.70748 -8.95772
84 1 9.43416 6.28679 3.14162 -8.94834
85 1 11.0065 7.85878 4.70999 -8.95306
86 1 12.5803 6.28721 3.1415 -8.95023
87 1 14.1616 7.85301 4.70543 -8.94082
88 1 15.7281 6.28581 3.14061 -8.94688
89 1 17.3008 7.85983 4.71422 -8.95003
90 1 18.8706 6.28842 3.14342 -8.94954
91 1 20.442 7.86134 4.7159 -8.94973
92 1 -0.000409593 9.43426 3.14345 -8.94939
93 1 3.14315 9.43418 3.14219 -8.94874
94 1 6.28928 9.43525 3.14224 -8.95172
95 1 9.43416 9.43373 3.14392 -8.94559
96 1 12.5824 9.43294 3.13662 -8.95618
97 1 15.7282 9.43312 3.14061 -8.94829
98 1 18.8708 9.43403 3.14325 -8.94931
99 1 22.0133 1.49734e-14 6.28927 -8.94947
100 1 1.57111 1.57147 7.86161 -8.94937
101 1 3.14356 -7.10428e-14 6.28871 -8.94984
102 1 4.71563 1.57018 7.86117 -8.95039
103 1 6.28925 5.65407e-12 6.2888 -8.95066
104 1 7.86205 1.57046 7.86169 -8.95143
105 1 9.4348 5.49798e-12 6.28887 -8.9502
106 1 11.0069 1.57167 7.86191 -8.94952
107 1 12.5795 2.32836e-12 6.28936 -8.95011
108 1 14.1524 1.57123 7.86166 -8.95037
109 1 15.7248 -3.63171e-13 6.28925 -8.94995
110 1 17.2973 1.57169 7.86174 -8.94943
111 1 18.8693 2.09511e-15 6.28939 -8.94949
112 1 20.4413 1.5719 7.86185 -8.94945
113 1 -0.00111847 3.14362 6.28892 -8.94943
114 1 1.56907 4.71456 7.86083 -8.94918
115 1 3.14205 3.14155 6.28749 -8.94927
116 1 4.71064 4.70866 7.85796 -8.9487
117 1 6.28788 3.14019 6.28741 -8.95169
118 1 7.85953 4.70792 7.86037 -8.95952
119 1 9.43461 3.14157 6.28798 -8.94989
120 1 11.0051 4.71473 7.86182 -8.95333
121 1 12.5795 3.1425 6.28895 -8.95172
122 1 14.1543 4.71235 7.85978 -8.94981
123 1 15.7256 3.14258 6.2886 -8.94962
124 1 17.2984 4.71516 7.86125 -8.94916
125 1 18.8695 3.14378 6.28916 -8.94947
126 1 20.4411 4.71595 7.86164 -8.94951
127 1 22.0115 6.28795 6.288 -8.95056
128 1 1.56553 7.85961 7.85943 -8.95356
129 1 3.13565 6.28263 6.28247 -8.94501
130 1 4.6929 7.84423 7.84481 -8.93673
131 1 6.27565 6.27463 6.27482 -8.92951
132 1 7.82046 7.82124 7.82338 -8.84639
133 1 9.43323 6.28081 6.28385 -8.94406
134 1 11.0174 7.84888 7.83894 -8.90093
135 1 12.5847 6.28056 6.28171 -8.94998
136 1 14.1664 7.84952 7.84966 -8.93488
137 1 15.73 6.28422 6.28497 -8.94607
138 1 17.3015 7.85966 7.86022 -8.95123
139 1 18.8706 6.28804 6.28845 -8.95013
140 1 20.4412 7.86115 7.86137 -8.95093
141 1 22.0123 9.43409 6.28793 -8.94933
142 1 3.1397 9.43379 6.28484 -8.9474
143 1 6.28452 9.43514 6.27994 -8.96128
144 1 9.42671 9.42068 6.29375 -8.92892
145 1 12.6054 9.41552 6.25769 -8.91634
146 1 15.7338 9.43169 6.28329 -8.9529
147 1 18.8717 9.43385 6.28804 -8.95055
148 1 -0.000669685 -6.05865e-16 9.43441 -8.94946
149 1 3.14334 1.20691e-13 9.43427 -8.94945
150 1 6.28886 1.02618e-11 9.43438 -8.95109
151 1 9.43475 5.67908e-11 9.43431 -8.94801
152 1 12.5796 1.35028e-12 9.43429 -8.95006
153 1 15.7251 -3.15331e-13 9.43414 -8.94954
154 1 18.8694 2.98249e-15 9.43436 -8.94949
155 1 22.0128 3.14363 9.43438 -8.94937
156 1 3.142 3.14185 9.43412 -8.94904
157 1 6.28686 3.13877 9.43436 -8.95224
158 1 9.43419 3.14422 9.4348 -8.94511
183 1 1.56923 4.71486 11.0074 -8.9491
184 1 4.71064 4.7101 11.0083 -8.94621
11 1 15.7247 3.90401e-15 0.000180744 -8.9495
25 1 15.725 3.14382 0.000188059 -8.94958
29 1 22.0138 6.28941 -0.000323569 -8.94945
41 1 18.87 6.28908 -0.000294037 -8.94941
176 1 1.57105 1.57152 11.0071 -8.94938
343 1 18.8704 9.4343 18.8701 -8.94937
178 1 7.86198 1.57046 11.0071 -8.95108
179 1 11.0069 1.5716 11.0067 -8.94888
180 1 14.1528 1.57111 11.0065 -8.94945
342 1 15.7266 9.43392 18.8718 -8.94887
182 1 20.4413 1.57189 11.007 -8.94948
47 1 12.5799 9.43428 22.0132 -8.95138
46 1 9.43413 9.43455 22.0141 -8.94887
185 1 7.85852 4.70838 11.0097 -8.95878
186 1 11.0066 4.71536 11.0076 -8.95038
187 1 14.1549 4.71308 11.006 -8.94689
341 1 12.5802 9.43455 18.8736 -8.95237
340 1 9.43392 9.43471 18.8714 -8.95006
190 1 1.56677 7.86032 11.0074 -8.9525
191 1 4.69731 7.8525 11.009 -8.95615
192 1 7.80102 7.82386 11.0363 -8.81711
193 1 11.0468 7.85538 11.0186 -8.86964
194 1 14.1656 7.8561 11.006 -8.95431
195 1 17.3014 7.86007 11.0068 -8.95049
196 1 20.4415 7.86125 11.0072 -8.95056
197 1 -0.000648296 -1.36226e-15 12.5796 -8.94945
198 1 1.57113 1.57159 14.1525 -8.94932
199 1 3.14332 1.53792e-13 12.5799 -8.94936
200 1 4.71547 1.57032 14.1532 -8.95014
201 1 6.28884 5.45579e-12 12.5798 -8.95121
202 1 7.86188 1.57028 14.1529 -8.95072
203 1 9.43474 5.52117e-12 12.5797 -8.94911
204 1 11.0073 1.57014 14.1528 -8.951
205 1 12.5799 2.26225e-12 12.5792 -8.95099
206 1 14.1531 1.57032 14.1524 -8.95096
207 1 15.7252 -3.0943e-13 12.5792 -8.94953
208 1 17.2976 1.57157 14.152 -8.94958
209 1 18.8694 6.92137e-16 12.5794 -8.94947
210 1 20.4414 1.57192 14.1521 -8.94945
211 1 22.0129 3.14371 12.5798 -8.94935
212 1 1.56953 4.71519 14.1535 -8.94919
213 1 3.14203 3.14206 12.5806 -8.94893
214 1 4.71059 4.70981 14.1577 -8.94411
215 1 6.28686 3.13876 12.5812 -8.95247
216 1 7.86048 4.70857 14.1565 -8.95589
217 1 9.43481 3.14194 12.5807 -8.94787
218 1 11.0084 4.70761 14.1571 -8.9548
219 1 12.5807 3.14007 12.5796 -8.95374
220 1 14.1574 4.70846 14.1564 -8.95012
221 1 15.7259 3.14251 12.5794 -8.94941
222 1 17.2994 4.71463 14.1529 -8.94979
223 1 18.8697 3.14373 12.5795 -8.94935
224 1 20.4416 4.7161 14.1525 -8.94972
225 1 -0.00184289 6.28834 12.5802 -8.95015
226 1 1.56989 7.86165 14.153 -8.95207
227 1 3.13732 6.28496 12.5825 -8.9488
228 1 4.70657 7.85518 14.1597 -8.94981
229 1 6.27246 6.26949 12.5933 -8.9316
230 1 7.83855 7.83233 14.1855 -8.9027
231 1 9.43574 6.28507 12.5862 -8.98535
232 1 11.0297 7.82958 14.1895 -8.88714
233 1 12.59 6.27062 12.5878 -8.95676
234 1 14.176 7.84048 14.1744 -8.92333
235 1 15.7303 6.28459 12.5808 -8.94947
236 1 17.3041 7.85874 14.1555 -8.95275
237 1 18.871 6.28812 12.5798 -8.94979
238 1 20.4428 7.86149 14.1527 -8.95086
239 1 22.0134 9.43455 12.5799 -8.94996
240 1 3.14091 9.43475 12.5795 -8.95257
241 1 6.2744 9.41258 12.5959 -8.88953
242 1 9.43843 9.26761 12.6363 -8.23533
243 1 12.6315 9.37322 12.6438 -8.77173
244 1 15.7389 9.42998 12.586 -8.95695
245 1 18.8728 9.434 12.5804 -8.95169
246 1 22.0133 1.86293e-16 15.7247 -8.94945
247 1 1.57133 1.57173 17.2976 -8.94912
248 1 3.14347 2.96687e-13 15.7253 -8.94954
249 1 4.71601 1.57117 17.2981 -8.94991
250 1 6.28897 -8.66514e-14 15.7254 -8.95022
251 1 7.86151 1.57099 17.2984 -8.94929
252 1 9.43451 5.10893e-14 15.7256 -8.95012
253 1 11.0073 1.57089 17.2984 -8.94934
254 1 12.5801 5.09701e-14 15.7253 -8.95033
255 1 14.153 1.57088 17.2982 -8.94979
256 1 15.7254 1.15274e-13 15.725 -8.95014
257 1 17.2979 1.57139 17.2977 -8.94948
258 1 18.8695 -1.57855e-14 15.7245 -8.9496
259 1 20.4416 1.57194 17.2971 -8.94951
260 1 -0.000832023 3.14388 15.7251 -8.94942
261 1 1.57066 4.71599 17.2984 -8.94951
262 1 3.14215 3.14228 15.7266 -8.94815
263 1 4.71312 4.71333 17.3015 -8.94647
264 1 6.28778 3.14089 15.727 -8.95093
265 1 7.86039 4.71316 17.3012 -8.94758
266 1 9.43432 3.14038 15.7275 -8.94928
267 1 11.0079 4.71272 17.3015 -8.94785
268 1 12.5811 3.14015 15.727 -8.95051
269 1 14.156 4.71213 17.302 -8.94611
270 1 15.7269 3.14136 15.7264 -8.94954
271 1 17.3001 4.71429 17.2995 -8.9475
272 1 18.8701 3.14363 15.7249 -8.94967
273 1 20.4422 4.7163 17.2977 -8.94984
274 1 22.0133 6.28897 15.7253 -8.95067
275 1 1.5719 7.86228 17.2975 -8.9495
276 1 3.14006 6.2868 15.7281 -8.94959
277 1 4.71605 7.8625 17.2989 -8.9523
278 1 6.27946 6.27899 15.7371 -8.93888
279 1 7.85998 7.85873 17.3055 -8.95723
280 1 9.43372 6.27949 15.7354 -8.94136
281 1 11.0081 7.85757 17.3077 -8.95632
282 1 12.5893 6.27669 15.7385 -8.93635
283 1 14.1558 7.85911 17.3043 -8.95296
284 1 15.7336 6.28158 15.7325 -8.94238
285 1 17.2995 7.861 17.2992 -8.9492
286 1 18.8721 6.28789 15.7261 -8.95039
287 1 20.4424 7.86182 17.2976 -8.94936
288 1 22.0141 9.43452 15.7252 -8.94917
289 1 3.14421 9.43519 15.7251 -8.94807
290 1 6.29113 9.4378 15.7253 -8.95699
291 1 9.43463 9.42927 15.7299 -8.96855
292 1 12.5839 9.43305 15.7403 -8.96335
293 1 15.7299 9.43314 15.7303 -8.94725
294 1 18.8716 9.43411 15.726 -8.94905
295 1 -0.000375519 5.34005e-15 18.8695 -8.94925
296 1 1.57175 1.57195 20.4419 -8.94912
297 1 3.14396 1.26566e-17 18.87 -8.94956
298 1 4.71661 1.57187 20.4421 -8.94941
299 1 6.28906 1.16277e-14 18.8701 -8.94932
300 1 7.86178 1.57178 20.4422 -8.94942
301 1 9.43444 4.16446e-15 18.8702 -8.94943
302 1 11.0071 1.57175 20.4423 -8.94942
303 1 12.5799 4.32111e-15 18.8702 -8.94935
304 1 14.1524 1.57177 20.4422 -8.94939
305 1 15.7251 2.40493e-15 18.87 -8.94949
306 1 17.2974 1.57184 20.4421 -8.94924
307 1 18.8696 2.45524e-15 18.8697 -8.94935
308 1 20.4417 1.57204 20.4418 -8.94908
309 1 22.0135 3.14418 18.8698 -8.94941
310 1 1.57185 4.71691 20.4418 -8.94995
311 1 3.14322 3.14345 18.8707 -8.94863
312 1 4.71594 4.71612 20.4428 -8.95002
313 1 6.2886 3.14322 18.8709 -8.94911
314 1 7.86136 4.71573 20.4431 -8.94926
315 1 9.43431 3.14298 18.8711 -8.94937
316 1 11.0072 4.7156 20.4432 -8.9493
317 1 12.5802 3.14293 18.8711 -8.94911
318 1 14.153 4.71564 20.4432 -8.94969
319 1 15.726 3.14297 18.871 -8.94862
320 1 17.298 4.71613 20.4422 -8.94963
321 1 18.8702 3.14376 18.8701 -8.9489
322 1 20.4419 4.71687 20.4417 -8.94961
323 1 22.0139 6.28952 18.8696 -8.94965
324 1 1.572 7.86203 20.4416 -8.94939
325 1 3.14377 6.28943 18.8703 -8.9506
326 1 4.71664 7.8623 20.4419 -8.94992
327 1 6.28757 6.28773 18.8732 -8.95125
328 1 7.86149 7.86167 20.4434 -8.95166
329 1 9.43393 6.28678 18.8738 -8.94907
330 1 11.0068 7.86129 20.444 -8.95167
331 1 12.5811 6.28689 18.8741 -8.95058
332 1 14.153 7.86129 20.443 -8.95079
333 1 15.7266 6.28777 18.872 -8.95043
334 1 17.2981 7.8615 20.4421 -8.94926
335 1 18.8703 6.28904 18.87 -8.94954
336 1 20.442 7.86188 20.4417 -8.94946
337 1 4.1793e-05 9.43448 18.8696 -8.94952
338 1 3.14406 9.43463 18.8697 -8.94909
339 1 6.2893 9.43538 18.8698 -8.94964
7 1 9.43451 -5.04651e-15 22.014 -8.94949
44 1 3.14408 9.43446 22.0133 -8.94953
17 1 3.14393 3.14401 22.0138 -8.94948
19 1 6.28912 3.1439 22.014 -8.94934
21 1 9.43443 3.14379 22.0141 -8.94943
43 1 22.0138 9.43442 22.0135 -8.9495
27 1 18.8698 3.14413 22.0138 -8.94925
39 1 15.7257 6.28839 22.0133 -8.95005
31 1 3.14417 6.28945 22.0134 -8.95002
33 1 6.28882 6.2889 22.0137 -8.95087
3 1 3.14433 3.03394e-15 22.0139 -8.94952
13 1 18.8694 2.56045e-15 22.0139 -8.94913
15 1 22.0137 3.14441 22.0137 -8.94957
23 1 12.5798 3.14379 22.0142 -8.94931
49 1 18.87 9.43429 22.0136 -8.94944
344 1 1.57169 11.007 1.57125 -8.94948
345 1 4.71624 11.007 1.57057 -8.94989
346 1 7.86225 11.007 1.57248 -8.9473
347 1 11.0068 11.007 1.57052 -8.95039
348 1 14.1544 11.007 1.56885 -8.9497
349 1 17.2986 11.007 1.57089 -8.94938
350 1 20.442 11.007 1.57158 -8.94945
688 3 10.1381 11.0068 9.55115 2.22251
352 1 1.57172 14.1521 1.57131 -8.94929
511 1 18.8696 18.8702 9.4343 -8.9494
354 1 4.71648 14.1519 1.57073 -8.95037
355 1 6.28923 12.5791 -0.000383893 -8.94962
356 1 7.86165 14.1524 1.5705 -8.95196
510 1 15.7256 18.8711 9.43395 -8.94918
358 1 11.0067 14.1528 1.57063 -8.9506
509 1 12.5798 18.8713 9.43424 -8.95141
360 1 14.1538 14.1536 1.56911 -8.95105
361 1 15.7259 12.5799 -0.000679659 -8.94943
362 1 17.2985 14.1528 1.57093 -8.94921
538 1 17.2975 20.4422 11.0068 -8.94946
364 1 20.4419 14.1522 1.57162 -8.9494
508 1 9.43419 18.8697 9.4348 -8.94511
366 1 1.57158 17.2974 1.57133 -8.94982
507 1 6.28686 18.8751 9.43436 -8.95224
368 1 4.71589 17.2981 1.57067 -8.94984
506 1 3.142 18.872 9.43412 -8.94904
370 1 7.8616 17.2982 1.57128 -8.94918
371 1 9.43417 15.7255 0.000308502 -8.94998
372 1 11.0071 17.2982 1.57151 -8.94922
373 1 12.5798 15.7254 0.000279767 -8.95024
374 1 14.1527 17.2982 1.57142 -8.94996
505 1 22.0128 18.8703 9.43438 -8.94937
376 1 17.2982 17.2982 1.57117 -8.94872
504 1 18.8704 15.7258 9.43422 -8.94952
378 1 20.4418 17.2973 1.57174 -8.94951
534 1 4.71528 20.4436 11.0072 -8.94948
380 1 1.57165 20.442 1.57181 -8.9491
503 1 15.7286 15.7283 9.43299 -8.94697
382 1 4.71671 20.4421 1.57186 -8.94951
502 1 12.5835 15.7329 9.42994 -8.95241
384 1 7.86194 20.4421 1.57197 -8.94944
501 1 9.42793 15.718 9.43884 -9.00702
386 1 11.0071 20.4421 1.57205 -8.94946
532 1 20.4412 17.2979 11.0071 -8.94951
388 1 14.1522 20.4421 1.57217 -8.94943
500 1 6.27375 15.7445 9.43025 -8.9511
390 1 17.2973 20.4421 1.57205 -8.94946
499 1 3.13646 15.7299 9.43313 -8.94801
392 1 20.4414 20.4419 1.57204 -8.94921
393 1 1.57033 11.007 4.71464 -8.94924
394 1 4.71378 11.007 4.71151 -8.94585
395 1 7.86547 11.007 4.72077 -8.9443
396 1 11.0087 11.007 4.70892 -8.98094
397 1 14.1608 11.007 4.70663 -8.9432
398 1 17.301 11.007 4.71396 -8.94912
399 1 20.4421 11.007 4.71573 -8.94969
400 1 -0.000409593 12.5796 3.14345 -8.94939
401 1 1.5702 14.1526 4.71489 -8.94927
402 1 3.14315 12.5797 3.14219 -8.94874
403 1 4.7134 14.1537 4.71127 -8.95325
404 1 6.28928 12.5787 3.14224 -8.95172
405 1 7.85849 14.1569 4.70748 -8.95772
406 1 9.43416 12.5802 3.14392 -8.94559
407 1 11.0065 14.1551 4.70999 -8.95306
408 1 12.5824 12.581 3.13662 -8.95618
409 1 14.1616 14.1609 4.70543 -8.94082
410 1 15.7282 12.5808 3.14061 -8.94829
411 1 17.3008 14.1541 4.71422 -8.95003
412 1 18.8708 12.5799 3.14325 -8.94931
413 1 20.442 14.1526 4.7159 -8.94973
414 1 22.0134 15.7249 3.1436 -8.94963
415 1 1.56923 17.2993 4.71442 -8.94801
416 1 3.14282 15.7256 3.14199 -8.95059
417 1 4.71233 17.3021 4.71161 -8.94462
418 1 6.28727 15.727 3.1399 -8.95094
419 1 7.86094 17.3007 4.71398 -8.94813
420 1 9.43416 15.7271 3.14162 -8.94834
421 1 11.0074 17.2998 4.71467 -8.94726
422 1 12.5803 15.7267 3.1415 -8.95023
423 1 14.1545 17.3011 4.71396 -8.94981
424 1 15.7281 15.7281 3.14061 -8.94688
425 1 17.2987 17.299 4.71544 -8.94879
426 1 18.8706 15.7255 3.14342 -8.94954
427 1 20.4412 17.2979 4.71616 -8.94973
428 1 22.013 18.8701 3.14374 -8.949
429 1 1.57119 20.4424 4.71621 -8.9494
430 1 3.14302 18.8709 3.14283 -8.9483
431 1 4.71615 20.443 4.7158 -8.95009
432 1 6.28894 18.8708 3.14327 -8.94937
433 1 7.86197 20.4428 4.71607 -8.94947
434 1 9.43456 18.8707 3.14358 -8.94946
435 1 11.0073 20.4426 4.71626 -8.94939
436 1 12.5798 18.8706 3.14382 -8.94907
437 1 14.1523 20.4425 4.71668 -8.95049
438 1 15.7255 18.871 3.1436 -8.94958
439 1 17.2973 20.4423 4.71671 -8.9496
440 1 18.8696 18.8701 3.14404 -8.94932
441 1 20.4413 20.442 4.71681 -8.94951
442 1 1.56786 11.007 7.85893 -8.94728
443 1 4.70947 11.007 7.85256 -8.93534
444 1 7.87358 11.007 7.87819 -8.92321
445 1 11.069 11.007 7.73855 -8.31658
446 1 14.168 11.007 7.85 -8.95917
447 1 17.3022 11.007 7.85991 -8.95076
448 1 20.4417 11.007 7.8611 -8.95001
449 1 22.0123 12.5798 6.28793 -8.94933
450 1 1.56553 14.1543 7.85943 -8.95356
451 1 3.1397 12.5801 6.28484 -8.9474
452 1 4.6929 14.1697 7.84481 -8.93673
453 1 6.28452 12.5788 6.27994 -8.96128
454 1 7.82046 14.1927 7.82338 -8.84632
455 1 9.42671 12.5932 6.29375 -8.92892
456 1 11.0174 14.165 7.83894 -8.90092
457 1 12.6054 12.5984 6.25769 -8.91634
458 1 14.1664 14.1644 7.84966 -8.93488
459 1 15.7338 12.5822 6.28329 -8.9529
460 1 17.3015 14.1542 7.86022 -8.95123
461 1 18.8717 12.58 6.28804 -8.95055
462 1 20.4412 14.1527 7.86137 -8.95093
463 1 22.0115 15.726 6.288 -8.95056
464 1 1.56907 17.2993 7.86083 -8.94918
465 1 3.13565 15.7313 6.28247 -8.94501
466 1 4.71064 17.3052 7.85796 -8.9487
467 1 6.27565 15.7393 6.27482 -8.92951
468 1 7.85953 17.306 7.86037 -8.95952
469 1 9.43323 15.7331 6.28385 -8.94406
470 1 11.0051 17.2992 7.86182 -8.95333
471 1 12.5847 15.7333 6.28171 -8.94998
472 1 14.1543 17.3016 7.85978 -8.94981
473 1 15.73 15.7297 6.28497 -8.94607
474 1 17.2984 17.2987 7.86125 -8.94916
475 1 18.8706 15.7259 6.28845 -8.95013
476 1 20.4411 17.298 7.86164 -8.94951
477 1 -0.00111847 18.8703 6.28892 -8.94943
478 1 1.57111 20.4424 7.86161 -8.94937
479 1 3.14205 18.8724 6.28749 -8.94927
480 1 4.71563 20.4437 7.86117 -8.95039
481 1 6.28788 18.8737 6.28741 -8.95169
482 1 7.86205 20.4434 7.86169 -8.95143
483 1 9.43461 18.8723 6.28798 -8.94989
484 1 11.0069 20.4422 7.86191 -8.94952
485 1 12.5795 18.8714 6.28895 -8.95172
486 1 14.1524 20.4427 7.86166 -8.95037
487 1 15.7256 18.8713 6.2886 -8.94962
488 1 17.2973 20.4422 7.86174 -8.94943
489 1 18.8695 18.8701 6.28916 -8.94947
490 1 20.4413 20.442 7.86185 -8.94945
491 1 22.0113 12.5796 9.43405 -8.95156
492 1 3.13264 12.5814 9.43049 -8.96003
493 1 6.24134 12.6294 9.39098 -8.86584
494 1 9.34622 12.8292 9.44311 -7.95749
495 1 12.6027 12.6119 9.3904 -8.80822
496 1 15.7328 12.5821 9.43082 -8.94959
497 1 18.8714 12.58 9.43404 -8.95006
498 1 -0.00242031 15.7259 9.43427 -8.94986
513 1 4.71811 11.007 10.999 -9.00852
514 1 7.59536 11.007 10.918 -7.99478
531 1 17.2986 17.2987 11.0067 -8.94891
526 1 1.56923 17.299 11.0074 -8.9491
527 1 4.71064 17.3038 11.0083 -8.94621
389 1 15.725 18.8701 0.000188059 -8.94958
365 1 22.0138 15.7245 -0.000323569 -8.94945
377 1 18.87 15.7248 -0.000294037 -8.94941
512 1 1.57036 11.007 11.0068 -8.94577
687 3 9.47898 11.0069 11.5897 2.1588
686 1 20.4417 20.4419 20.4418 -8.94908
515 1 11.4158 11.007 11.0892 -7.17408
516 1 14.1763 11.007 11.0124 -9.02133
517 1 17.303 11.007 11.0071 -8.95372
518 1 20.4424 11.007 11.0071 -8.94928
519 1 1.56677 14.1536 11.0074 -8.9525
520 1 4.69731 14.1614 11.009 -8.95615
521 1 7.80102 14.19 11.0363 -8.81704
522 1 11.0468 14.1585 11.0186 -8.86963
523 1 14.1656 14.1578 11.006 -8.95431
524 1 17.3014 14.1538 11.0068 -8.95049
525 1 20.4415 14.1526 11.0072 -8.95056
391 1 18.8698 18.8698 22.0138 -8.94925
385 1 9.43443 18.8701 22.0141 -8.94943
528 1 7.85852 17.3055 11.0097 -8.95878
529 1 11.0066 17.2985 11.0076 -8.95038
530 1 14.1549 17.3008 11.006 -8.94689
685 1 18.8702 18.8701 18.8701 -8.9489
684 1 17.2974 20.4421 20.4421 -8.94924
533 1 1.57105 20.4424 11.0071 -8.94938
683 1 15.726 18.8709 18.871 -8.94862
535 1 7.86198 20.4434 11.0071 -8.95108
536 1 11.0069 20.4423 11.0067 -8.94888
537 1 14.1528 20.4428 11.0065 -8.94945
682 1 14.1524 20.4421 20.4422 -8.94939
539 1 20.4413 20.442 11.007 -8.94948
540 1 1.57177 11.007 14.1529 -8.94809
541 1 4.71785 11.007 14.1507 -8.94022
542 1 7.87519 11.007 14.115 -8.93006
543 1 11.0078 11.007 14.1425 -8.97647
544 1 14.1628 11.007 14.1637 -8.9365
545 1 17.3023 11.007 14.1554 -8.94762
546 1 20.4429 11.007 14.153 -8.94953
547 1 22.0134 12.5793 12.5799 -8.94996
548 1 1.56989 14.1523 14.153 -8.95207
549 1 3.14091 12.5791 12.5795 -8.95257
550 1 4.70657 14.1587 14.1597 -8.94981
551 1 6.2744 12.6013 12.5959 -8.88953
552 1 7.83855 14.1816 14.1855 -8.9027
553 1 9.43843 12.7463 12.6363 -8.23532
554 1 11.0297 14.1843 14.1895 -8.88714
555 1 12.6315 12.6407 12.6438 -8.77173
556 1 14.176 14.1734 14.1744 -8.92333
557 1 15.7389 12.5839 12.586 -8.95695
558 1 17.3041 14.1552 14.1555 -8.95275
559 1 18.8728 12.5799 12.5804 -8.95169
560 1 20.4428 14.1524 14.1527 -8.95086
561 1 -0.00184289 15.7256 12.5802 -8.95015
562 1 1.56953 17.2987 14.1535 -8.94919
563 1 3.13732 15.7289 12.5825 -8.9488
564 1 4.71059 17.3041 14.1577 -8.94411
565 1 6.27246 15.7444 12.5933 -8.9316
566 1 7.86048 17.3053 14.1565 -8.95589
567 1 9.43574 15.7288 12.5862 -8.98535
568 1 11.0084 17.3063 14.1571 -8.9548
569 1 12.59 15.7433 12.5878 -8.95676
570 1 14.1574 17.3054 14.1564 -8.95012
571 1 15.7303 15.7293 12.5808 -8.94947
572 1 17.2994 17.2993 14.1529 -8.94979
573 1 18.871 15.7258 12.5798 -8.94979
574 1 20.4416 17.2978 14.1525 -8.94972
575 1 22.0129 18.8702 12.5798 -8.94935
576 1 1.57113 20.4423 14.1525 -8.94932
577 1 3.14203 18.8718 12.5806 -8.94893
578 1 4.71547 20.4436 14.1532 -8.95014
579 1 6.28686 18.8751 12.5812 -8.95247
580 1 7.86188 20.4436 14.1529 -8.95072
581 1 9.43481 18.872 12.5807 -8.94787
582 1 11.0073 20.4438 14.1528 -8.951
583 1 12.5807 18.8738 12.5796 -8.95374
584 1 14.1531 20.4436 14.1524 -8.95096
585 1 15.7259 18.8714 12.5794 -8.94941
586 1 17.2976 20.4423 14.152 -8.94958
587 1 18.8697 18.8702 12.5795 -8.94935
588 1 20.4414 20.442 14.1521 -8.94945
589 1 1.57197 11.007 17.2975 -8.94967
590 1 4.71611 11.007 17.2978 -8.94761
591 1 7.86294 11.007 17.2922 -8.9353
592 1 11.0064 11.007 17.2985 -8.94193
593 1 14.1562 11.007 17.3036 -8.94653
594 1 17.2995 11.007 17.2993 -8.94921
595 1 20.4424 11.007 17.2977 -8.94951
596 1 22.0141 12.5794 15.7252 -8.94917
597 1 1.5719 14.1516 17.2975 -8.9495
598 1 3.14421 12.5787 15.7251 -8.94807
599 1 4.71605 14.1514 17.2989 -8.9523
600 1 6.29113 12.5761 15.7253 -8.95699
601 1 7.85998 14.1552 17.3055 -8.95723
602 1 9.43463 12.5846 15.7299 -8.96855
603 1 11.0081 14.1563 17.3077 -8.95632
604 1 12.5839 12.5808 15.7403 -8.96335
605 1 14.1558 14.1548 17.3043 -8.95296
606 1 15.7299 12.5808 15.7303 -8.94725
607 1 17.2995 14.1529 17.2992 -8.9492
608 1 18.8716 12.5798 15.726 -8.94905
609 1 20.4424 14.1521 17.2976 -8.94936
610 1 22.0133 15.7249 15.7253 -8.95067
611 1 1.57066 17.2979 17.2984 -8.94951
612 1 3.14006 15.7271 15.7281 -8.94959
613 1 4.71312 17.3006 17.3015 -8.94647
614 1 6.27946 15.7349 15.7371 -8.93888
615 1 7.86039 17.3007 17.3012 -8.94758
616 1 9.43372 15.7344 15.7354 -8.94136
617 1 11.0079 17.3012 17.3015 -8.94785
618 1 12.5893 15.7372 15.7385 -8.93635
619 1 14.156 17.3018 17.302 -8.94611
620 1 15.7336 15.7323 15.7325 -8.94238
621 1 17.3001 17.2996 17.2995 -8.9475
622 1 18.8721 15.726 15.7261 -8.95039
623 1 20.4422 17.2976 17.2977 -8.94984
624 1 -0.000832023 18.87 15.7251 -8.94942
625 1 1.57133 20.4422 17.2976 -8.94912
626 1 3.14215 18.8716 15.7266 -8.94815
627 1 4.71601 20.4427 17.2981 -8.94991
628 1 6.28778 18.873 15.727 -8.95093
629 1 7.86151 20.4429 17.2984 -8.94929
630 1 9.43432 18.8735 15.7275 -8.94928
631 1 11.0073 20.443 17.2984 -8.94934
632 1 12.5811 18.8738 15.727 -8.95051
633 1 14.153 20.443 17.2982 -8.94979
634 1 15.7269 18.8725 15.7264 -8.94954
635 1 17.2979 20.4425 17.2977 -8.94948
636 1 18.8701 18.8703 15.7249 -8.94967
637 1 20.4416 20.442 17.2971 -8.94951
638 1 1.57196 11.007 20.4416 -8.94954
639 1 4.71641 11.007 20.4416 -8.94969
640 1 7.86155 11.007 20.4415 -8.94681
641 1 11.0067 11.007 20.4426 -8.94816
642 1 14.1534 11.007 20.443 -8.95012
643 1 17.2982 11.007 20.4421 -8.94943
644 1 20.442 11.007 20.4417 -8.9495
645 1 4.1793e-05 12.5794 18.8696 -8.94952
646 1 1.572 14.1519 20.4416 -8.94939
647 1 3.14406 12.5793 18.8697 -8.94909
648 1 4.71664 14.1516 20.4419 -8.94992
649 1 6.2893 12.5785 18.8698 -8.94964
650 1 7.86149 14.1522 20.4434 -8.95166
651 1 9.43392 12.5792 18.8714 -8.95006
652 1 11.0068 14.1526 20.444 -8.95167
653 1 12.5802 12.5794 18.8736 -8.95237
654 1 14.153 14.1526 20.443 -8.95079
655 1 15.7266 12.58 18.8718 -8.94887
656 1 17.2981 14.1524 20.4421 -8.94926
657 1 18.8704 12.5796 18.8701 -8.94937
658 1 20.442 14.152 20.4417 -8.94946
659 1 22.0139 15.7244 18.8696 -8.94965
660 1 1.57185 17.297 20.4418 -8.94995
661 1 3.14377 15.7245 18.8703 -8.9506
662 1 4.71594 17.2978 20.4428 -8.95002
663 1 6.28757 15.7262 18.8732 -8.95125
664 1 7.86136 17.2982 20.4431 -8.94926
665 1 9.43393 15.7271 18.8738 -8.94907
666 1 11.0072 17.2983 20.4432 -8.9493
667 1 12.5811 15.727 18.8741 -8.95058
668 1 14.153 17.2983 20.4432 -8.94969
669 1 15.7266 15.7261 18.872 -8.95043
670 1 17.298 17.2978 20.4422 -8.94963
671 1 18.8703 15.7249 18.87 -8.94954
672 1 20.4419 17.297 20.4417 -8.94961
673 1 22.0135 18.8697 18.8698 -8.94941
674 1 1.57175 20.4419 20.4419 -8.94912
675 1 3.14322 18.8705 18.8707 -8.94863
676 1 4.71661 20.442 20.4421 -8.94941
677 1 6.2886 18.8707 18.8709 -8.94911
678 1 7.86178 20.4421 20.4422 -8.94942
679 1 9.43431 18.8709 18.8711 -8.94937
680 1 11.0071 20.4422 20.4423 -8.94942
681 1 12.5802 18.871 18.8711 -8.94911
351 1 22.0138 12.5795 22.0135 -8.9495
353 1 3.14408 12.5794 22.0133 -8.94953
357 1 9.43413 12.5793 22.0141 -8.94887
359 1 12.5799 12.5796 22.0132 -8.95138
383 1 6.28912 18.87 22.014 -8.94934
367 1 3.14417 15.7244 22.0134 -8.95002
369 1 6.28882 15.725 22.0137 -8.95087
375 1 15.7257 15.7255 22.0133 -8.95005
381 1 3.14393 18.8699 22.0138 -8.94948
363 1 18.87 12.5796 22.0136 -8.94944
379 1 22.0137 18.8695 22.0137 -8.94957
387 1 12.5798 18.8701 22.0142 -8.94931
