ITEM: TIMESTEP
120
ITEM: NUMBER OF ATOMS
688
ITEM: BOX BOUNDS pp pp pp
0.0000000000000000e+00 2.2013900999999997e+01
0.0000000000000000e+00 2.2013900999999997e+01
0.0000000000000000e+00 2.2013900999999997e+01
ITEM: ATOMS id type x y z c_pot
1 1 22.0136 4.00142e-12 -3.95982e-05 -8.94894
2 1 1.57156 1.57183 1.57172 -8.94906
189 1 20.4412 4.71583 11.0071 -8.94951
4 1 4.71663 1.57178 1.5718 -8.94949
5 1 6.28929 2.4248e-12 0.000107935 -8.94944
6 1 7.86191 1.57176 1.57194 -8.94942
175 1 18.8715 9.43383 9.43394 -8.9501
8 1 11.0072 1.57176 1.57205 -8.94944
9 1 12.5797 5.72402e-13 0.000232247 -8.94944
10 1 14.1523 1.57177 1.57217 -8.94942
174 1 15.7333 9.43156 9.43066 -8.9495
12 1 17.2973 1.57171 1.57202 -8.94944
188 1 17.2987 4.71502 11.0067 -8.94893
14 1 20.4414 1.57196 1.57197 -8.94917
181 1 17.2975 1.57161 11.0068 -8.94945
16 1 1.5715 4.71644 1.57121 -8.94983
173 1 12.6035 9.40113 9.39052 -8.80774
18 1 4.71579 4.71572 1.57056 -8.94988
172 1 9.34729 9.18203 9.44091 -7.95168
20 1 7.86154 4.71564 1.57124 -8.9492
171 1 6.24131 9.3839 9.39087 -8.86509
22 1 11.0072 4.71561 1.5715 -8.94921
177 1 4.71511 1.57015 11.0073 -8.9495
24 1 14.1528 4.71556 1.57139 -8.94998
170 1 3.13242 9.4323 9.43026 -8.95989
26 1 17.2983 4.71556 1.57112 -8.94877
169 1 22.0112 9.43428 9.43393 -8.95157
28 1 20.4418 4.71651 1.57166 -8.94949
168 1 18.8704 6.28793 9.43415 -8.94952
30 1 1.57168 7.86176 1.57118 -8.94928
167 1 15.7288 6.28538 9.43288 -8.94697
32 1 4.71643 7.862 1.57063 -8.9504
166 1 12.5837 6.28072 9.43012 -8.95266
34 1 7.8616 7.8614 1.57046 -8.95189
35 1 9.43416 6.28834 0.000335734 -8.94999
36 1 11.0067 7.86107 1.57064 -8.9506
37 1 12.5798 6.28843 0.000320213 -8.95026
38 1 14.1539 7.86024 1.56909 -8.95096
165 1 9.42783 6.2957 9.4389 -9.00764
40 1 17.2986 7.86102 1.57085 -8.94922
164 1 6.27347 6.26907 9.43032 -8.95135
42 1 20.442 7.86163 1.57152 -8.94939
163 1 3.13609 6.28368 9.433 -8.94795
162 1 -0.002586 6.28789 9.4342 -8.94987
45 1 6.28925 9.43479 -0.000429986 -8.94962
161 1 18.8696 3.14364 9.43426 -8.94939
160 1 15.7257 3.14273 9.4339 -8.94919
48 1 15.7261 9.43396 -0.000672705 -8.94945
159 1 12.5798 3.14249 9.43425 -8.95141
50 1 22.0132 2.39707e-12 3.14418 -8.94932
51 1 1.57105 1.57137 4.71606 -8.94939
52 1 3.14385 1.10902e-10 3.14377 -8.94957
53 1 4.71602 1.57078 4.71567 -8.9501
54 1 6.28931 3.76306e-11 3.14392 -8.94941
55 1 7.86192 1.57105 4.71599 -8.94946
56 1 9.43466 2.40645e-11 3.14404 -8.94948
57 1 11.0073 1.57131 4.71623 -8.94938
58 1 12.5798 5.14611e-11 3.14425 -8.94938
59 1 14.1523 1.57132 4.71663 -8.95049
60 1 15.7248 3.53427e-11 3.14438 -8.95001
61 1 17.2973 1.57157 4.71664 -8.94961
62 1 18.8693 -2.19107e-12 3.14442 -8.94947
63 1 20.4412 1.57186 4.71671 -8.94949
64 1 22.0129 3.14369 3.14359 -8.94897
65 1 1.56902 4.71436 4.71419 -8.94799
66 1 3.14286 3.14283 3.14266 -8.94826
67 1 4.71206 4.71156 4.71135 -8.94452
68 1 6.28884 3.14301 3.14316 -8.94935
69 1 7.86082 4.71306 4.71386 -8.94806
70 1 9.43454 3.14313 3.14353 -8.94946
71 1 11.0074 4.71398 4.7146 -8.94723
72 1 12.5799 3.14325 3.14378 -8.94907
73 1 14.1546 4.7127 4.71381 -8.94967
74 1 15.7256 3.14283 3.14352 -8.94955
75 1 17.2988 4.71471 4.71526 -8.94876
76 1 18.8697 3.14369 3.14394 -8.9493
77 1 20.4412 4.71586 4.71601 -8.94973
78 1 22.0133 6.28889 3.14344 -8.94962
79 1 1.57005 7.86115 4.71467 -8.94926
80 1 3.14268 6.2882 3.14178 -8.9506
81 1 4.71325 7.86004 4.71107 -8.95327
82 1 6.28717 6.2868 3.13978 -8.95101
83 1 7.85848 7.85695 4.70748 -8.95804
84 1 9.43413 6.28669 3.14157 -8.94841
85 1 11.0065 7.85882 4.70998 -8.9533
86 1 12.5804 6.28714 3.14142 -8.95034
87 1 14.1614 7.85327 4.70555 -8.94146
88 1 15.7281 6.28578 3.14056 -8.94707
89 1 17.3009 7.85976 4.71405 -8.94999
90 1 18.8706 6.28831 3.14329 -8.94953
91 1 20.442 7.86125 4.71573 -8.9497
92 1 -0.000435423 9.43423 3.1433 -8.94937
93 1 3.14307 9.43415 3.14202 -8.94874
94 1 6.28923 9.43524 3.14223 -8.95179
95 1 9.434 9.4336 3.14388 -8.9452
96 1 12.5825 9.43286 3.13657 -8.95575
97 1 15.7283 9.43309 3.1405 -8.94838
98 1 18.8708 9.43399 3.1431 -8.94931
99 1 22.0132 3.66336e-12 6.28917 -8.94945
100 1 1.57094 1.57137 7.86152 -8.94935
101 1 3.14341 4.37082e-11 6.2886 -8.94984
102 1 4.71547 1.57007 7.8611 -8.9504
103 1 6.28917 8.91781e-10 6.28873 -8.9507
104 1 7.86198 1.5704 7.86169 -8.95148
105 1 9.43477 5.53549e-10 6.28884 -8.95021
106 1 11.0068 1.57166 7.86192 -8.94958
107 1 12.5795 3.60275e-10 6.28934 -8.95013
108 1 14.1524 1.57119 7.86162 -8.95037
109 1 15.7248 -5.97479e-11 6.2892 -8.94996
110 1 17.2974 1.57163 7.86169 -8.94943
111 1 18.8693 5.11706e-12 6.28933 -8.94948
112 1 20.4412 1.57183 7.8618 -8.94943
113 1 -0.00126048 3.14347 6.28879 -8.94941
114 1 1.5688 4.71432 7.86068 -8.94915
115 1 3.14182 3.14133 6.28732 -8.94927
116 1 4.71032 4.70835 7.85783 -8.94874
117 1 6.2877 3.13999 6.28728 -8.95172
118 1 7.85931 4.70767 7.8603 -8.95964
119 1 9.43454 3.14148 6.28792 -8.94985
120 1 11.0051 4.71456 7.86177 -8.95357
121 1 12.5795 3.14244 6.28888 -8.9517
122 1 14.1544 4.71223 7.85966 -8.94984
123 1 15.7256 3.14246 6.28849 -8.94964
124 1 17.2985 4.71501 7.86112 -8.94914
125 1 18.8695 3.14365 6.28906 -8.94946
126 1 20.441 4.7158 7.86154 -8.94951
127 1 22.0113 6.28779 6.28782 -8.95058
128 1 1.56528 7.85943 7.85922 -8.95357
129 1 3.1353 6.28235 6.28218 -8.94502
130 1 4.69249 7.84388 7.84454 -8.93684
131 1 6.27522 6.27422 6.27451 -8.92915
132 1 7.81988 7.82058 7.82279 -8.84471
133 1 9.43314 6.28067 6.28371 -8.94374
134 1 11.0181 7.84799 7.83858 -8.89916
135 1 12.5849 6.28048 6.28145 -8.94926
136 1 14.1668 7.84932 7.84925 -8.93507
137 1 15.7302 6.28404 6.28469 -8.94602
138 1 17.3016 7.85952 7.85998 -8.95124
139 1 18.8707 6.2879 6.28827 -8.95014
140 1 20.4411 7.86106 7.86123 -8.95096
141 1 22.0123 9.43404 6.28775 -8.94931
142 1 3.13954 9.43371 6.28462 -8.94738
143 1 6.28445 9.4351 6.27993 -8.96112
144 1 9.4272 9.42116 6.29416 -8.9314
145 1 12.6043 9.41664 6.2584 -8.91957
146 1 15.7337 9.43172 6.2831 -8.95265
147 1 18.8717 9.4338 6.28785 -8.95047
148 1 -0.000778049 2.70387e-12 9.43438 -8.94944
149 1 3.14318 7.12336e-11 9.43425 -8.94945
150 1 6.28876 7.01866e-10 9.43439 -8.95113
151 1 9.43471 2.1858e-09 9.43434 -8.94799
152 1 12.5796 -2.32393e-10 9.4343 -8.95008
153 1 15.7251 1.83658e-11 9.43411 -8.94955
154 1 18.8694 6.06619e-13 9.43433 -8.94947
155 1 22.0127 3.1435 9.43435 -8.94935
156 1 3.14175 3.14164 9.43409 -8.94904
157 1 6.28664 3.13859 9.43437 -8.95221
158 1 9.43411 3.14422 9.43488 -8.94514
183 1 1.56899 4.71466 11.0074 -8.94909
184 1 4.71031 4.70981 11.0083 -8.94624
11 1 15.7247 2.26702e-12 0.000222859 -8.94949
25 1 15.7251 3.14371 0.000218381 -8.94958
29 1 22.0138 6.28936 -0.000375881 -8.94944
41 1 18.8701 6.28899 -0.000315411 -8.94939
176 1 1.57088 1.57143 11.0071 -8.94936
343 1 18.8705 9.43427 18.8702 -8.94935
178 1 7.8619 1.57041 11.0072 -8.95107
179 1 11.0069 1.57159 11.0068 -8.94887
180 1 14.1529 1.57106 11.0065 -8.94948
342 1 15.7267 9.43386 18.872 -8.94889
182 1 20.4413 1.57183 11.007 -8.94945
47 1 12.58 9.43424 22.0132 -8.95136
46 1 9.43411 9.43452 22.0141 -8.94882
185 1 7.85824 4.70823 11.0097 -8.9584
186 1 11.0068 4.71528 11.0076 -8.95001
187 1 14.1551 4.71289 11.0062 -8.94689
341 1 12.5802 9.43449 18.8736 -8.95241
340 1 9.43396 9.4347 18.8712 -8.94999
190 1 1.56657 7.86015 11.0073 -8.9525
191 1 4.69696 7.85213 11.0089 -8.95593
192 1 7.80127 7.82419 11.0367 -8.81852
193 1 11.0469 7.85558 11.0193 -8.87057
194 1 14.1662 7.85577 11.0061 -8.95393
195 1 17.3017 7.8599 11.0069 -8.95048
196 1 20.4415 7.86117 11.0071 -8.9506
197 1 -0.000746466 -4.52153e-13 12.5796 -8.94943
198 1 1.57099 1.57151 14.1526 -8.94929
199 1 3.14316 6.66154e-11 12.58 -8.94935
200 1 4.71532 1.57023 14.1533 -8.95017
201 1 6.28875 8.87071e-10 12.5799 -8.95124
202 1 7.86183 1.57023 14.153 -8.95069
203 1 9.43472 3.84323e-10 12.5797 -8.94919
204 1 11.0074 1.57009 14.1529 -8.95097
205 1 12.5799 4.22539e-10 12.5792 -8.951
206 1 14.1532 1.57023 14.1525 -8.95101
207 1 15.7252 -5.58209e-11 12.5793 -8.94955
208 1 17.2977 1.57148 14.1521 -8.94958
209 1 18.8695 4.76237e-12 12.5794 -8.94946
210 1 20.4414 1.57186 14.1521 -8.94943
211 1 22.0128 3.14359 12.5799 -8.94933
212 1 1.56938 4.71503 14.1537 -8.9492
213 1 3.14181 3.14187 12.5807 -8.94891
214 1 4.71038 4.70958 14.1579 -8.9442
215 1 6.2867 3.13862 12.5814 -8.9525
216 1 7.86037 4.70848 14.1567 -8.95556
217 1 9.43477 3.14179 12.5808 -8.94823
218 1 11.0085 4.70754 14.1573 -8.95446
219 1 12.5807 3.13999 12.5798 -8.95377
220 1 14.1576 4.7082 14.1567 -8.95019
221 1 15.726 3.14235 12.5794 -8.9494
222 1 17.2996 4.71441 14.1531 -8.94979
223 1 18.8697 3.14362 12.5795 -8.94934
224 1 20.4416 4.71597 14.1526 -8.94972
225 1 -0.00192266 6.28822 12.5803 -8.95016
226 1 1.56983 7.86154 14.1531 -8.95205
227 1 3.13707 6.28472 12.5826 -8.94877
228 1 4.7064 7.85483 14.1599 -8.94919
229 1 6.27228 6.26926 12.5934 -8.93194
230 1 7.83952 7.83288 14.1845 -8.90518
231 1 9.43574 6.28397 12.5861 -8.98415
232 1 11.029 7.83018 14.1886 -8.88978
233 1 12.5903 6.27042 12.588 -8.95689
234 1 14.1764 7.84009 14.1749 -8.92266
235 1 15.7306 6.28432 12.581 -8.94942
236 1 17.3044 7.85851 14.1558 -8.95266
237 1 18.8711 6.28798 12.5799 -8.9498
238 1 20.4429 7.86141 14.1529 -8.95087
239 1 22.0134 9.43451 12.5799 -8.95003
240 1 3.14063 9.43459 12.5795 -8.95276
241 1 6.27335 9.41198 12.5963 -8.88792
242 1 9.43855 9.2733 12.6347 -8.24115
243 1 12.6328 9.37281 12.6443 -8.77044
244 1 15.7395 9.42975 12.5863 -8.9569
245 1 18.8731 9.43392 12.5805 -8.95175
246 1 22.0133 1.49805e-12 15.7248 -8.94943
247 1 1.57122 1.57166 17.2978 -8.94909
248 1 3.14332 1.07298e-10 15.7255 -8.94954
249 1 4.7159 1.57111 17.2983 -8.94988
250 1 6.28889 2.86498e-11 15.7255 -8.9502
251 1 7.86146 1.57093 17.2985 -8.94928
252 1 9.4345 5.21233e-11 15.7258 -8.95011
253 1 11.0074 1.57083 17.2986 -8.94934
254 1 12.5802 3.15167e-11 15.7254 -8.95032
255 1 14.1531 1.57079 17.2983 -8.94977
256 1 15.7255 4.08144e-11 15.7251 -8.95017
257 1 17.298 1.5713 17.2978 -8.94947
258 1 18.8696 -1.23668e-12 15.7246 -8.94959
259 1 20.4416 1.57188 17.2973 -8.94948
260 1 -0.000892557 3.14378 15.7252 -8.94941
261 1 1.57059 4.71589 17.2985 -8.94948
262 1 3.14198 3.14213 15.7268 -8.94814
263 1 4.71309 4.71328 17.3016 -8.94663
264 1 6.28769 3.14079 15.7272 -8.95084
265 1 7.86037 4.71308 17.3013 -8.94765
266 1 9.43432 3.14031 15.7277 -8.94926
267 1 11.008 4.71261 17.3017 -8.9479
268 1 12.5812 3.14003 15.7272 -8.95043
269 1 14.1561 4.71199 17.3022 -8.94625
270 1 15.7271 3.14116 15.7266 -8.94955
271 1 17.3003 4.71409 17.2998 -8.94745
272 1 18.8702 3.14349 15.725 -8.94966
273 1 20.4422 4.71619 17.2978 -8.94983
274 1 22.0133 6.28888 15.7255 -8.95067
275 1 1.57193 7.86224 17.2975 -8.94948
276 1 3.13996 6.28663 15.7283 -8.94945
277 1 4.71608 7.86243 17.2989 -8.95234
278 1 6.27968 6.27911 15.737 -8.9394
279 1 7.86012 7.85875 17.3053 -8.9571
280 1 9.43376 6.27952 15.7353 -8.9414
281 1 11.008 7.85754 17.3076 -8.95617
282 1 12.5892 6.27674 15.7385 -8.9369
283 1 14.156 7.85893 17.3046 -8.953
284 1 15.7339 6.28128 15.7328 -8.94222
285 1 17.2997 7.86086 17.2994 -8.94918
286 1 18.8723 6.28772 15.7263 -8.95036
287 1 20.4425 7.86177 17.2977 -8.94935
288 1 22.0142 9.43449 15.7253 -8.94916
289 1 3.14423 9.43512 15.7251 -8.94799
290 1 6.29124 9.43767 15.7251 -8.95733
291 1 9.43479 9.42955 15.7294 -8.96844
292 1 12.5841 9.43289 15.7404 -8.9636
293 1 15.7302 9.43299 15.7306 -8.9472
294 1 18.8718 9.43405 15.7262 -8.94903
295 1 -0.000416657 4.0619e-12 18.8696 -8.94921
296 1 1.57169 1.57191 20.442 -8.94911
297 1 3.14386 2.57329e-12 18.8701 -8.94954
298 1 4.71652 1.57183 20.4422 -8.94939
299 1 6.28898 2.72409e-12 18.8702 -8.9493
300 1 7.86173 1.57172 20.4423 -8.9494
301 1 9.43442 3.34825e-12 18.8704 -8.94941
302 1 11.0071 1.57169 20.4424 -8.9494
303 1 12.5799 3.1127e-12 18.8703 -8.94933
304 1 14.1525 1.57171 20.4423 -8.94936
305 1 15.7252 1.71092e-12 18.8702 -8.94948
306 1 17.2975 1.57178 20.4422 -8.94922
307 1 18.8697 1.35734e-12 18.8698 -8.94931
308 1 20.4417 1.572 20.4419 -8.94904
309 1 22.0135 3.1441 18.8699 -8.94939
310 1 1.57181 4.71686 20.4418 -8.94995
311 1 3.14314 3.14338 18.8708 -8.94867
312 1 4.71588 4.71607 20.4428 -8.95003
313 1 6.28852 3.14314 18.871 -8.94912
314 1 7.86131 4.71565 20.4431 -8.94927
315 1 9.43429 3.14288 18.8712 -8.94936
316 1 11.0072 4.7155 20.4433 -8.94931
317 1 12.5803 3.14281 18.8712 -8.9491
318 1 14.1531 4.71553 20.4433 -8.94971
319 1 15.7261 3.14284 18.8711 -8.94865
320 1 17.2981 4.71601 20.4423 -8.94962
321 1 18.8703 3.14365 18.8702 -8.94887
322 1 20.4419 4.7168 20.4417 -8.94959
323 1 22.0139 6.28947 18.8696 -8.94965
324 1 1.57202 7.86202 20.4416 -8.94939
325 1 3.14375 6.28939 18.8704 -8.95062
326 1 4.71665 7.86231 20.4419 -8.94996
327 1 6.28758 6.2877 18.8732 -8.95125
328 1 7.86149 7.86164 20.4433 -8.95161
329 1 9.43393 6.28671 18.8739 -8.94908
330 1 11.0068 7.86124 20.444 -8.95162
331 1 12.5811 6.28679 18.8743 -8.95057
332 1 14.1531 7.86121 20.4431 -8.95081
333 1 15.7268 6.2876 18.8722 -8.95043
334 1 17.2982 7.86142 20.4422 -8.94926
335 1 18.8705 6.28894 18.8701 -8.94952
336 1 20.442 7.86183 20.4417 -8.94944
337 1 0.000121479 9.43447 18.8696 -8.94951
338 1 3.14411 9.43463 18.8697 -8.9491
339 1 6.28939 9.43537 18.8696 -8.94967
7 1 9.4345 1.57148e-12 22.0141 -8.94947
44 1 3.14407 9.43446 22.0132 -8.94953
17 1 3.14384 3.14395 22.0137 -8.94948
19 1 6.28904 3.14382 22.014 -8.94933
21 1 9.43441 3.1437 22.0142 -8.94941
43 1 22.0138 9.4344 22.0135 -8.94949
27 1 18.8698 3.14405 22.0138 -8.94924
39 1 15.7258 6.28828 22.0134 -8.95004
31 1 3.14412 6.28942 22.0134 -8.95005
33 1 6.28878 6.28886 22.0137 -8.95086
3 1 3.14425 8.45356e-13 22.0139 -8.9495
13 1 18.8695 1.19117e-12 22.0139 -8.94909
15 1 22.0136 3.14435 22.0137 -8.94955
23 1 12.5798 3.1437 22.0142 -8.94929
49 1 18.8702 9.43426 22.0135 -8.94942
344 1 1.57167 11.007 1.57113 -8.94947
345 1 4.71622 11.007 1.57048 -8.94988
346 1 7.86225 11.007 1.57253 -8.94718
347 1 11.0068 11.007 1.57032 -8.95084
348 1 14.1545 11.007 1.56882 -8.94968
349 1 17.2987 11.007 1.57079 -8.94938
350 1 20.442 11.007 1.57148 -8.94944
688 3 10.1316 11.007 9.55996 2.21981
352 1 1.57168 14.1521 1.57118 -8.94928
511 1 18.8696 18.8703 9.43426 -8.94939
354 1 4.71643 14.1519 1.57063 -8.9504
355 1 6.28925 12.5791 -0.000429986 -8.94962
356 1 7.8616 14.1525 1.57046 -8.95189
510 1 15.7257 18.8712 9.4339 -8.94919
358 1 11.0067 14.1528 1.57064 -8.9506
509 1 12.5798 18.8714 9.43425 -8.95141
360 1 14.1539 14.1537 1.56909 -8.95096
361 1 15.7261 12.5799 -0.000672705 -8.94945
362 1 17.2986 14.1529 1.57085 -8.94922
538 1 17.2975 20.4423 11.0068 -8.94945
364 1 20.442 14.1523 1.57152 -8.94939
508 1 9.43411 18.8697 9.43488 -8.94514
366 1 1.5715 17.2975 1.57121 -8.94983
507 1 6.28664 18.8753 9.43437 -8.95221
368 1 4.71579 17.2982 1.57056 -8.94988
506 1 3.14175 18.8723 9.43409 -8.94904
370 1 7.86154 17.2983 1.57124 -8.9492
371 1 9.43416 15.7256 0.000335733 -8.94999
372 1 11.0072 17.2983 1.5715 -8.94921
373 1 12.5798 15.7255 0.000320213 -8.95026
374 1 14.1528 17.2983 1.57139 -8.94998
505 1 22.0127 18.8704 9.43435 -8.94935
376 1 17.2983 17.2983 1.57112 -8.94877
504 1 18.8704 15.726 9.43415 -8.94952
378 1 20.4418 17.2974 1.57166 -8.94949
534 1 4.71511 20.4438 11.0073 -8.9495
380 1 1.57156 20.4421 1.57172 -8.94906
503 1 15.7288 15.7285 9.43288 -8.94697
382 1 4.71663 20.4421 1.5718 -8.94949
502 1 12.5837 15.7332 9.43012 -8.95266
384 1 7.86191 20.4421 1.57194 -8.94942
501 1 9.42783 15.7182 9.4389 -9.00764
386 1 11.0072 20.4421 1.57205 -8.94944
532 1 20.4412 17.2981 11.0071 -8.94951
388 1 14.1523 20.4421 1.57217 -8.94942
500 1 6.27347 15.7448 9.43032 -8.95135
390 1 17.2973 20.4422 1.57202 -8.94944
499 1 3.13609 15.7302 9.433 -8.94795
392 1 20.4414 20.4419 1.57197 -8.94917
393 1 1.57023 11.007 4.71445 -8.94922
394 1 4.71367 11.007 4.71141 -8.94581
395 1 7.86546 11.007 4.72106 -8.94415
396 1 11.0085 11.007 4.70761 -8.97969
397 1 14.1607 11.007 4.70663 -8.94325
398 1 17.3011 11.007 4.71378 -8.9491
399 1 20.4421 11.007 4.71556 -8.94967
400 1 -0.000435423 12.5797 3.1433 -8.94937
401 1 1.57005 14.1528 4.71467 -8.94926
402 1 3.14307 12.5798 3.14202 -8.94874
403 1 4.71325 14.1539 4.71107 -8.95327
404 1 6.28923 12.5787 3.14223 -8.95179
405 1 7.85848 14.157 4.70748 -8.95804
406 1 9.434 12.5803 3.14388 -8.9452
407 1 11.0065 14.1551 4.70998 -8.9533
408 1 12.5825 12.581 3.13657 -8.95575
409 1 14.1614 14.1606 4.70555 -8.94146
410 1 15.7283 12.5808 3.1405 -8.94838
411 1 17.3009 14.1541 4.71405 -8.94999
412 1 18.8708 12.5799 3.1431 -8.94931
413 1 20.442 14.1526 4.71573 -8.9497
414 1 22.0133 15.725 3.14344 -8.94962
415 1 1.56902 17.2995 4.71419 -8.94799
416 1 3.14268 15.7257 3.14178 -8.9506
417 1 4.71206 17.3023 4.71135 -8.94452
418 1 6.28717 15.7271 3.13978 -8.95101
419 1 7.86082 17.3008 4.71386 -8.94806
420 1 9.43413 15.7272 3.14157 -8.94841
421 1 11.0074 17.2999 4.7146 -8.94723
422 1 12.5804 15.7268 3.14142 -8.95034
423 1 14.1546 17.3012 4.71381 -8.94967
424 1 15.7281 15.7281 3.14056 -8.94707
425 1 17.2988 17.2992 4.71526 -8.94876
426 1 18.8706 15.7256 3.14329 -8.94953
427 1 20.4412 17.298 4.71601 -8.94973
428 1 22.0129 18.8702 3.14359 -8.94897
429 1 1.57105 20.4425 4.71606 -8.94939
430 1 3.14286 18.8711 3.14266 -8.94826
431 1 4.71602 20.4431 4.71567 -8.9501
432 1 6.28884 18.8709 3.14316 -8.94935
433 1 7.86192 20.4428 4.71599 -8.94946
434 1 9.43454 18.8708 3.14353 -8.94946
435 1 11.0073 20.4426 4.71623 -8.94938
436 1 12.5799 18.8706 3.14378 -8.94907
437 1 14.1523 20.4426 4.71663 -8.95049
438 1 15.7256 18.8711 3.14352 -8.94955
439 1 17.2973 20.4423 4.71664 -8.94961
440 1 18.8697 18.8702 3.14394 -8.9493
441 1 20.4412 20.442 4.71671 -8.94949
442 1 1.56775 11.007 7.85874 -8.94727
443 1 4.70938 11.007 7.85252 -8.93555
444 1 7.87342 11.007 7.87905 -8.92332
445 1 11.0668 11.007 7.74648 -8.32747
446 1 14.168 11.007 7.85019 -8.95877
447 1 17.3024 11.007 7.8597 -8.95068
448 1 20.4417 11.007 7.86095 -8.95
449 1 22.0123 12.5799 6.28775 -8.94931
450 1 1.56528 14.1545 7.85922 -8.95357
451 1 3.13954 12.5802 6.28462 -8.94738
452 1 4.69249 14.17 7.84454 -8.93684
453 1 6.28445 12.5788 6.27993 -8.96112
454 1 7.81988 14.1933 7.82279 -8.84473
455 1 9.4272 12.5927 6.29416 -8.9314
456 1 11.0181 14.1659 7.83858 -8.89916
457 1 12.6043 12.5973 6.2584 -8.91957
458 1 14.1668 14.1646 7.84925 -8.93507
459 1 15.7337 12.5822 6.2831 -8.95265
460 1 17.3016 14.1544 7.85998 -8.95124
461 1 18.8717 12.5801 6.28785 -8.95047
462 1 20.4411 14.1528 7.86123 -8.95096
463 1 22.0113 15.7261 6.28782 -8.95058
464 1 1.5688 17.2996 7.86068 -8.94915
465 1 3.1353 15.7316 6.28218 -8.94502
466 1 4.71032 17.3055 7.85783 -8.94874
467 1 6.27522 15.7397 6.27451 -8.92915
468 1 7.85931 17.3062 7.8603 -8.95964
469 1 9.43314 15.7332 6.28371 -8.94374
470 1 11.0051 17.2993 7.86177 -8.95358
471 1 12.5849 15.7334 6.28145 -8.94926
472 1 14.1544 17.3017 7.85966 -8.94984
473 1 15.7302 15.7299 6.28469 -8.94602
474 1 17.2985 17.2989 7.86112 -8.94914
475 1 18.8707 15.726 6.28827 -8.95014
476 1 20.441 17.2981 7.86154 -8.94951
477 1 -0.00126048 18.8704 6.28879 -8.94941
478 1 1.57094 20.4425 7.86152 -8.94935
479 1 3.14182 18.8726 6.28732 -8.94927
480 1 4.71547 20.4438 7.8611 -8.9504
481 1 6.2877 18.8739 6.28728 -8.95172
482 1 7.86198 20.4435 7.86169 -8.95148
483 1 9.43454 18.8724 6.28792 -8.94985
484 1 11.0068 20.4422 7.86192 -8.94958
485 1 12.5795 18.8715 6.28888 -8.9517
486 1 14.1524 20.4427 7.86162 -8.95037
487 1 15.7256 18.8714 6.28849 -8.94964
488 1 17.2974 20.4423 7.86169 -8.94943
489 1 18.8695 18.8702 6.28906 -8.94946
490 1 20.4412 20.4421 7.8618 -8.94943
491 1 22.0112 12.5796 9.43393 -8.95157
492 1 3.13242 12.5816 9.43026 -8.95989
493 1 6.24131 12.63 9.39087 -8.86509
494 1 9.34731 12.8318 9.44091 -7.95158
495 1 12.6035 12.6128 9.39052 -8.80774
496 1 15.7333 12.5823 9.43066 -8.9495
497 1 18.8715 12.5801 9.43394 -8.9501
498 1 -0.002586 15.726 9.4342 -8.94987
513 1 4.7175 11.007 10.9988 -9.00919
514 1 7.59176 11.007 10.9199 -7.99145
531 1 17.2987 17.2989 11.0067 -8.94893
526 1 1.56899 17.2992 11.0074 -8.94909
527 1 4.71031 17.3041 11.0083 -8.94624
389 1 15.7251 18.8702 0.000218381 -8.94958
365 1 22.0138 15.7245 -0.000375881 -8.94944
377 1 18.8701 15.7249 -0.000315411 -8.94939
512 1 1.57025 11.007 11.0067 -8.9459
687 3 9.48113 11.007 11.5781 2.16019
686 1 20.4417 20.4419 20.4419 -8.94904
515 1 11.4197 11.007 11.0887 -7.16887
516 1 14.1779 11.007 11.0124 -9.02108
517 1 17.3035 11.007 11.0071 -8.95399
518 1 20.4425 11.007 11.0071 -8.94936
519 1 1.56657 14.1537 11.0073 -8.9525
520 1 4.69696 14.1618 11.0089 -8.95593
521 1 7.80127 14.1897 11.0367 -8.81853
522 1 11.0469 14.1583 11.0193 -8.87057
523 1 14.1662 14.1581 11.0061 -8.95393
524 1 17.3017 14.154 11.0069 -8.95048
525 1 20.4415 14.1527 11.0071 -8.9506
391 1 18.8698 18.8699 22.0138 -8.94924
385 1 9.43441 18.8702 22.0142 -8.94941
528 1 7.85824 17.3057 11.0097 -8.9584
529 1 11.0068 17.2986 11.0076 -8.95001
530 1 14.1551 17.301 11.0062 -8.94689
685 1 18.8703 18.8702 18.8702 -8.94887
684 1 17.2975 20.4421 20.4422 -8.94922
533 1 1.57088 20.4425 11.0071 -8.94936
683 1 15.7261 18.8711 18.8711 -8.94865
535 1 7.8619 20.4435 11.0072 -8.95107
536 1 11.0069 20.4423 11.0068 -8.94887
537 1 14.1529 20.4428 11.0065 -8.94948
682 1 14.1525 20.4422 20.4423 -8.94936
539 1 20.4413 20.4421 11.007 -8.94945
540 1 1.57176 11.007 14.1529 -8.94813
541 1 4.71754 11.007 14.1508 -8.9401
542 1 7.87477 11.007 14.1145 -8.93124
543 1 11.0088 11.007 14.1421 -8.97704
544 1 14.1635 11.007 14.1641 -8.93641
545 1 17.3026 11.007 14.1557 -8.94761
546 1 20.4431 11.007 14.1531 -8.94955
547 1 22.0134 12.5794 12.5799 -8.95003
548 1 1.56983 14.1524 14.1531 -8.95205
549 1 3.14063 12.5793 12.5795 -8.95276
550 1 4.7064 14.1591 14.1599 -8.94919
551 1 6.27335 12.6019 12.5963 -8.88792
552 1 7.83952 14.181 14.1845 -8.90518
553 1 9.43855 12.7406 12.6347 -8.24115
554 1 11.029 14.1837 14.1886 -8.88978
555 1 12.6328 12.6411 12.6443 -8.77044
556 1 14.1764 14.1738 14.1749 -8.92266
557 1 15.7395 12.5842 12.5863 -8.9569
558 1 17.3044 14.1554 14.1558 -8.95266
559 1 18.8731 12.58 12.5805 -8.95175
560 1 20.4429 14.1525 14.1529 -8.95087
561 1 -0.00192266 15.7257 12.5803 -8.95016
562 1 1.56938 17.2989 14.1537 -8.9492
563 1 3.13707 15.7292 12.5826 -8.94877
564 1 4.71038 17.3043 14.1579 -8.9442
565 1 6.27228 15.7446 12.5934 -8.93194
566 1 7.86037 17.3054 14.1567 -8.95556
567 1 9.43574 15.7299 12.5861 -8.98415
568 1 11.0085 17.3064 14.1573 -8.95446
569 1 12.5903 15.7435 12.588 -8.95689
570 1 14.1576 17.3057 14.1567 -8.95019
571 1 15.7306 15.7296 12.581 -8.94942
572 1 17.2996 17.2995 14.1531 -8.94979
573 1 18.8711 15.7259 12.5799 -8.9498
574 1 20.4416 17.2979 14.1526 -8.94972
575 1 22.0128 18.8703 12.5799 -8.94933
576 1 1.57099 20.4424 14.1526 -8.94929
577 1 3.14181 18.872 12.5807 -8.94891
578 1 4.71532 20.4437 14.1533 -8.95017
579 1 6.2867 18.8753 12.5814 -8.9525
580 1 7.86183 20.4437 14.153 -8.95069
581 1 9.43477 18.8721 12.5808 -8.94823
582 1 11.0074 20.4438 14.1529 -8.95097
583 1 12.5807 18.8739 12.5798 -8.95377
584 1 14.1532 20.4437 14.1525 -8.95101
585 1 15.726 18.8716 12.5794 -8.9494
586 1 17.2977 20.4424 14.1521 -8.94958
587 1 18.8697 18.8703 12.5795 -8.94934
588 1 20.4414 20.442 14.1521 -8.94943
589 1 1.57206 11.007 17.2975 -8.94966
590 1 4.71622 11.007 17.2977 -8.94771
591 1 7.86305 11.007 17.292 -8.93524
592 1 11.0065 11.007 17.2983 -8.94187
593 1 14.1564 11.007 17.3038 -8.94663
594 1 17.2997 11.007 17.2995 -8.94918
595 1 20.4425 11.007 17.2978 -8.94949
596 1 22.0142 12.5794 15.7253 -8.94916
597 1 1.57193 14.1517 17.2975 -8.94948
598 1 3.14423 12.5788 15.7251 -8.94799
599 1 4.71608 14.1515 17.2989 -8.95234
600 1 6.29124 12.5762 15.7251 -8.95733
601 1 7.86012 14.1552 17.3053 -8.9571
602 1 9.43479 12.5844 15.7294 -8.96844
603 1 11.008 14.1564 17.3076 -8.95617
604 1 12.5841 12.581 15.7404 -8.9636
605 1 14.156 14.155 17.3046 -8.953
606 1 15.7302 12.5809 15.7306 -8.9472
607 1 17.2997 14.153 17.2994 -8.94918
608 1 18.8718 12.5799 15.7262 -8.94903
609 1 20.4425 14.1521 17.2977 -8.94935
610 1 22.0133 15.725 15.7255 -8.95067
611 1 1.57059 17.298 17.2985 -8.94948
612 1 3.13996 15.7273 15.7283 -8.94945
613 1 4.71309 17.3006 17.3016 -8.94663
614 1 6.27968 15.7348 15.737 -8.9394
615 1 7.86037 17.3008 17.3013 -8.94765
616 1 9.43376 15.7344 15.7353 -8.9414
617 1 11.008 17.3013 17.3017 -8.9479
618 1 12.5892 15.7372 15.7385 -8.9369
619 1 14.1561 17.3019 17.3022 -8.94625
620 1 15.7339 15.7326 15.7328 -8.94222
621 1 17.3003 17.2998 17.2998 -8.94745
622 1 18.8723 15.7262 15.7263 -8.95036
623 1 20.4422 17.2977 17.2978 -8.94983
624 1 -0.000892557 18.8701 15.7252 -8.94941
625 1 1.57122 20.4422 17.2978 -8.94909
626 1 3.14198 18.8718 15.7268 -8.94814
627 1 4.7159 20.4428 17.2983 -8.94988
628 1 6.28769 18.8731 15.7272 -8.95084
629 1 7.86146 20.443 17.2985 -8.94928
630 1 9.43432 18.8736 15.7277 -8.94926
631 1 11.0074 20.4431 17.2986 -8.94934
632 1 12.5812 18.8739 15.7272 -8.95043
633 1 14.1531 20.4431 17.2983 -8.94977
634 1 15.7271 18.8727 15.7266 -8.94955
635 1 17.298 20.4426 17.2978 -8.94947
636 1 18.8702 18.8704 15.725 -8.94966
637 1 20.4416 20.442 17.2973 -8.94948
638 1 1.57199 11.007 20.4415 -8.94953
639 1 4.71645 11.007 20.4416 -8.94971
640 1 7.8616 11.007 20.4414 -8.94677
641 1 11.0067 11.007 20.4425 -8.94822
642 1 14.1535 11.007 20.443 -8.95014
643 1 17.2983 11.007 20.4422 -8.94942
644 1 20.4421 11.007 20.4417 -8.94948
645 1 0.000121479 12.5794 18.8696 -8.94951
646 1 1.57202 14.1519 20.4416 -8.94939
647 1 3.14411 12.5793 18.8697 -8.9491
648 1 4.71665 14.1516 20.4419 -8.94996
649 1 6.28939 12.5785 18.8696 -8.94967
650 1 7.86149 14.1523 20.4433 -8.95161
651 1 9.43396 12.5792 18.8712 -8.94999
652 1 11.0068 14.1527 20.444 -8.95162
653 1 12.5802 12.5794 18.8736 -8.95241
654 1 14.1531 14.1527 20.4431 -8.95081
655 1 15.7267 12.58 18.872 -8.94889
656 1 17.2982 14.1525 20.4422 -8.94926
657 1 18.8705 12.5796 18.8702 -8.94935
658 1 20.442 14.1521 20.4417 -8.94944
659 1 22.0139 15.7244 18.8696 -8.94965
660 1 1.57181 17.297 20.4418 -8.94995
661 1 3.14375 15.7245 18.8704 -8.95062
662 1 4.71588 17.2978 20.4428 -8.95003
663 1 6.28758 15.7262 18.8732 -8.95125
664 1 7.86131 17.2982 20.4431 -8.94927
665 1 9.43393 15.7272 18.8739 -8.94908
666 1 11.0072 17.2984 20.4433 -8.94931
667 1 12.5811 15.7271 18.8743 -8.95057
668 1 14.1531 17.2984 20.4433 -8.94971
669 1 15.7268 15.7263 18.8722 -8.95043
670 1 17.2981 17.2979 20.4423 -8.94962
671 1 18.8705 15.725 18.8701 -8.94952
672 1 20.4419 17.2971 20.4417 -8.94959
673 1 22.0135 18.8698 18.8699 -8.94939
674 1 1.57169 20.442 20.442 -8.94911
675 1 3.14314 18.8705 18.8708 -8.94867
676 1 4.71652 20.4421 20.4422 -8.94939
677 1 6.28852 18.8708 18.871 -8.94912
678 1 7.86173 20.4422 20.4423 -8.9494
679 1 9.43429 18.871 18.8712 -8.94936
680 1 11.0071 20.4422 20.4424 -8.9494
681 1 12.5803 18.8711 18.8712 -8.9491
351 1 22.0138 12.5795 22.0135 -8.94949
353 1 3.14407 12.5794 22.0132 -8.94953
357 1 9.43411 12.5794 22.0141 -8.94882
359 1 12.58 12.5797 22.0132 -8.95136
383 1 6.28904 18.8701 22.014 -8.94933
367 1 3.14412 15.7245 22.0134 -8.95005
369 1 6.28878 15.725 22.0137 -8.95086
375 1 15.7258 15.7256 22.0134 -8.95004
381 1 3.14384 18.87 22.0137 -8.94948
363 1 18.8702 12.5796 22.0135 -8.94942
379 1 22.0136 18.8696 22.0137 -8.94955
387 1 12.5798 18.8702 22.0142 -8.94929
