ITEM: TIMESTEP
98
ITEM: NUMBER OF ATOMS
688
ITEM: BOX BOUNDS pp pp pp
0.0000000000000000e+00 2.2013900999999997e+01
0.0000000000000000e+00 2.2013900999999997e+01
0.0000000000000000e+00 2.2013900999999997e+01
ITEM: ATOMS id type x y z c_pot
1 1 22.0136 6.58454e-16 -1.71076e-05 -8.94903
2 1 1.57173 1.57193 1.57187 -8.94913
189 1 20.4413 4.71605 11.0071 -8.94951
4 1 4.71678 1.57188 1.57191 -8.94953
5 1 6.28941 1.15216e-15 7.35023e-05 -8.94948
6 1 7.86197 1.57185 1.57199 -8.94945
175 1 18.8713 9.43394 9.43411 -8.95002
8 1 11.0071 1.57184 1.57205 -8.94947
9 1 12.5796 -7.99709e-16 0.000142716 -8.94948
10 1 14.1522 1.57187 1.57217 -8.94944
174 1 15.7324 9.43194 9.43098 -8.94968
12 1 17.2972 1.57181 1.57207 -8.94947
188 1 17.2985 4.71528 11.0067 -8.94891
14 1 20.4414 1.57206 1.57208 -8.94924
181 1 17.2975 1.57172 11.0068 -8.94946
16 1 1.57165 4.7166 1.57142 -8.94982
173 1 12.6022 9.40261 9.39038 -8.80869
18 1 4.71597 4.71589 1.57076 -8.94982
172 1 9.34563 9.18657 9.44438 -7.96165
20 1 7.86164 4.71583 1.57132 -8.94918
171 1 6.24145 9.38495 9.3911 -8.8662
22 1 11.0071 4.71577 1.57153 -8.94923
177 1 4.71541 1.57034 11.0072 -8.94947
24 1 14.1526 4.71575 1.57146 -8.94994
170 1 3.13281 9.43266 9.43067 -8.96012
26 1 17.2981 4.71574 1.57121 -8.94869
169 1 22.0114 9.43437 9.43413 -8.95155
28 1 20.4418 4.71668 1.57181 -8.94952
168 1 18.8704 6.28815 9.43427 -8.94951
30 1 1.57176 7.86183 1.57141 -8.9493
167 1 15.7285 6.28571 9.43309 -8.94696
32 1 4.71651 7.86205 1.57081 -8.95034
166 1 12.5833 6.28115 9.42984 -8.95225
34 1 7.86169 7.86152 1.57053 -8.952
35 1 9.43419 6.28845 0.000282263 -8.94996
36 1 11.0067 7.86112 1.57062 -8.95059
37 1 12.5798 6.28856 0.000248888 -8.95022
38 1 14.1538 7.86037 1.56914 -8.95111
165 1 9.42801 6.29606 9.43877 -9.00659
40 1 17.2984 7.86118 1.571 -8.94921
164 1 6.27401 6.26961 9.43022 -8.95093
42 1 20.4419 7.86174 1.5717 -8.94942
163 1 3.13676 6.28425 9.43324 -8.94806
162 1 -0.00228977 6.28817 9.43432 -8.94986
45 1 6.28922 9.43477 -0.000354517 -8.94962
161 1 18.8696 3.14383 9.43433 -8.94941
160 1 15.7256 3.14291 9.43399 -8.94918
48 1 15.7259 9.43403 -0.000677427 -8.94941
159 1 12.5797 3.1426 9.43423 -8.95139
50 1 22.0134 1.21027e-15 3.14436 -8.94937
51 1 1.5713 1.57153 4.71631 -8.94941
52 1 3.14406 2.68897e-15 3.14398 -8.94959
53 1 4.71624 1.57097 4.7159 -8.95008
54 1 6.28941 2.53285e-15 3.14406 -8.94944
55 1 7.862 1.57118 4.71613 -8.94947
56 1 9.43465 8.2516e-16 3.14412 -8.9495
57 1 11.0073 1.57138 4.7163 -8.9494
58 1 12.5797 1.08653e-15 3.14428 -8.9494
59 1 14.1522 1.57141 4.71671 -8.95049
60 1 15.7247 1.54129e-16 3.14444 -8.95001
61 1 17.2972 1.5717 4.71677 -8.9496
62 1 18.8693 2.57994e-16 3.14453 -8.9495
63 1 20.4413 1.57198 4.71688 -8.94953
64 1 22.0131 3.1439 3.14384 -8.94903
65 1 1.5694 4.71472 4.71459 -8.94802
66 1 3.14315 3.14309 3.14297 -8.94832
67 1 4.71254 4.71203 4.71183 -8.94469
68 1 6.28901 3.14322 3.14337 -8.94939
69 1 7.86104 4.71334 4.71409 -8.94818
70 1 9.43457 3.14329 3.14363 -8.94946
71 1 11.0074 4.71412 4.71474 -8.94729
72 1 12.5798 3.1434 3.14386 -8.94908
73 1 14.1544 4.71287 4.71408 -8.94991
74 1 15.7254 3.14302 3.14366 -8.9496
75 1 17.2986 4.71501 4.71557 -8.94881
76 1 18.8696 3.14389 3.14412 -8.94934
77 1 20.4413 4.71612 4.71627 -8.94973
78 1 22.0134 6.28906 3.14372 -8.94964
79 1 1.57031 7.86133 4.71505 -8.94928
80 1 3.14293 6.28841 3.14215 -8.95057
81 1 4.71353 7.86026 4.71143 -8.95323
82 1 6.28734 6.28698 3.14 -8.95089
83 1 7.8585 7.85698 4.70747 -8.95749
84 1 9.43418 6.28688 3.14166 -8.94829
85 1 11.0065 7.85875 4.71 -8.95287
86 1 12.5803 6.28727 3.14157 -8.95014
87 1 14.1618 7.85283 4.70537 -8.94038
88 1 15.728 6.28585 3.14067 -8.94675
89 1 17.3008 7.85989 4.71436 -8.95007
90 1 18.8705 6.2885 3.14352 -8.94955
91 1 20.442 7.8614 4.71602 -8.94975
92 1 -0.000388194 9.43429 3.14357 -8.9494
93 1 3.14321 9.43421 3.14232 -8.94874
94 1 6.28931 9.43525 3.14226 -8.95167
95 1 9.43427 9.43383 3.14392 -8.94589
96 1 12.5823 9.433 3.13666 -8.95648
97 1 15.7281 9.43315 3.14071 -8.94822
98 1 18.8707 9.43407 3.14336 -8.94932
99 1 22.0133 1.70182e-15 6.28933 -8.94948
100 1 1.57123 1.57154 7.86167 -8.94938
101 1 3.14367 1.66553e-15 6.2888 -8.94983
102 1 4.71575 1.57028 7.86122 -8.95038
103 1 6.28929 4.03747e-14 6.28885 -8.95063
104 1 7.86209 1.5705 7.8617 -8.95139
105 1 9.43481 1.54964e-14 6.28889 -8.95019
106 1 11.0069 1.57167 7.86191 -8.94949
107 1 12.5795 1.7276e-14 6.28937 -8.9501
108 1 14.1524 1.57127 7.86169 -8.95036
109 1 15.7248 4.67794e-16 6.28928 -8.94993
110 1 17.2973 1.57174 7.86179 -8.94943
111 1 18.8693 1.01817e-16 6.28943 -8.9495
112 1 20.4413 1.57195 7.86189 -8.94947
113 1 -0.00101395 3.14373 6.28902 -8.94945
114 1 1.56928 4.71474 7.86095 -8.9492
115 1 3.14222 3.14171 6.28763 -8.94927
116 1 4.71089 4.70891 7.85808 -8.94869
117 1 6.28801 3.14035 6.28752 -8.95166
118 1 7.8597 4.7081 7.86042 -8.95944
119 1 9.43466 3.14164 6.28803 -8.94992
120 1 11.0051 4.71483 7.86186 -8.95316
121 1 12.5795 3.14255 6.289 -8.95174
122 1 14.1542 4.71245 7.85988 -8.94979
123 1 15.7255 3.14268 6.28868 -8.9496
124 1 17.2983 4.71529 7.86135 -8.94917
125 1 18.8695 3.14387 6.28923 -8.94948
126 1 20.4412 4.71605 7.8617 -8.94951
127 1 22.0116 6.28807 6.28813 -8.95055
128 1 1.56573 7.85974 7.85959 -8.95354
129 1 3.13593 6.28286 6.2827 -8.94501
130 1 4.69324 7.84452 7.84504 -8.93669
131 1 6.27597 6.27494 6.27506 -8.92975
132 1 7.82089 7.82171 7.82378 -8.84739
133 1 9.43332 6.28092 6.28396 -8.94429
134 1 11.017 7.84948 7.83916 -8.90206
135 1 12.5846 6.28062 6.28191 -8.95046
136 1 14.1662 7.84969 7.85 -8.93475
137 1 15.7298 6.28438 6.2852 -8.9461
138 1 17.3013 7.85977 7.86041 -8.95123
139 1 18.8706 6.28816 6.28858 -8.95013
140 1 20.4412 7.86122 7.86146 -8.95091
141 1 22.0124 9.43413 6.28806 -8.94935
142 1 3.13984 9.43386 6.28502 -8.9474
143 1 6.28458 9.43519 6.27997 -8.96137
144 1 9.42637 9.42034 6.29338 -8.92731
145 1 12.6062 9.41474 6.25723 -8.91454
146 1 15.7339 9.43168 6.28347 -8.95309
147 1 18.8717 9.43389 6.28817 -8.9506
148 1 -0.000593304 1.78186e-15 9.43443 -8.94948
149 1 3.14347 2.61759e-15 9.43428 -8.94944
150 1 6.28892 2.07316e-14 9.43437 -8.95106
151 1 9.43477 2.46853e-13 9.43429 -8.94804
152 1 12.5797 1.21701e-15 9.43429 -8.95005
153 1 15.725 2.25152e-15 9.43417 -8.94954
154 1 18.8694 5.24914e-16 9.43438 -8.9495
155 1 22.0129 3.14373 9.4344 -8.94938
156 1 3.1422 3.14202 9.43415 -8.94905
157 1 6.28703 3.13892 9.43435 -8.95224
158 1 9.43425 3.1442 9.43474 -8.9451
183 1 1.56941 4.71502 11.0074 -8.94911
184 1 4.71091 4.71034 11.0082 -8.94619
11 1 15.7246 6.1404e-16 0.000151531 -8.94952
25 1 15.725 3.1439 0.000167674 -8.94959
29 1 22.0138 6.28945 -0.000285283 -8.94946
41 1 18.8699 6.28915 -0.000275462 -8.94942
176 1 1.57117 1.57159 11.0071 -8.94939
343 1 18.8703 9.43433 18.87 -8.94939
178 1 7.86203 1.57048 11.0071 -8.95108
179 1 11.0069 1.5716 11.0067 -8.9489
180 1 14.1528 1.57116 11.0065 -8.94943
342 1 15.7264 9.43397 18.8717 -8.94887
182 1 20.4414 1.57194 11.007 -8.94949
47 1 12.5799 9.43431 22.0132 -8.95139
46 1 9.43415 9.43457 22.0141 -8.94891
185 1 7.85873 4.70848 11.0096 -8.959
186 1 11.0066 4.71539 11.0075 -8.9506
187 1 14.1547 4.71322 11.006 -8.9469
341 1 12.5802 9.43458 18.8735 -8.95233
340 1 9.4339 9.43472 18.8715 -8.95012
190 1 1.56693 7.86044 11.0074 -8.95249
191 1 4.69763 7.85281 11.0091 -8.95631
192 1 7.80098 7.82372 11.0359 -8.8162
193 1 11.0467 7.85526 11.018 -8.86909
194 1 14.1652 7.85635 11.0058 -8.95453
195 1 17.3012 7.86019 11.0068 -8.95049
196 1 20.4415 7.86131 11.0072 -8.95053
197 1 -0.000577152 8.96943e-16 12.5796 -8.94948
198 1 1.57124 1.57165 14.1524 -8.94934
199 1 3.14344 2.08385e-15 12.5798 -8.94936
200 1 4.71558 1.57041 14.1531 -8.95012
201 1 6.2889 3.83409e-14 12.5798 -8.95119
202 1 7.86192 1.57033 14.1528 -8.95074
203 1 9.43475 1.07966e-15 12.5796 -8.94908
204 1 11.0073 1.57017 14.1527 -8.95101
205 1 12.5799 1.76913e-14 12.5791 -8.95098
206 1 14.153 1.5704 14.1523 -8.95092
207 1 15.7251 1.19501e-15 12.5792 -8.94952
208 1 17.2975 1.57164 14.1519 -8.94958
209 1 18.8694 7.84728e-16 12.5794 -8.94948
210 1 20.4414 1.57197 14.152 -8.94946
211 1 22.013 3.1438 12.5797 -8.94936
212 1 1.56966 4.71531 14.1534 -8.9492
213 1 3.14221 3.14221 12.5805 -8.94895
214 1 4.71077 4.71002 14.1575 -8.94406
215 1 6.28698 3.13889 12.5811 -8.95245
216 1 7.86056 4.70865 14.1564 -8.9561
217 1 9.43483 3.14202 12.5806 -8.94767
218 1 11.0083 4.70766 14.1569 -8.95502
219 1 12.5806 3.14014 12.5795 -8.95371
220 1 14.1572 4.70868 14.1562 -8.95009
221 1 15.7258 3.14263 12.5793 -8.94942
222 1 17.2993 4.7148 14.1528 -8.94979
223 1 18.8697 3.14382 12.5795 -8.94936
224 1 20.4416 4.71619 14.1524 -8.94971
225 1 -0.00177541 6.28843 12.5802 -8.95014
226 1 1.56995 7.86173 14.1529 -8.95207
227 1 3.13754 6.28516 12.5824 -8.94882
228 1 4.70671 7.85545 14.1595 -8.95023
229 1 6.27266 6.26971 12.5931 -8.93142
230 1 7.83789 7.83196 14.1862 -8.90086
231 1 9.43575 6.28573 12.5863 -8.98624
232 1 11.0303 7.82919 14.1901 -8.88519
233 1 12.5898 6.27079 12.5875 -8.9567
234 1 14.1757 7.84078 14.174 -8.92379
235 1 15.73 6.2848 12.5806 -8.9495
236 1 17.3039 7.85891 14.1552 -8.95281
237 1 18.8709 6.28822 12.5798 -8.94977
238 1 20.4427 7.86155 14.1527 -8.95085
239 1 22.0134 9.43458 12.5799 -8.94992
240 1 3.1411 9.43486 12.5795 -8.95243
241 1 6.27513 9.41302 12.5956 -8.89062
242 1 9.43835 9.26352 12.6375 -8.23104
243 1 12.6307 9.37351 12.6435 -8.77308
244 1 15.7384 9.43016 12.5857 -8.957
245 1 18.8726 9.43406 12.5803 -8.95165
246 1 22.0134 -4.07911e-16 15.7246 -8.94947
247 1 1.57141 1.57178 17.2975 -8.94914
248 1 3.14358 1.50118e-15 15.7252 -8.94954
249 1 4.71609 1.57122 17.298 -8.94992
250 1 6.28903 1.22695e-15 15.7253 -8.95023
251 1 7.86155 1.57104 17.2982 -8.9493
252 1 9.43451 1.51468e-15 15.7255 -8.95013
253 1 11.0073 1.57095 17.2983 -8.94935
254 1 12.5801 9.16934e-16 15.7252 -8.95034
255 1 14.1529 1.57095 17.2981 -8.9498
256 1 15.7253 1.01591e-15 15.7249 -8.95012
257 1 17.2978 1.57147 17.2976 -8.94949
258 1 18.8695 7.00205e-16 15.7245 -8.94961
259 1 20.4416 1.57199 17.2971 -8.94952
260 1 -0.000781945 3.14396 15.725 -8.94942
261 1 1.57072 4.71607 17.2983 -8.94953
262 1 3.14229 3.14241 15.7264 -8.94815
263 1 4.71317 4.71339 17.3014 -8.94637
264 1 6.28787 3.14098 15.7268 -8.95098
265 1 7.86043 4.71324 17.3011 -8.94755
266 1 9.43433 3.14046 15.7274 -8.94929
267 1 11.0079 4.71283 17.3014 -8.94783
268 1 12.5811 3.14025 15.7269 -8.95056
269 1 14.1559 4.71227 17.3018 -8.94602
270 1 15.7268 3.14153 15.7262 -8.94954
271 1 17.3 4.71445 17.2994 -8.94754
272 1 18.87 3.14374 15.7248 -8.94968
273 1 20.4421 4.71639 17.2976 -8.94985
274 1 22.0133 6.28904 15.7253 -8.95066
275 1 1.57189 7.8623 17.2974 -8.94951
276 1 3.14016 6.28694 15.728 -8.94968
277 1 4.71603 7.86254 17.2988 -8.95226
278 1 6.27935 6.27894 15.7372 -8.9385
279 1 7.85989 7.85874 17.3057 -8.9573
280 1 9.4337 6.2795 15.7354 -8.94133
281 1 11.0081 7.85762 17.3078 -8.95641
282 1 12.5894 6.2767 15.7384 -8.93596
283 1 14.1557 7.85925 17.3041 -8.95294
284 1 15.7334 6.28181 15.7322 -8.94249
285 1 17.2993 7.86111 17.299 -8.94922
286 1 18.8719 6.28801 15.726 -8.95041
287 1 20.4423 7.86187 17.2975 -8.94937
288 1 22.014 9.43454 15.7251 -8.94919
289 1 3.1442 9.43524 15.7251 -8.94814
290 1 6.29103 9.43789 15.7254 -8.95677
291 1 9.43451 9.42909 15.7304 -8.96864
292 1 12.5838 9.43318 15.7402 -8.96315
293 1 15.7297 9.43326 15.73 -8.94729
294 1 18.8715 9.43416 15.7259 -8.94907
295 1 -0.000341743 -1.08781e-16 18.8695 -8.94928
296 1 1.57181 1.57199 20.4419 -8.94914
297 1 3.14404 -1.31702e-15 18.8699 -8.94958
298 1 4.71668 1.57191 20.4421 -8.94943
299 1 6.28913 1.02694e-15 18.87 -8.94933
300 1 7.86182 1.57182 20.4422 -8.94943
301 1 9.43445 -4.30602e-16 18.8701 -8.94944
302 1 11.0071 1.57179 20.4422 -8.94944
303 1 12.5798 1.56645e-15 18.8701 -8.94936
304 1 14.1523 1.57182 20.4422 -8.94941
305 1 15.725 1.55859e-15 18.87 -8.94951
306 1 17.2973 1.57189 20.442 -8.94926
307 1 18.8696 4.02421e-16 18.8696 -8.94938
308 1 20.4417 1.57208 20.4418 -8.94911
309 1 22.0135 3.14423 18.8698 -8.94943
310 1 1.57188 4.71695 20.4418 -8.94994
311 1 3.14329 3.1435 18.8707 -8.94861
312 1 4.716 4.71617 20.4427 -8.95
313 1 6.28867 3.14329 18.8708 -8.94912
314 1 7.8614 4.7158 20.443 -8.94925
315 1 9.43433 3.14307 18.871 -8.94938
316 1 11.0072 4.71568 20.4431 -8.94929
317 1 12.5802 3.14303 18.8709 -8.94912
318 1 14.1529 4.71574 20.4431 -8.94969
319 1 15.7259 3.14308 18.8708 -8.9486
320 1 17.2979 4.71623 20.4421 -8.94964
321 1 18.8701 3.14385 18.87 -8.94893
322 1 20.4418 4.71693 20.4417 -8.94962
323 1 22.0139 6.28955 18.8695 -8.94966
324 1 1.572 7.86204 20.4416 -8.94939
325 1 3.1438 6.28947 18.8702 -8.95057
326 1 4.71664 7.8623 20.4419 -8.9499
327 1 6.28758 6.28776 18.8732 -8.95124
328 1 7.86149 7.86169 20.4434 -8.95168
329 1 9.43394 6.28685 18.8738 -8.94906
330 1 11.0068 7.86133 20.444 -8.95169
331 1 12.5811 6.28698 18.874 -8.95059
332 1 14.1529 7.86136 20.443 -8.95077
333 1 15.7265 6.28791 18.8719 -8.95043
334 1 17.298 7.86157 20.442 -8.94926
335 1 18.8702 6.28912 18.8699 -8.94955
336 1 20.4419 7.86191 20.4417 -8.94947
337 1 -6.9755e-06 9.43448 18.8696 -8.94953
338 1 3.14403 9.43462 18.8698 -8.94908
339 1 6.28925 9.43539 18.8698 -8.94962
7 1 9.43451 -7.9158e-16 22.014 -8.9495
44 1 3.14409 9.43446 22.0133 -8.94953
17 1 3.144 3.14407 22.0138 -8.94948
19 1 6.28918 3.14396 22.014 -8.94934
21 1 9.43444 3.14385 22.0141 -8.94944
43 1 22.0138 9.43443 22.0136 -8.94951
27 1 18.8697 3.1442 22.0138 -8.94926
39 1 15.7256 6.28847 22.0133 -8.95005
31 1 3.14421 6.28948 22.0135 -8.95
33 1 6.28886 6.28894 22.0137 -8.95087
3 1 3.1444 1.03575e-15 22.0139 -8.94954
13 1 18.8694 8.89975e-16 22.0139 -8.94916
15 1 22.0137 3.14446 22.0137 -8.94958
23 1 12.5797 3.14386 22.0141 -8.94932
49 1 18.87 9.43432 22.0136 -8.94945
344 1 1.57172 11.007 1.57135 -8.94949
345 1 4.71626 11.007 1.57064 -8.94989
346 1 7.86223 11.007 1.57243 -8.94739
347 1 11.0068 11.007 1.57064 -8.95006
348 1 14.1543 11.007 1.56889 -8.9497
349 1 17.2985 11.007 1.57097 -8.94938
350 1 20.4419 11.007 1.57166 -8.94947
688 3 10.1429 11.007 9.54471 2.22686
352 1 1.57176 14.1521 1.57141 -8.9493
511 1 18.8696 18.8701 9.43433 -8.94941
354 1 4.71651 14.1519 1.57081 -8.95034
355 1 6.28922 12.5791 -0.000354517 -8.94962
356 1 7.86169 14.1524 1.57053 -8.952
510 1 15.7256 18.871 9.43399 -8.94918
358 1 11.0067 14.1528 1.57062 -8.95059
509 1 12.5797 18.8713 9.43423 -8.95139
360 1 14.1538 14.1535 1.56914 -8.95111
361 1 15.7259 12.5799 -0.000677427 -8.94941
362 1 17.2984 14.1527 1.571 -8.94921
538 1 17.2975 20.4422 11.0068 -8.94946
364 1 20.4419 14.1522 1.5717 -8.94942
508 1 9.43425 18.8697 9.43474 -8.9451
366 1 1.57165 17.2973 1.57142 -8.94982
507 1 6.28703 18.875 9.43435 -8.95224
368 1 4.71597 17.298 1.57076 -8.94982
506 1 3.1422 18.8719 9.43415 -8.94905
370 1 7.86164 17.2981 1.57132 -8.94918
371 1 9.43419 15.7254 0.000282263 -8.94996
372 1 11.0071 17.2981 1.57153 -8.94923
373 1 12.5798 15.7253 0.000248888 -8.95022
374 1 14.1526 17.2982 1.57146 -8.94994
505 1 22.0129 18.8702 9.4344 -8.94938
376 1 17.2981 17.2982 1.57121 -8.94869
504 1 18.8704 15.7257 9.43427 -8.94951
378 1 20.4418 17.2972 1.57181 -8.94952
534 1 4.71541 20.4436 11.0072 -8.94947
380 1 1.57173 20.442 1.57187 -8.94913
503 1 15.7285 15.7282 9.43309 -8.94696
382 1 4.71678 20.442 1.57191 -8.94953
502 1 12.5833 15.7327 9.42984 -8.95225
384 1 7.86197 20.4421 1.57199 -8.94945
501 1 9.42801 15.7178 9.43877 -9.00659
386 1 11.0071 20.4421 1.57205 -8.94947
532 1 20.4413 17.2978 11.0071 -8.94951
388 1 14.1522 20.442 1.57217 -8.94944
500 1 6.27401 15.7443 9.43022 -8.95093
390 1 17.2972 20.4421 1.57207 -8.94947
499 1 3.13676 15.7296 9.43324 -8.94806
392 1 20.4414 20.4418 1.57208 -8.94924
393 1 1.57041 11.007 4.7148 -8.94925
394 1 4.71387 11.007 4.71161 -8.94589
395 1 7.86547 11.007 4.72054 -8.9444
396 1 11.0089 11.007 4.70989 -8.98168
397 1 14.1609 11.007 4.70666 -8.94314
398 1 17.301 11.007 4.71412 -8.94913
399 1 20.4421 11.007 4.71585 -8.9497
400 1 -0.000388194 12.5796 3.14357 -8.9494
401 1 1.57031 14.1526 4.71505 -8.94928
402 1 3.14321 12.5797 3.14232 -8.94874
403 1 4.71353 14.1536 4.71143 -8.95323
404 1 6.28931 12.5787 3.14226 -8.95167
405 1 7.8585 14.1569 4.70747 -8.95749
406 1 9.43427 12.5801 3.14392 -8.94589
407 1 11.0065 14.1551 4.71 -8.95287
408 1 12.5823 12.5809 3.13666 -8.95648
409 1 14.1618 14.1611 4.70537 -8.94038
410 1 15.7281 12.5808 3.14071 -8.94822
411 1 17.3008 14.154 4.71436 -8.95007
412 1 18.8707 12.5798 3.14336 -8.94932
413 1 20.442 14.1525 4.71602 -8.94975
414 1 22.0134 15.7248 3.14372 -8.94964
415 1 1.5694 17.2992 4.71459 -8.94802
416 1 3.14293 15.7255 3.14215 -8.95057
417 1 4.71254 17.3019 4.71183 -8.94469
418 1 6.28734 15.7269 3.14 -8.95089
419 1 7.86104 17.3006 4.71409 -8.94818
420 1 9.43418 15.727 3.14166 -8.94829
421 1 11.0074 17.2998 4.71474 -8.94729
422 1 12.5803 15.7266 3.14157 -8.95014
423 1 14.1544 17.301 4.71408 -8.94991
424 1 15.728 15.728 3.14067 -8.94675
425 1 17.2986 17.2989 4.71557 -8.94881
426 1 18.8705 15.7254 3.14352 -8.94955
427 1 20.4413 17.2978 4.71627 -8.94973
428 1 22.0131 18.87 3.14384 -8.94903
429 1 1.5713 20.4424 4.71631 -8.94941
430 1 3.14315 18.8708 3.14297 -8.94832
431 1 4.71624 20.4429 4.7159 -8.95008
432 1 6.28901 18.8707 3.14337 -8.94939
433 1 7.862 20.4427 4.71613 -8.94947
434 1 9.43457 18.8706 3.14363 -8.94946
435 1 11.0073 20.4425 4.7163 -8.9494
436 1 12.5798 18.8705 3.14386 -8.94908
437 1 14.1522 20.4425 4.71671 -8.95049
438 1 15.7254 18.8709 3.14366 -8.9496
439 1 17.2972 20.4422 4.71677 -8.9496
440 1 18.8696 18.87 3.14412 -8.94934
441 1 20.4413 20.4419 4.71688 -8.94953
442 1 1.56795 11.007 7.85908 -8.9473
443 1 4.70957 11.007 7.85262 -8.93522
444 1 7.87372 11.007 7.87751 -8.9234
445 1 11.0698 11.007 7.73421 -8.30853
446 1 14.1679 11.007 7.84992 -8.95933
447 1 17.3021 11.007 7.86008 -8.95081
448 1 20.4417 11.007 7.8612 -8.95003
449 1 22.0124 12.5798 6.28806 -8.94935
450 1 1.56573 14.1542 7.85959 -8.95354
451 1 3.13984 12.58 6.28502 -8.9474
452 1 4.69324 14.1694 7.84504 -8.93669
453 1 6.28458 12.5787 6.27997 -8.96137
454 1 7.82089 14.1922 7.82378 -8.84739
455 1 9.42637 12.5936 6.29338 -8.92731
456 1 11.017 14.1644 7.83916 -8.90206
457 1 12.6062 12.5992 6.25723 -8.91454
458 1 14.1662 14.1642 7.85 -8.93475
459 1 15.7339 12.5822 6.28347 -8.95309
460 1 17.3013 14.1541 7.86041 -8.95123
461 1 18.8717 12.58 6.28817 -8.9506
462 1 20.4412 14.1527 7.86146 -8.95091
463 1 22.0116 15.7258 6.28813 -8.95055
464 1 1.56928 17.2992 7.86095 -8.9492
465 1 3.13593 15.731 6.2827 -8.94501
466 1 4.71089 17.305 7.85808 -8.94869
467 1 6.27597 15.739 6.27506 -8.92975
468 1 7.8597 17.3058 7.86042 -8.95944
469 1 9.43332 15.733 6.28396 -8.94429
470 1 11.0051 17.2991 7.86186 -8.95316
471 1 12.5846 15.7333 6.28191 -8.95046
472 1 14.1542 17.3015 7.85988 -8.94979
473 1 15.7298 15.7295 6.2852 -8.9461
474 1 17.2983 17.2986 7.86135 -8.94917
475 1 18.8706 15.7257 6.28858 -8.95013
476 1 20.4412 17.2978 7.8617 -8.94951
477 1 -0.00101395 18.8702 6.28902 -8.94945
478 1 1.57123 20.4424 7.86167 -8.94938
479 1 3.14222 18.8722 6.28763 -8.94927
480 1 4.71575 20.4436 7.86122 -8.95038
481 1 6.28801 18.8735 6.28752 -8.95166
482 1 7.86209 20.4434 7.8617 -8.95139
483 1 9.43466 18.8723 6.28803 -8.94992
484 1 11.0069 20.4422 7.86191 -8.94949
485 1 12.5795 18.8713 6.289 -8.95174
486 1 14.1524 20.4426 7.86169 -8.95036
487 1 15.7255 18.8712 6.28868 -8.9496
488 1 17.2973 20.4422 7.86179 -8.94943
489 1 18.8695 18.87 6.28923 -8.94948
490 1 20.4413 20.442 7.86189 -8.94947
491 1 22.0114 12.5795 9.43413 -8.95155
492 1 3.13281 12.5812 9.43067 -8.96012
493 1 6.24145 12.629 9.3911 -8.8662
494 1 9.34563 12.8273 9.44438 -7.96165
495 1 12.6022 12.6113 9.39038 -8.80869
496 1 15.7324 12.582 9.43098 -8.94968
497 1 18.8713 12.58 9.43411 -8.95002
498 1 -0.00228977 15.7257 9.43432 -8.94986
513 1 4.7185 11.007 10.9992 -9.00808
514 1 7.59756 11.007 10.9166 -7.99818
531 1 17.2985 17.2986 11.0067 -8.94891
526 1 1.56941 17.2989 11.0074 -8.94911
527 1 4.71091 17.3036 11.0082 -8.94619
389 1 15.725 18.87 0.000167674 -8.94959
365 1 22.0138 15.7245 -0.000285283 -8.94946
377 1 18.8699 15.7248 -0.000275462 -8.94942
512 1 1.57042 11.007 11.0069 -8.94568
687 3 9.47816 11.007 11.598 2.15796
686 1 20.4417 20.4418 20.4418 -8.94911
515 1 11.4121 11.007 11.0894 -7.1771
516 1 14.1752 11.007 11.0124 -9.02162
517 1 17.3027 11.007 11.0071 -8.95352
518 1 20.4423 11.007 11.0071 -8.94923
519 1 1.56693 14.1535 11.0074 -8.95249
520 1 4.69763 14.1611 11.0091 -8.95631
521 1 7.80098 14.1902 11.0359 -8.8162
522 1 11.0467 14.1586 11.018 -8.86909
523 1 14.1652 14.1576 11.0058 -8.95453
524 1 17.3012 14.1537 11.0068 -8.95049
525 1 20.4415 14.1526 11.0072 -8.95053
391 1 18.8697 18.8697 22.0138 -8.94926
385 1 9.43444 18.87 22.0141 -8.94944
528 1 7.85873 17.3054 11.0096 -8.959
529 1 11.0066 17.2985 11.0075 -8.9506
530 1 14.1547 17.3007 11.006 -8.9469
685 1 18.8701 18.8701 18.87 -8.94893
684 1 17.2973 20.442 20.442 -8.94926
533 1 1.57117 20.4423 11.0071 -8.94939
683 1 15.7259 18.8708 18.8708 -8.9486
535 1 7.86203 20.4434 11.0071 -8.95108
536 1 11.0069 20.4423 11.0067 -8.9489
537 1 14.1528 20.4427 11.0065 -8.94943
682 1 14.1523 20.4421 20.4422 -8.94941
539 1 20.4414 20.442 11.007 -8.94949
540 1 1.57178 11.007 14.1528 -8.94807
541 1 4.71804 11.007 14.1507 -8.94032
542 1 7.87547 11.007 14.1154 -8.92911
543 1 11.0073 11.007 14.143 -8.97599
544 1 14.1623 11.007 14.1634 -8.93657
545 1 17.302 11.007 14.1552 -8.94763
546 1 20.4428 11.007 14.1529 -8.94952
547 1 22.0134 12.5793 12.5799 -8.94992
548 1 1.56995 14.1522 14.1529 -8.95207
549 1 3.1411 12.579 12.5795 -8.95243
550 1 4.70671 14.1584 14.1595 -8.95023
551 1 6.27513 12.6009 12.5956 -8.89062
552 1 7.83789 14.1819 14.1862 -8.90086
553 1 9.43835 12.7504 12.6375 -8.23104
554 1 11.0303 14.1847 14.1901 -8.88519
555 1 12.6307 12.6404 12.6435 -8.77308
556 1 14.1757 14.1731 14.174 -8.92379
557 1 15.7384 12.5837 12.5857 -8.957
558 1 17.3039 14.155 14.1552 -8.95281
559 1 18.8726 12.5798 12.5803 -8.95165
560 1 20.4427 14.1523 14.1527 -8.95085
561 1 -0.00177541 15.7255 12.5802 -8.95014
562 1 1.56966 17.2986 14.1534 -8.9492
563 1 3.13754 15.7287 12.5824 -8.94882
564 1 4.71077 17.3039 14.1575 -8.94406
565 1 6.27266 15.7442 12.5931 -8.93142
566 1 7.86056 17.3053 14.1564 -8.9561
567 1 9.43575 15.7282 12.5863 -8.98624
568 1 11.0083 17.3062 14.1569 -8.95502
569 1 12.5898 15.7431 12.5875 -8.9567
570 1 14.1572 17.3052 14.1562 -8.95009
571 1 15.73 15.7291 12.5806 -8.9495
572 1 17.2993 17.2991 14.1528 -8.94979
573 1 18.8709 15.7257 12.5798 -8.94977
574 1 20.4416 17.2977 14.1524 -8.94971
575 1 22.013 18.8701 12.5797 -8.94936
576 1 1.57124 20.4422 14.1524 -8.94934
577 1 3.14221 18.8717 12.5805 -8.94895
578 1 4.71558 20.4435 14.1531 -8.95012
579 1 6.28698 18.875 12.5811 -8.95245
580 1 7.86192 20.4436 14.1528 -8.95074
581 1 9.43483 18.8719 12.5806 -8.94767
582 1 11.0073 20.4437 14.1527 -8.95101
583 1 12.5806 18.8738 12.5795 -8.95371
584 1 14.153 20.4435 14.1523 -8.95092
585 1 15.7258 18.8713 12.5793 -8.94942
586 1 17.2975 20.4423 14.1519 -8.94958
587 1 18.8697 18.8701 12.5795 -8.94936
588 1 20.4414 20.4419 14.152 -8.94946
589 1 1.57192 11.007 17.2975 -8.94969
590 1 4.71603 11.007 17.2978 -8.94755
591 1 7.86286 11.007 17.2925 -8.93535
592 1 11.0063 11.007 17.2986 -8.94202
593 1 14.1561 11.007 17.3035 -8.94647
594 1 17.2994 11.007 17.2991 -8.94923
595 1 20.4423 11.007 17.2976 -8.94953
596 1 22.014 12.5794 15.7251 -8.94919
597 1 1.57189 14.1516 17.2974 -8.94951
598 1 3.1442 12.5787 15.7251 -8.94814
599 1 4.71603 14.1514 17.2988 -8.95226
600 1 6.29103 12.576 15.7254 -8.95677
601 1 7.85989 14.1552 17.3057 -8.9573
602 1 9.43451 12.5848 15.7304 -8.96864
603 1 11.0081 14.1563 17.3078 -8.95641
604 1 12.5838 12.5807 15.7402 -8.96315
605 1 14.1557 14.1547 17.3041 -8.95294
606 1 15.7297 12.5806 15.73 -8.94729
607 1 17.2993 14.1528 17.299 -8.94922
608 1 18.8715 12.5797 15.7259 -8.94907
609 1 20.4423 14.152 17.2975 -8.94937
610 1 22.0133 15.7249 15.7253 -8.95066
611 1 1.57072 17.2978 17.2983 -8.94953
612 1 3.14016 15.727 15.728 -8.94968
613 1 4.71317 17.3005 17.3014 -8.94637
614 1 6.27935 15.735 15.7372 -8.9385
615 1 7.86043 17.3007 17.3011 -8.94755
616 1 9.4337 15.7344 15.7354 -8.94133
617 1 11.0079 17.3011 17.3014 -8.94783
618 1 12.5894 15.7372 15.7384 -8.93596
619 1 14.1559 17.3016 17.3018 -8.94602
620 1 15.7334 15.7321 15.7322 -8.94249
621 1 17.3 17.2995 17.2994 -8.94754
622 1 18.8719 15.7259 15.726 -8.95041
623 1 20.4421 17.2975 17.2976 -8.94985
624 1 -0.000781945 18.8699 15.725 -8.94942
625 1 1.57141 20.4421 17.2975 -8.94914
626 1 3.14229 18.8715 15.7264 -8.94815
627 1 4.71609 20.4427 17.298 -8.94992
628 1 6.28787 18.8729 15.7268 -8.95098
629 1 7.86155 20.4429 17.2982 -8.9493
630 1 9.43433 18.8734 15.7274 -8.94929
631 1 11.0073 20.443 17.2983 -8.94935
632 1 12.5811 18.8736 15.7269 -8.95056
633 1 14.1529 20.443 17.2981 -8.9498
634 1 15.7268 18.8724 15.7262 -8.94954
635 1 17.2978 20.4424 17.2976 -8.94949
636 1 18.87 18.8702 15.7248 -8.94968
637 1 20.4416 20.4419 17.2971 -8.94952
638 1 1.57195 11.007 20.4416 -8.94954
639 1 4.71639 11.007 20.4417 -8.94968
640 1 7.86153 11.007 20.4416 -8.94686
641 1 11.0067 11.007 20.4426 -8.94814
642 1 14.1533 11.007 20.4429 -8.95011
643 1 17.298 11.007 20.4421 -8.94943
644 1 20.4419 11.007 20.4417 -8.94951
645 1 -6.9755e-06 12.5794 18.8696 -8.94953
646 1 1.572 14.1519 20.4416 -8.94939
647 1 3.14403 12.5793 18.8698 -8.94908
648 1 4.71664 14.1516 20.4419 -8.9499
649 1 6.28925 12.5785 18.8698 -8.94962
650 1 7.86149 14.1522 20.4434 -8.95168
651 1 9.4339 12.5792 18.8715 -8.95012
652 1 11.0068 14.1526 20.444 -8.95169
653 1 12.5802 12.5793 18.8735 -8.95233
654 1 14.1529 14.1525 20.443 -8.95077
655 1 15.7264 12.5799 18.8717 -8.94887
656 1 17.298 14.1523 20.442 -8.94926
657 1 18.8703 12.5796 18.87 -8.94939
658 1 20.4419 14.152 20.4417 -8.94947
659 1 22.0139 15.7243 18.8695 -8.94966
660 1 1.57188 17.297 20.4418 -8.94994
661 1 3.1438 15.7244 18.8702 -8.95057
662 1 4.716 17.2977 20.4427 -8.95
663 1 6.28758 15.7261 18.8732 -8.95124
664 1 7.8614 17.2981 20.443 -8.94925
665 1 9.43394 15.727 18.8738 -8.94906
666 1 11.0072 17.2982 20.4431 -8.94929
667 1 12.5811 15.7269 18.874 -8.95059
668 1 14.1529 17.2982 20.4431 -8.94969
669 1 15.7265 15.726 18.8719 -8.95043
670 1 17.2979 17.2977 20.4421 -8.94964
671 1 18.8702 15.7248 18.8699 -8.94955
672 1 20.4418 17.297 20.4417 -8.94962
673 1 22.0135 18.8697 18.8698 -8.94943
674 1 1.57181 20.4419 20.4419 -8.94914
675 1 3.14329 18.8704 18.8707 -8.94861
676 1 4.71668 20.442 20.4421 -8.94943
677 1 6.28867 18.8706 18.8708 -8.94912
678 1 7.86182 20.4421 20.4422 -8.94943
679 1 9.43433 18.8708 18.871 -8.94938
680 1 11.0071 20.4421 20.4422 -8.94944
681 1 12.5802 18.8709 18.8709 -8.94912
351 1 22.0138 12.5795 22.0136 -8.94951
353 1 3.14409 12.5794 22.0133 -8.94953
357 1 9.43415 12.5793 22.0141 -8.94891
359 1 12.5799 12.5796 22.0132 -8.95139
383 1 6.28918 18.8699 22.014 -8.94934
367 1 3.14421 15.7244 22.0135 -8.95
369 1 6.28886 15.725 22.0137 -8.95087
375 1 15.7256 15.7254 22.0133 -8.95005
381 1 3.144 18.8698 22.0138 -8.94948
363 1 18.87 12.5796 22.0136 -8.94945
379 1 22.0137 18.8694 22.0137 -8.94958
387 1 12.5797 18.87 22.0141 -8.94932
