ITEM: TIMESTEP
113
ITEM: NUMBER OF ATOMS
688
ITEM: BOX BOUNDS pp pp pp
0.0000000000000000e+00 2.2013900999999997e+01
0.0000000000000000e+00 2.2013900999999997e+01
0.0000000000000000e+00 2.2013900999999997e+01
ITEM: ATOMS id type x y z c_pot
1 1 22.0136 1.54474e-13 -3.19263e-05 -8.94897
2 1 1.57161 1.57185 1.57177 -8.94908
189 1 20.4412 4.7159 11.0071 -8.94951
4 1 4.71667 1.5718 1.57183 -8.9495
5 1 6.28933 2.42286e-13 9.72936e-05 -8.94945
6 1 7.86193 1.57178 1.57196 -8.94943
175 1 18.8715 9.43387 9.434 -8.95008
8 1 11.0072 1.57178 1.57205 -8.94945
9 1 12.5797 -8.25249e-14 0.00020285 -8.94945
10 1 14.1522 1.5718 1.57217 -8.94943
174 1 15.733 9.43168 9.43074 -8.94957
12 1 17.2973 1.57174 1.57204 -8.94945
188 1 17.2987 4.7151 11.0067 -8.94892
14 1 20.4414 1.57199 1.57201 -8.94919
181 1 17.2975 1.57164 11.0068 -8.94945
16 1 1.57154 4.71649 1.57127 -8.94983
173 1 12.6032 9.40154 9.39044 -8.80812
18 1 4.71584 4.71577 1.57062 -8.94986
172 1 9.34677 9.18356 9.44206 -7.95353
20 1 7.86157 4.7157 1.57126 -8.94919
171 1 6.24131 9.38419 9.39092 -8.86561
22 1 11.0072 4.71566 1.57151 -8.94921
177 1 4.7152 1.5702 11.0073 -8.94949
24 1 14.1527 4.71561 1.5714 -8.94997
170 1 3.13253 9.43241 9.43038 -8.95997
26 1 17.2982 4.71561 1.57114 -8.94875
169 1 22.0113 9.43431 9.434 -8.95156
28 1 20.4418 4.71656 1.5717 -8.9495
168 1 18.8704 6.288 9.43419 -8.94952
30 1 1.5717 7.86178 1.57125 -8.94929
167 1 15.7287 6.28547 9.43294 -8.94697
32 1 4.71646 7.86201 1.57068 -8.95038
166 1 12.5836 6.28085 9.43002 -8.95253
34 1 7.86163 7.86144 1.57048 -8.95193
35 1 9.43417 6.28837 0.000322785 -8.94999
36 1 11.0067 7.86108 1.57064 -8.9506
37 1 12.5798 6.28846 0.000299268 -8.95025
38 1 14.1539 7.86028 1.5691 -8.95101
165 1 9.42788 6.29584 9.43887 -9.00729
40 1 17.2985 7.86106 1.57089 -8.94921
164 1 6.27361 6.26921 9.43028 -8.95121
42 1 20.442 7.86166 1.57158 -8.94939
163 1 3.13628 6.28384 9.43307 -8.94798
162 1 -0.00250021 6.28797 9.43424 -8.94987
45 1 6.28924 9.43479 -0.000404579 -8.94962
161 1 18.8696 3.14369 9.43428 -8.94939
160 1 15.7257 3.14278 9.43393 -8.94919
48 1 15.726 9.43398 -0.000677801 -8.94944
159 1 12.5798 3.14253 9.43424 -8.95141
50 1 22.0133 8.20004e-14 3.14424 -8.94933
51 1 1.57112 1.57142 4.71614 -8.94939
52 1 3.14392 9.10513e-12 3.14384 -8.94958
53 1 4.71609 1.57083 4.71574 -8.95009
54 1 6.28934 -5.80055e-13 3.14396 -8.94942
55 1 7.86195 1.57109 4.71603 -8.94946
56 1 9.43466 -3.1967e-12 3.14406 -8.94949
57 1 11.0073 1.57133 4.71625 -8.94939
58 1 12.5798 4.3183e-12 3.14425 -8.94939
59 1 14.1523 1.57134 4.71665 -8.95049
60 1 15.7247 2.69988e-12 3.1444 -8.95001
61 1 17.2973 1.57161 4.71668 -8.9496
62 1 18.8693 -1.19244e-13 3.14446 -8.94948
63 1 20.4413 1.57189 4.71676 -8.9495
64 1 22.013 3.14376 3.14367 -8.94899
65 1 1.56913 4.71447 4.71431 -8.948
66 1 3.14295 3.1429 3.14275 -8.94828
67 1 4.7122 4.71169 4.71149 -8.94457
68 1 6.28889 3.14307 3.14322 -8.94936
69 1 7.86088 4.71313 4.71392 -8.94809
70 1 9.43455 3.14317 3.14356 -8.94945
71 1 11.0074 4.71401 4.71463 -8.94724
72 1 12.5799 3.14329 3.1438 -8.94907
73 1 14.1545 4.71274 4.71389 -8.94975
74 1 15.7255 3.14288 3.14356 -8.94957
75 1 17.2988 4.71479 4.71536 -8.94877
76 1 18.8696 3.14375 3.14399 -8.94931
77 1 20.4412 4.71593 4.71609 -8.94973
78 1 22.0133 6.28894 3.14353 -8.94963
79 1 1.57013 7.8612 4.71479 -8.94927
80 1 3.14275 6.28826 3.14189 -8.9506
81 1 4.71333 7.8601 4.71117 -8.95326
82 1 6.28722 6.28685 3.13984 -8.95098
83 1 7.85849 7.85695 4.70748 -8.95787
84 1 9.43415 6.28674 3.14159 -8.94837
85 1 11.0065 7.8588 4.70999 -8.95318
86 1 12.5804 6.28717 3.14146 -8.95028
87 1 14.1615 7.85313 4.70548 -8.9411
88 1 15.7281 6.2858 3.14058 -8.94697
89 1 17.3008 7.85979 4.71413 -8.95001
90 1 18.8706 6.28837 3.14335 -8.94953
91 1 20.442 7.8613 4.71582 -8.94972
92 1 -0.000422209 9.43425 3.14338 -8.94938
93 1 3.14311 9.43417 3.14211 -8.94874
94 1 6.28925 9.43524 3.14223 -8.95175
95 1 9.43409 9.43367 3.1439 -8.9454
96 1 12.5825 9.4329 3.1366 -8.95598
97 1 15.7282 9.4331 3.14055 -8.94833
98 1 18.8708 9.43401 3.14318 -8.94931
99 1 22.0132 2.38006e-13 6.28922 -8.94946
100 1 1.57103 1.57142 7.86157 -8.94936
101 1 3.14349 -1.36719e-12 6.28866 -8.94984
102 1 4.71555 1.57013 7.86113 -8.9504
103 1 6.28921 1.80284e-10 6.28877 -8.95068
104 1 7.86202 1.57043 7.86169 -8.95145
105 1 9.43479 9.84398e-11 6.28885 -8.95021
106 1 11.0068 1.57166 7.86192 -8.94955
107 1 12.5795 7.38905e-11 6.28935 -8.95012
108 1 14.1524 1.57121 7.86164 -8.95037
109 1 15.7248 -2.90016e-12 6.28922 -8.94996
110 1 17.2973 1.57166 7.86172 -8.94943
111 1 18.8693 5.63313e-14 6.28936 -8.94948
112 1 20.4413 1.57187 7.86183 -8.94944
113 1 -0.00118549 3.14355 6.28886 -8.94942
114 1 1.56894 4.71445 7.86076 -8.94916
115 1 3.14194 3.14144 6.28741 -8.94927
116 1 4.71048 4.70851 7.85789 -8.94872
117 1 6.28779 3.1401 6.28735 -8.9517
118 1 7.85943 4.7078 7.86034 -8.95958
119 1 9.43458 3.14153 6.28795 -8.94987
120 1 11.0051 4.71466 7.8618 -8.95344
121 1 12.5795 3.14247 6.28891 -8.95171
122 1 14.1543 4.71229 7.85972 -8.94983
123 1 15.7256 3.14252 6.28855 -8.94963
124 1 17.2984 4.71509 7.86119 -8.94915
125 1 18.8695 3.14372 6.28911 -8.94947
126 1 20.4411 4.71588 7.86159 -8.94951
127 1 22.0114 6.28787 6.28791 -8.95057
128 1 1.5654 7.85952 7.85933 -8.95357
129 1 3.13548 6.28249 6.28232 -8.94501
130 1 4.6927 7.84406 7.84468 -8.93677
131 1 6.27545 6.27444 6.27467 -8.92935
132 1 7.82019 7.82093 7.82311 -8.84562
133 1 9.43319 6.28074 6.28378 -8.94391
134 1 11.0177 7.84847 7.83878 -8.90011
135 1 12.5848 6.28052 6.28158 -8.94966
136 1 14.1666 7.84942 7.84946 -8.93493
137 1 15.7301 6.28413 6.28484 -8.94604
138 1 17.3015 7.85959 7.86011 -8.95124
139 1 18.8706 6.28797 6.28837 -8.95014
140 1 20.4411 7.86111 7.86131 -8.95094
141 1 22.0123 9.43407 6.28784 -8.94932
142 1 3.13962 9.43375 6.28473 -8.94739
143 1 6.28448 9.43512 6.27993 -8.96121
144 1 9.42692 9.4209 6.29395 -8.93003
145 1 12.605 9.416 6.25798 -8.91762
146 1 15.7338 9.4317 6.2832 -8.95279
147 1 18.8717 9.43383 6.28795 -8.95051
148 1 -0.000720001 2.27759e-13 9.4344 -8.94945
149 1 3.14327 3.03522e-12 9.43426 -8.94945
150 1 6.28881 1.33904e-10 9.43439 -8.95111
151 1 9.43473 9.46321e-10 9.43432 -8.948
152 1 12.5796 1.20299e-11 9.43429 -8.95007
153 1 15.7251 -1.44566e-12 9.43413 -8.94954
154 1 18.8694 3.20367e-14 9.43434 -8.94948
155 1 22.0127 3.14357 9.43436 -8.94936
156 1 3.14188 3.14175 9.4341 -8.94904
157 1 6.28676 3.13868 9.43437 -8.95223
158 1 9.43415 3.14422 9.43484 -8.94512
183 1 1.56911 4.71476 11.0074 -8.9491
184 1 4.71048 4.70996 11.0083 -8.94622
11 1 15.7247 1.22509e-13 0.000200252 -8.94949
25 1 15.7251 3.14377 0.000201972 -8.94958
29 1 22.0138 6.28939 -0.000348237 -8.94944
41 1 18.87 6.28904 -0.000304728 -8.9494
176 1 1.57097 1.57148 11.0071 -8.94937
343 1 18.8704 9.43429 18.8701 -8.94936
178 1 7.86195 1.57044 11.0072 -8.95107
179 1 11.0069 1.5716 11.0068 -8.94887
180 1 14.1528 1.57109 11.0065 -8.94947
342 1 15.7266 9.43389 18.8719 -8.94888
182 1 20.4413 1.57186 11.007 -8.94946
47 1 12.58 9.43426 22.0132 -8.95137
46 1 9.43412 9.43454 22.0141 -8.94884
185 1 7.85839 4.70831 11.0097 -8.95861
186 1 11.0067 4.71533 11.0076 -8.95021
187 1 14.1549 4.71299 11.0061 -8.94689
341 1 12.5802 9.43452 18.8736 -8.95239
340 1 9.43394 9.4347 18.8713 -8.95002
190 1 1.56667 7.86024 11.0074 -8.9525
191 1 4.69713 7.85232 11.009 -8.95605
192 1 7.80111 7.824 11.0365 -8.8178
193 1 11.0469 7.85547 11.0189 -8.87007
194 1 14.1659 7.85594 11.006 -8.95412
195 1 17.3015 7.85999 11.0068 -8.95049
196 1 20.4415 7.86121 11.0072 -8.95058
197 1 -0.000694372 -1.88993e-13 12.5796 -8.94944
198 1 1.57106 1.57155 14.1525 -8.94931
199 1 3.14324 3.87292e-12 12.5799 -8.94936
200 1 4.7154 1.57028 14.1533 -8.95016
201 1 6.2888 1.7938e-10 12.5799 -8.95122
202 1 7.86186 1.57026 14.1529 -8.95071
203 1 9.43474 4.75495e-11 12.5797 -8.94914
204 1 11.0073 1.57012 14.1529 -8.95099
205 1 12.5799 7.68335e-11 12.5792 -8.951
206 1 14.1531 1.57028 14.1524 -8.95099
207 1 15.7252 -3.29936e-12 12.5792 -8.94954
208 1 17.2976 1.57153 14.152 -8.94958
209 1 18.8694 -6.56854e-14 12.5794 -8.94947
210 1 20.4414 1.57189 14.1521 -8.94944
211 1 22.0128 3.14365 12.5798 -8.94934
212 1 1.56946 4.71511 14.1536 -8.94919
213 1 3.14193 3.14197 12.5806 -8.94892
214 1 4.71048 4.7097 14.1578 -8.94415
215 1 6.28678 3.13869 12.5813 -8.95249
216 1 7.86043 4.70853 14.1566 -8.95574
217 1 9.43479 3.14187 12.5807 -8.94803
218 1 11.0084 4.70757 14.1572 -8.95464
219 1 12.5807 3.14004 12.5797 -8.95376
220 1 14.1575 4.70833 14.1566 -8.95015
221 1 15.726 3.14243 12.5794 -8.94941
222 1 17.2995 4.71453 14.153 -8.94979
223 1 18.8697 3.14368 12.5795 -8.94935
224 1 20.4416 4.71604 14.1525 -8.94972
225 1 -0.00188224 6.28829 12.5802 -8.95016
226 1 1.56986 7.8616 14.153 -8.95206
227 1 3.1372 6.28484 12.5825 -8.94878
228 1 4.70649 7.85501 14.1598 -8.94952
229 1 6.27236 6.26937 12.5933 -8.93175
230 1 7.839 7.83258 14.185 -8.90386
231 1 9.43574 6.28458 12.5862 -8.98479
232 1 11.0294 7.82986 14.1891 -8.88838
233 1 12.5901 6.27052 12.5879 -8.95682
234 1 14.1762 7.8403 14.1746 -8.92302
235 1 15.7304 6.28446 12.5809 -8.94945
236 1 17.3043 7.85863 14.1556 -8.95271
237 1 18.871 6.28805 12.5799 -8.94979
238 1 20.4429 7.86145 14.1528 -8.95086
239 1 22.0134 9.43453 12.5799 -8.95
240 1 3.14078 9.43468 12.5795 -8.95266
241 1 6.27391 9.41229 12.5961 -8.8888
242 1 9.43849 9.27025 12.6355 -8.23807
243 1 12.6321 9.37302 12.6441 -8.77097
244 1 15.7392 9.42987 12.5861 -8.95692
245 1 18.8729 9.43397 12.5804 -8.95172
246 1 22.0133 3.91577e-14 15.7247 -8.94944
247 1 1.57127 1.5717 17.2977 -8.9491
248 1 3.1434 8.54066e-12 15.7254 -8.94954
249 1 4.71595 1.57114 17.2982 -8.9499
250 1 6.28893 -2.24744e-12 15.7254 -8.95021
251 1 7.86148 1.57096 17.2984 -8.94929
252 1 9.4345 3.4952e-12 15.7257 -8.95011
253 1 11.0074 1.57086 17.2985 -8.94934
254 1 12.5801 1.25842e-12 15.7254 -8.95033
255 1 14.1531 1.57084 17.2982 -8.94978
256 1 15.7255 2.59699e-12 15.725 -8.95016
257 1 17.2979 1.57135 17.2977 -8.94947
258 1 18.8695 -5.31099e-14 15.7246 -8.9496
259 1 20.4416 1.57192 17.2972 -8.9495
260 1 -0.000861716 3.14383 15.7251 -8.94941
261 1 1.57063 4.71594 17.2985 -8.9495
262 1 3.14207 3.14221 15.7267 -8.94814
263 1 4.7131 4.7133 17.3016 -8.94654
264 1 6.28774 3.14084 15.7271 -8.95089
265 1 7.86038 4.71312 17.3013 -8.94761
266 1 9.43432 3.14035 15.7276 -8.94927
267 1 11.008 4.71267 17.3016 -8.94787
268 1 12.5812 3.14009 15.7271 -8.95048
269 1 14.1561 4.71206 17.3021 -8.94617
270 1 15.727 3.14126 15.7265 -8.94955
271 1 17.3002 4.71419 17.2996 -8.94747
272 1 18.8701 3.14356 15.725 -8.94967
273 1 20.4422 4.71625 17.2978 -8.94984
274 1 22.0133 6.28893 15.7254 -8.95067
275 1 1.57191 7.86226 17.2975 -8.94949
276 1 3.14001 6.28672 15.7282 -8.94952
277 1 4.71606 7.86247 17.2989 -8.95232
278 1 6.27956 6.27903 15.7371 -8.93912
279 1 7.86004 7.85874 17.3054 -8.95717
280 1 9.43373 6.27949 15.7354 -8.94138
281 1 11.008 7.85755 17.3077 -8.95626
282 1 12.5893 6.2767 15.7385 -8.9366
283 1 14.1559 7.85902 17.3045 -8.95298
284 1 15.7337 6.28143 15.7326 -8.9423
285 1 17.2996 7.86094 17.2993 -8.94919
286 1 18.8722 6.28781 15.7262 -8.95038
287 1 20.4424 7.8618 17.2977 -8.94935
288 1 22.0141 9.43451 15.7252 -8.94917
289 1 3.14422 9.43516 15.7251 -8.94803
290 1 6.29119 9.43774 15.7252 -8.95715
291 1 9.43471 9.42939 15.7297 -8.9685
292 1 12.584 9.43297 15.7403 -8.96344
293 1 15.7301 9.43307 15.7305 -8.94723
294 1 18.8717 9.43408 15.7261 -8.94904
295 1 -0.00039569 1.56535e-13 18.8696 -8.94923
296 1 1.57172 1.57194 20.442 -8.94912
297 1 3.14391 7.6755e-14 18.87 -8.94955
298 1 4.71657 1.57185 20.4421 -8.9494
299 1 6.28903 2.84538e-13 18.8702 -8.94931
300 1 7.86176 1.57175 20.4423 -8.94941
301 1 9.43443 2.07818e-13 18.8703 -8.94942
302 1 11.0071 1.57172 20.4423 -8.94941
303 1 12.5799 1.2182e-13 18.8702 -8.94934
304 1 14.1524 1.57174 20.4423 -8.94937
305 1 15.7252 8.05004e-14 18.8701 -8.94949
306 1 17.2975 1.57181 20.4421 -8.94923
307 1 18.8697 4.75471e-14 18.8697 -8.94933
308 1 20.4417 1.57202 20.4418 -8.94906
309 1 22.0135 3.14414 18.8699 -8.9494
310 1 1.57183 4.71688 20.4418 -8.94995
311 1 3.14318 3.14341 18.8708 -8.94865
312 1 4.71591 4.7161 20.4428 -8.95002
313 1 6.28856 3.14318 18.871 -8.94911
314 1 7.86134 4.71569 20.4431 -8.94926
315 1 9.4343 3.14293 18.8712 -8.94937
316 1 11.0072 4.71555 20.4433 -8.9493
317 1 12.5803 3.14287 18.8711 -8.9491
318 1 14.153 4.71558 20.4432 -8.9497
319 1 15.726 3.14291 18.871 -8.94863
320 1 17.2981 4.71607 20.4423 -8.94963
321 1 18.8703 3.14371 18.8701 -8.94888
322 1 20.4419 4.71684 20.4417 -8.9496
323 1 22.0139 6.2895 18.8696 -8.94965
324 1 1.57201 7.86203 20.4416 -8.94939
325 1 3.14376 6.28942 18.8703 -8.95061
326 1 4.71664 7.86231 20.4419 -8.94994
327 1 6.28757 6.28771 18.8732 -8.95125
328 1 7.86149 7.86166 20.4434 -8.95164
329 1 9.43393 6.28674 18.8739 -8.94908
330 1 11.0068 7.86126 20.444 -8.95165
331 1 12.5811 6.28684 18.8742 -8.95058
332 1 14.153 7.86125 20.4431 -8.9508
333 1 15.7267 6.28769 18.8721 -8.95043
334 1 17.2981 7.86146 20.4421 -8.94926
335 1 18.8704 6.28899 18.8701 -8.94953
336 1 20.442 7.86186 20.4417 -8.94945
337 1 7.74578e-05 9.43447 18.8696 -8.94951
338 1 3.14408 9.43463 18.8697 -8.94909
339 1 6.28934 9.43538 18.8697 -8.94965
7 1 9.4345 2.31612e-13 22.0141 -8.94948
44 1 3.14407 9.43446 22.0132 -8.94953
17 1 3.14388 3.14398 22.0137 -8.94948
19 1 6.28908 3.14386 22.014 -8.94933
21 1 9.43442 3.14375 22.0141 -8.94942
43 1 22.0138 9.43441 22.0135 -8.94949
27 1 18.8698 3.14409 22.0138 -8.94925
39 1 15.7257 6.28834 22.0134 -8.95004
31 1 3.14415 6.28944 22.0134 -8.95003
33 1 6.2888 6.28888 22.0137 -8.95087
3 1 3.14429 2.79381e-14 22.0139 -8.94951
13 1 18.8695 4.36769e-14 22.0139 -8.94911
15 1 22.0136 3.14438 22.0137 -8.94956
23 1 12.5798 3.14375 22.0142 -8.9493
49 1 18.8701 9.43428 22.0136 -8.94943
344 1 1.57168 11.007 1.57119 -8.94948
345 1 4.71623 11.007 1.57053 -8.94989
346 1 7.86225 11.007 1.57251 -8.94724
347 1 11.0068 11.007 1.57043 -8.9506
348 1 14.1544 11.007 1.56884 -8.94969
349 1 17.2986 11.007 1.57084 -8.94938
350 1 20.442 11.007 1.57153 -8.94944
688 3 10.1345 11.0066 9.55555 2.21969
352 1 1.5717 14.1521 1.57125 -8.94929
511 1 18.8696 18.8702 9.43428 -8.94939
354 1 4.71646 14.1519 1.57068 -8.95038
355 1 6.28924 12.5791 -0.00040458 -8.94962
356 1 7.86163 14.1525 1.57048 -8.95193
510 1 15.7257 18.8711 9.43393 -8.94919
358 1 11.0067 14.1528 1.57064 -8.9506
509 1 12.5798 18.8714 9.43424 -8.95141
360 1 14.1539 14.1536 1.5691 -8.95101
361 1 15.726 12.5799 -0.000677801 -8.94944
362 1 17.2985 14.1528 1.57089 -8.94921
538 1 17.2975 20.4423 11.0068 -8.94945
364 1 20.442 14.1522 1.57158 -8.94939
508 1 9.43415 18.8697 9.43484 -8.94512
366 1 1.57154 17.2974 1.57127 -8.94983
507 1 6.28676 18.8752 9.43437 -8.95223
368 1 4.71584 17.2981 1.57062 -8.94986
506 1 3.14188 18.8722 9.4341 -8.94904
370 1 7.86157 17.2982 1.57126 -8.94919
371 1 9.43417 15.7255 0.000322785 -8.94999
372 1 11.0072 17.2982 1.57151 -8.94921
373 1 12.5798 15.7254 0.000299268 -8.95025
374 1 14.1527 17.2983 1.5714 -8.94997
505 1 22.0127 18.8703 9.43436 -8.94936
376 1 17.2982 17.2983 1.57114 -8.94875
504 1 18.8704 15.7259 9.43419 -8.94952
378 1 20.4418 17.2973 1.5717 -8.9495
534 1 4.7152 20.4437 11.0073 -8.94949
380 1 1.57161 20.442 1.57177 -8.94908
503 1 15.7287 15.7284 9.43294 -8.94697
382 1 4.71667 20.4421 1.57183 -8.9495
502 1 12.5836 15.7331 9.43002 -8.95253
384 1 7.86193 20.4421 1.57196 -8.94943
501 1 9.42788 15.7181 9.43887 -9.00733
386 1 11.0072 20.4421 1.57205 -8.94945
532 1 20.4412 17.298 11.0071 -8.94951
388 1 14.1522 20.4421 1.57217 -8.94943
500 1 6.27361 15.7447 9.43028 -8.95122
390 1 17.2973 20.4422 1.57204 -8.94945
499 1 3.13628 15.7301 9.43307 -8.94798
392 1 20.4414 20.4419 1.57201 -8.94919
393 1 1.57028 11.007 4.71455 -8.94923
394 1 4.71373 11.007 4.71146 -8.94583
395 1 7.86547 11.007 4.72091 -8.94423
396 1 11.0086 11.007 4.70831 -8.98043
397 1 14.1608 11.007 4.70662 -8.94323
398 1 17.3011 11.007 4.71387 -8.94911
399 1 20.4421 11.007 4.71565 -8.94968
400 1 -0.000422209 12.5797 3.14338 -8.94938
401 1 1.57013 14.1527 4.71479 -8.94927
402 1 3.14311 12.5797 3.14211 -8.94874
403 1 4.71333 14.1538 4.71117 -8.95326
404 1 6.28925 12.5787 3.14223 -8.95175
405 1 7.85849 14.1569 4.70748 -8.95786
406 1 9.43409 12.5802 3.1439 -8.9454
407 1 11.0065 14.1551 4.70999 -8.95318
408 1 12.5825 12.581 3.1366 -8.95598
409 1 14.1615 14.1608 4.70548 -8.9411
410 1 15.7282 12.5808 3.14055 -8.94833
411 1 17.3008 14.1541 4.71413 -8.95001
412 1 18.8708 12.5799 3.14318 -8.94931
413 1 20.442 14.1526 4.71582 -8.94972
414 1 22.0133 15.725 3.14353 -8.94963
415 1 1.56913 17.2994 4.71431 -8.948
416 1 3.14275 15.7256 3.14189 -8.9506
417 1 4.7122 17.3022 4.71149 -8.94457
418 1 6.28722 15.7271 3.13984 -8.95098
419 1 7.86088 17.3008 4.71392 -8.94809
420 1 9.43415 15.7272 3.14159 -8.94837
421 1 11.0074 17.2999 4.71463 -8.94724
422 1 12.5804 15.7267 3.14146 -8.95028
423 1 14.1545 17.3012 4.71389 -8.94975
424 1 15.7281 15.7281 3.14058 -8.94697
425 1 17.2988 17.2991 4.71536 -8.94877
426 1 18.8706 15.7255 3.14335 -8.94953
427 1 20.4412 17.298 4.71609 -8.94973
428 1 22.013 18.8701 3.14367 -8.94899
429 1 1.57112 20.4425 4.71614 -8.94939
430 1 3.14295 18.871 3.14275 -8.94828
431 1 4.71609 20.4431 4.71574 -8.95009
432 1 6.28889 18.8708 3.14322 -8.94936
433 1 7.86195 20.4428 4.71603 -8.94946
434 1 9.43455 18.8707 3.14356 -8.94945
435 1 11.0073 20.4426 4.71625 -8.94939
436 1 12.5799 18.8706 3.1438 -8.94907
437 1 14.1523 20.4426 4.71665 -8.95049
438 1 15.7255 18.871 3.14356 -8.94957
439 1 17.2973 20.4423 4.71668 -8.9496
440 1 18.8696 18.8702 3.14399 -8.94931
441 1 20.4413 20.442 4.71676 -8.9495
442 1 1.56781 11.007 7.85884 -8.94728
443 1 4.70942 11.007 7.85253 -8.93543
444 1 7.87351 11.0069 7.8786 -8.92307
445 1 11.0683 11.007 7.74167 -8.32234
446 1 14.168 11.007 7.85008 -8.95902
447 1 17.3023 11.007 7.85981 -8.95072
448 1 20.4417 11.007 7.86103 -8.95001
449 1 22.0123 12.5798 6.28784 -8.94932
450 1 1.5654 14.1544 7.85933 -8.95357
451 1 3.13962 12.5801 6.28473 -8.94739
452 1 4.6927 14.1698 7.84468 -8.93677
453 1 6.28448 12.5788 6.27993 -8.96121
454 1 7.82019 14.193 7.82311 -8.84543
455 1 9.42692 12.593 6.29395 -8.93002
456 1 11.0177 14.1654 7.83878 -8.90007
457 1 12.605 12.5979 6.25798 -8.91762
458 1 14.1666 14.1645 7.84946 -8.93493
459 1 15.7338 12.5822 6.2832 -8.95279
460 1 17.3015 14.1543 7.86011 -8.95124
461 1 18.8717 12.5801 6.28795 -8.95051
462 1 20.4411 14.1528 7.86131 -8.95094
463 1 22.0114 15.726 6.28791 -8.95057
464 1 1.56894 17.2995 7.86076 -8.94916
465 1 3.13548 15.7314 6.28232 -8.94501
466 1 4.71048 17.3054 7.85789 -8.94872
467 1 6.27545 15.7395 6.27467 -8.92935
468 1 7.85943 17.3061 7.86034 -8.95958
469 1 9.43319 15.7332 6.28378 -8.94392
470 1 11.0051 17.2992 7.8618 -8.95344
471 1 12.5848 15.7334 6.28158 -8.94966
472 1 14.1543 17.3016 7.85972 -8.94983
473 1 15.7301 15.7298 6.28484 -8.94604
474 1 17.2984 17.2988 7.86119 -8.94915
475 1 18.8706 15.7259 6.28837 -8.95014
476 1 20.4411 17.298 7.86159 -8.94951
477 1 -0.00118549 18.8704 6.28886 -8.94942
478 1 1.57103 20.4425 7.86157 -8.94936
479 1 3.14194 18.8725 6.28741 -8.94927
480 1 4.71555 20.4438 7.86113 -8.9504
481 1 6.28779 18.8738 6.28735 -8.9517
482 1 7.86202 20.4435 7.86169 -8.95145
483 1 9.43458 18.8724 6.28795 -8.94987
484 1 11.0068 20.4422 7.86192 -8.94955
485 1 12.5795 18.8714 6.28891 -8.95171
486 1 14.1524 20.4427 7.86164 -8.95037
487 1 15.7256 18.8714 6.28855 -8.94963
488 1 17.2973 20.4422 7.86172 -8.94943
489 1 18.8695 18.8702 6.28911 -8.94947
490 1 20.4413 20.442 7.86183 -8.94944
491 1 22.0113 12.5796 9.434 -8.95156
492 1 3.13253 12.5815 9.43038 -8.95997
493 1 6.24132 12.6297 9.39092 -8.86564
494 1 9.34663 12.8307 9.44204 -7.95466
495 1 12.6032 12.6124 9.39044 -8.80811
496 1 15.733 12.5822 9.43074 -8.94957
497 1 18.8715 12.58 9.434 -8.95008
498 1 -0.00250021 15.7259 9.43424 -8.94987
513 1 4.71783 11.007 10.9989 -9.0088
514 1 7.59391 11.007 10.919 -7.99261
531 1 17.2987 17.2988 11.0067 -8.94892
526 1 1.56911 17.2991 11.0074 -8.9491
527 1 4.71048 17.3039 11.0083 -8.94622
389 1 15.7251 18.8701 0.000201972 -8.94958
365 1 22.0138 15.7245 -0.000348237 -8.94944
377 1 18.87 15.7249 -0.000304728 -8.9494
512 1 1.57031 11.007 11.0068 -8.94583
687 3 9.47969 11.007 11.5843 2.15968
686 1 20.4417 20.4419 20.4418 -8.94906
515 1 11.4177 11.0069 11.0891 -7.17206
516 1 14.1771 11.007 11.0124 -9.02119
517 1 17.3033 11.007 11.0071 -8.95385
518 1 20.4424 11.007 11.0071 -8.94931
519 1 1.56667 14.1537 11.0074 -8.9525
520 1 4.69713 14.1616 11.009 -8.95605
521 1 7.80112 14.1899 11.0365 -8.81763
522 1 11.0469 14.1584 11.0189 -8.87005
523 1 14.1659 14.158 11.006 -8.95412
524 1 17.3015 14.1539 11.0068 -8.95049
525 1 20.4415 14.1527 11.0072 -8.95058
391 1 18.8698 18.8698 22.0138 -8.94925
385 1 9.43442 18.8702 22.0141 -8.94942
528 1 7.85839 17.3056 11.0097 -8.95861
529 1 11.0067 17.2986 11.0076 -8.95021
530 1 14.1549 17.3009 11.0061 -8.94689
685 1 18.8703 18.8702 18.8701 -8.94888
684 1 17.2975 20.4421 20.4421 -8.94923
533 1 1.57097 20.4424 11.0071 -8.94937
683 1 15.726 18.871 18.871 -8.94863
535 1 7.86195 20.4435 11.0072 -8.95107
536 1 11.0069 20.4423 11.0068 -8.94887
537 1 14.1528 20.4428 11.0065 -8.94947
682 1 14.1524 20.4422 20.4423 -8.94937
539 1 20.4413 20.442 11.007 -8.94946
540 1 1.57177 11.007 14.1529 -8.9481
541 1 4.71772 11.007 14.1507 -8.94016
542 1 7.87502 11.007 14.1147 -8.93064
543 1 11.0083 11.007 14.1424 -8.97682
544 1 14.1632 11.007 14.1639 -8.93647
545 1 17.3024 11.007 14.1555 -8.94761
546 1 20.443 11.007 14.153 -8.94954
547 1 22.0134 12.5794 12.5799 -8.95
548 1 1.56986 14.1523 14.153 -8.95206
549 1 3.14078 12.5792 12.5795 -8.95266
550 1 4.70649 14.1589 14.1598 -8.94952
551 1 6.27391 12.6016 12.5961 -8.88881
552 1 7.839 14.1813 14.185 -8.90386
553 1 9.43849 12.7436 12.6355 -8.23805
554 1 11.0294 14.184 14.1891 -8.88838
555 1 12.6321 12.6409 12.6441 -8.77097
556 1 14.1762 14.1736 14.1746 -8.92302
557 1 15.7392 12.584 12.5861 -8.95692
558 1 17.3043 14.1553 14.1556 -8.95271
559 1 18.8729 12.5799 12.5804 -8.95172
560 1 20.4429 14.1524 14.1528 -8.95086
561 1 -0.00188224 15.7256 12.5802 -8.95016
562 1 1.56946 17.2988 14.1536 -8.94919
563 1 3.1372 15.7291 12.5825 -8.94878
564 1 4.71048 17.3042 14.1578 -8.94415
565 1 6.27236 15.7445 12.5933 -8.93175
566 1 7.86043 17.3054 14.1566 -8.95574
567 1 9.43574 15.7293 12.5862 -8.98479
568 1 11.0084 17.3063 14.1572 -8.95464
569 1 12.5901 15.7434 12.5879 -8.95682
570 1 14.1575 17.3056 14.1566 -8.95015
571 1 15.7304 15.7294 12.5809 -8.94945
572 1 17.2995 17.2994 14.153 -8.94979
573 1 18.871 15.7258 12.5799 -8.94979
574 1 20.4416 17.2979 14.1525 -8.94972
575 1 22.0128 18.8702 12.5798 -8.94934
576 1 1.57106 20.4423 14.1525 -8.94931
577 1 3.14193 18.8719 12.5806 -8.94892
578 1 4.7154 20.4436 14.1533 -8.95016
579 1 6.28678 18.8752 12.5813 -8.95249
580 1 7.86186 20.4436 14.1529 -8.95071
581 1 9.43479 18.872 12.5807 -8.94803
582 1 11.0073 20.4438 14.1529 -8.95099
583 1 12.5807 18.8739 12.5797 -8.95376
584 1 14.1531 20.4436 14.1524 -8.95099
585 1 15.726 18.8715 12.5794 -8.94941
586 1 17.2976 20.4424 14.152 -8.94958
587 1 18.8697 18.8702 12.5795 -8.94935
588 1 20.4414 20.442 14.1521 -8.94944
589 1 1.57201 11.007 17.2975 -8.94966
590 1 4.71616 11.007 17.2977 -8.94765
591 1 7.863 11.007 17.2921 -8.93526
592 1 11.0065 11.007 17.2984 -8.94193
593 1 14.1563 11.007 17.3037 -8.94658
594 1 17.2996 11.007 17.2994 -8.94919
595 1 20.4425 11.007 17.2977 -8.9495
596 1 22.0141 12.5794 15.7252 -8.94917
597 1 1.57191 14.1516 17.2975 -8.94949
598 1 3.14422 12.5787 15.7251 -8.94803
599 1 4.71606 14.1514 17.2989 -8.95232
600 1 6.29119 12.5762 15.7252 -8.95715
601 1 7.86004 14.1552 17.3054 -8.95717
602 1 9.43471 12.5845 15.7297 -8.9685
603 1 11.008 14.1563 17.3077 -8.95626
604 1 12.584 12.5809 15.7403 -8.96344
605 1 14.1559 14.1549 17.3045 -8.95298
606 1 15.7301 12.5808 15.7305 -8.94723
607 1 17.2996 14.153 17.2993 -8.94919
608 1 18.8717 12.5798 15.7261 -8.94904
609 1 20.4424 14.1521 17.2977 -8.94935
610 1 22.0133 15.725 15.7254 -8.95067
611 1 1.57063 17.298 17.2985 -8.9495
612 1 3.14001 15.7272 15.7282 -8.94952
613 1 4.7131 17.3006 17.3016 -8.94654
614 1 6.27956 15.7349 15.7371 -8.93912
615 1 7.86038 17.3008 17.3013 -8.94761
616 1 9.43373 15.7344 15.7354 -8.94138
617 1 11.008 17.3012 17.3016 -8.94787
618 1 12.5893 15.7372 15.7385 -8.9366
619 1 14.1561 17.3018 17.3021 -8.94617
620 1 15.7337 15.7325 15.7326 -8.9423
621 1 17.3002 17.2997 17.2996 -8.94747
622 1 18.8722 15.7261 15.7262 -8.95038
623 1 20.4422 17.2977 17.2978 -8.94984
624 1 -0.000861716 18.8701 15.7251 -8.94941
625 1 1.57127 20.4422 17.2977 -8.9491
626 1 3.14207 18.8717 15.7267 -8.94814
627 1 4.71595 20.4428 17.2982 -8.9499
628 1 6.28774 18.8731 15.7271 -8.95089
629 1 7.86148 20.4429 17.2984 -8.94929
630 1 9.43432 18.8736 15.7276 -8.94927
631 1 11.0074 20.443 17.2985 -8.94934
632 1 12.5812 18.8738 15.7271 -8.95048
633 1 14.1531 20.4431 17.2982 -8.94978
634 1 15.727 18.8726 15.7265 -8.94955
635 1 17.2979 20.4426 17.2977 -8.94947
636 1 18.8701 18.8703 15.725 -8.94967
637 1 20.4416 20.442 17.2972 -8.9495
638 1 1.57197 11.007 20.4416 -8.94953
639 1 4.71642 11.007 20.4416 -8.9497
640 1 7.86157 11.007 20.4414 -8.94679
641 1 11.0067 11.007 20.4425 -8.94819
642 1 14.1534 11.007 20.443 -8.95013
643 1 17.2982 11.007 20.4421 -8.94942
644 1 20.442 11.007 20.4417 -8.94949
645 1 7.74578e-05 12.5794 18.8696 -8.94951
646 1 1.57201 14.1519 20.4416 -8.94939
647 1 3.14408 12.5793 18.8697 -8.94909
648 1 4.71664 14.1516 20.4419 -8.94994
649 1 6.28934 12.5785 18.8697 -8.94965
650 1 7.86149 14.1522 20.4434 -8.95164
651 1 9.43394 12.5792 18.8713 -8.95002
652 1 11.0068 14.1526 20.444 -8.95165
653 1 12.5802 12.5794 18.8736 -8.95239
654 1 14.153 14.1526 20.4431 -8.9508
655 1 15.7266 12.58 18.8719 -8.94888
656 1 17.2981 14.1524 20.4421 -8.94926
657 1 18.8704 12.5796 18.8701 -8.94936
658 1 20.442 14.152 20.4417 -8.94945
659 1 22.0139 15.7244 18.8696 -8.94965
660 1 1.57183 17.297 20.4418 -8.94995
661 1 3.14376 15.7245 18.8703 -8.95061
662 1 4.71591 17.2978 20.4428 -8.95002
663 1 6.28757 15.7262 18.8732 -8.95125
664 1 7.86134 17.2982 20.4431 -8.94926
665 1 9.43393 15.7272 18.8739 -8.94908
666 1 11.0072 17.2984 20.4433 -8.9493
667 1 12.5811 15.7271 18.8742 -8.95058
668 1 14.153 17.2983 20.4432 -8.9497
669 1 15.7267 15.7262 18.8721 -8.95043
670 1 17.2981 17.2978 20.4423 -8.94963
671 1 18.8704 15.7249 18.8701 -8.94953
672 1 20.4419 17.2971 20.4417 -8.9496
673 1 22.0135 18.8698 18.8699 -8.9494
674 1 1.57172 20.442 20.442 -8.94912
675 1 3.14318 18.8705 18.8708 -8.94865
676 1 4.71657 20.442 20.4421 -8.9494
677 1 6.28856 18.8707 18.871 -8.94911
678 1 7.86176 20.4422 20.4423 -8.94941
679 1 9.4343 18.871 18.8712 -8.94937
680 1 11.0071 20.4422 20.4423 -8.94941
681 1 12.5803 18.871 18.8711 -8.9491
351 1 22.0138 12.5795 22.0135 -8.94949
353 1 3.14407 12.5794 22.0132 -8.94953
357 1 9.43412 12.5794 22.0141 -8.94884
359 1 12.58 12.5796 22.0132 -8.95137
383 1 6.28908 18.87 22.014 -8.94933
367 1 3.14415 15.7245 22.0134 -8.95003
369 1 6.2888 15.725 22.0137 -8.95087
375 1 15.7257 15.7256 22.0134 -8.95004
381 1 3.14388 18.8699 22.0137 -8.94948
363 1 18.8701 12.5796 22.0136 -8.94943
379 1 22.0136 18.8695 22.0137 -8.94956
387 1 12.5798 18.8702 22.0142 -8.9493
