ITEM: TIMESTEP
87
ITEM: NUMBER OF ATOMS
688
ITEM: BOX BOUNDS pp pp pp
0.0000000000000000e+00 2.2013900999999997e+01
0.0000000000000000e+00 2.2013900999999997e+01
0.0000000000000000e+00 2.2013900999999997e+01
ITEM: ATOMS id type x y z c_pot
1 1 22.0137 8.5065e-16 -8.45776e-06 -8.94909
2 1 1.57182 1.57199 1.57195 -8.94917
189 1 20.4413 4.71618 11.0071 -8.94951
4 1 4.71686 1.57194 1.57197 -8.94955
5 1 6.28946 9.4588e-16 5.63184e-05 -8.9495
6 1 7.862 1.57191 1.57202 -8.94947
175 1 18.8712 9.43399 9.43419 -8.94996
8 1 11.0071 1.5719 1.57206 -8.94949
9 1 12.5796 1.92042e-16 0.000102989 -8.9495
10 1 14.1521 1.57193 1.57218 -8.94945
174 1 15.7319 9.43213 9.43119 -8.94967
12 1 17.2971 1.57188 1.5721 -8.94949
188 1 17.2984 4.71543 11.0067 -8.9489
14 1 20.4415 1.57211 1.57214 -8.94929
181 1 17.2974 1.57178 11.0068 -8.94948
16 1 1.57173 4.71669 1.57153 -8.94981
173 1 12.6011 9.40361 9.39044 -8.80937
18 1 4.71607 4.71599 1.57088 -8.94979
172 1 9.34501 9.18889 9.44579 -7.96649
20 1 7.8617 4.71594 1.57137 -8.94917
171 1 6.24164 9.3856 9.39129 -8.86685
22 1 11.0071 4.71588 1.57156 -8.94924
177 1 4.71557 1.57046 11.0071 -8.94945
24 1 14.1525 4.71587 1.57151 -8.94992
170 1 3.13305 9.43284 9.43091 -8.96021
26 1 17.298 4.71586 1.57128 -8.94865
169 1 22.0114 9.43442 9.43422 -8.95154
28 1 20.4418 4.71676 1.57189 -8.94954
168 1 18.8703 6.28828 9.43432 -8.9495
30 1 1.57181 7.86187 1.57153 -8.94931
167 1 15.7283 6.2859 9.43322 -8.94695
32 1 4.71657 7.86207 1.57092 -8.9503
166 1 12.5831 6.2814 9.42976 -8.95204
34 1 7.86173 7.86158 1.57056 -8.95205
35 1 9.43421 6.28853 0.000244334 -8.94994
36 1 11.0066 7.86115 1.57061 -8.95058
37 1 12.5797 6.28864 0.000210068 -8.95019
38 1 14.1536 7.86045 1.56919 -8.95118
165 1 9.42816 6.29613 9.43865 -9.00609
40 1 17.2982 7.86127 1.57111 -8.94921
164 1 6.2744 6.27 9.4302 -8.95075
42 1 20.4419 7.8618 1.5718 -8.94944
163 1 3.13718 6.28459 9.43339 -8.94812
162 1 -0.00211537 6.28831 9.43438 -8.94984
45 1 6.28921 9.43476 -0.000320884 -8.94962
161 1 18.8695 3.14393 9.43436 -8.94943
160 1 15.7255 3.14302 9.43405 -8.94918
48 1 15.7257 9.43408 -0.000665297 -8.9494
159 1 12.5797 3.14265 9.43422 -8.95136
50 1 22.0135 5.36638e-16 3.14445 -8.94941
51 1 1.57145 1.57163 4.71645 -8.94943
52 1 3.14417 9.03386e-16 3.14409 -8.9496
53 1 4.71635 1.57108 4.71604 -8.95006
54 1 6.28946 1.24142e-15 3.14415 -8.94946
55 1 7.86203 1.57126 4.71622 -8.94947
56 1 9.43464 7.44126e-16 3.14418 -8.94951
57 1 11.0073 1.57143 4.71635 -8.94941
58 1 12.5797 7.72925e-16 3.14432 -8.94941
59 1 14.1522 1.57147 4.71676 -8.95048
60 1 15.7246 -1.50116e-16 3.14448 -8.95
61 1 17.2972 1.57178 4.71684 -8.94959
62 1 18.8693 5.69594e-16 3.14459 -8.94952
63 1 20.4414 1.57205 4.71696 -8.94955
64 1 22.0132 3.14402 3.14397 -8.94906
65 1 1.56963 4.71493 4.71482 -8.94805
66 1 3.14331 3.14325 3.14315 -8.94836
67 1 4.71281 4.71231 4.71212 -8.94478
68 1 6.28911 3.14336 3.14349 -8.94942
69 1 7.86116 4.71353 4.71424 -8.94825
70 1 9.43458 3.14339 3.1437 -8.94946
71 1 11.0074 4.71422 4.71484 -8.94733
72 1 12.5798 3.14349 3.14392 -8.94908
73 1 14.1543 4.71301 4.71426 -8.95003
74 1 15.7253 3.14314 3.14375 -8.94961
75 1 17.2985 4.7152 4.71575 -8.94883
76 1 18.8695 3.14401 3.14422 -8.94937
77 1 20.4413 4.71626 4.71641 -8.94973
78 1 22.0135 6.28915 3.14387 -8.94966
79 1 1.57047 7.86143 4.71526 -8.94929
80 1 3.14309 6.28853 3.14236 -8.95055
81 1 4.71371 7.8604 4.71167 -8.9532
82 1 6.28744 6.2871 3.14016 -8.95082
83 1 7.85852 7.85703 4.70749 -8.95721
84 1 9.4342 6.28701 3.14174 -8.94823
85 1 11.0065 7.85874 4.71002 -8.95263
86 1 12.5802 6.28737 3.14169 -8.95003
87 1 14.1619 7.85265 4.70534 -8.93977
88 1 15.728 6.28594 3.14078 -8.94658
89 1 17.3007 7.85999 4.71455 -8.95012
90 1 18.8704 6.28862 3.14365 -8.94957
91 1 20.442 7.86149 4.71617 -8.94977
92 1 -0.000357705 9.43432 3.14372 -8.94942
93 1 3.14331 9.43425 3.14249 -8.94875
94 1 6.28934 9.43525 3.14229 -8.9516
95 1 9.43439 9.43394 3.14389 -8.94628
96 1 12.5822 9.43308 3.13672 -8.95685
97 1 15.7279 9.4332 3.14088 -8.94815
98 1 18.8706 9.43412 3.14351 -8.94933
99 1 22.0134 1.19618e-15 6.28941 -8.94951
100 1 1.57139 1.57164 7.86174 -8.9494
101 1 3.14381 8.12909e-16 6.28891 -8.94982
102 1 4.71589 1.57041 7.8613 -8.95035
103 1 6.28934 1.44751e-15 6.28892 -8.9506
104 1 7.86213 1.57055 7.86172 -8.95135
105 1 9.43481 1.77988e-15 6.28894 -8.95018
106 1 11.0069 1.57168 7.86191 -8.94946
107 1 12.5795 1.34639e-15 6.28939 -8.95009
108 1 14.1524 1.57132 7.86173 -8.95034
109 1 15.7248 -4.61436e-17 6.28933 -8.94991
110 1 17.2973 1.57181 7.86184 -8.94944
111 1 18.8693 -1.54868e-16 6.28949 -8.94951
112 1 20.4414 1.57201 7.86194 -8.94949
113 1 -0.000882576 3.14387 6.28913 -8.94948
114 1 1.56956 4.71498 7.86109 -8.94923
115 1 3.14246 3.14195 6.28781 -8.94928
116 1 4.71125 4.70927 7.85825 -8.94868
117 1 6.28817 3.14057 6.28765 -8.95162
118 1 7.85992 4.70832 7.86048 -8.95933
119 1 9.43471 3.14173 6.2881 -8.94994
120 1 11.0052 4.71494 7.86191 -8.95295
121 1 12.5795 3.14262 6.28907 -8.95176
122 1 14.1542 4.7126 7.86003 -8.94977
123 1 15.7254 3.14282 6.28879 -8.94958
124 1 17.2982 4.71545 7.86146 -8.94918
125 1 18.8695 3.144 6.28932 -8.9495
126 1 20.4412 4.7162 7.86177 -8.94951
127 1 22.0117 6.28823 6.2883 -8.95053
128 1 1.56601 7.85991 7.85978 -8.95351
129 1 3.13631 6.28318 6.28303 -8.94502
130 1 4.69372 7.84493 7.84538 -8.93666
131 1 6.27641 6.27537 6.2754 -8.93002
132 1 7.82145 7.82231 7.82424 -8.84865
133 1 9.43344 6.28108 6.28411 -8.9446
134 1 11.0165 7.85022 7.83944 -8.90337
135 1 12.5844 6.28071 6.2822 -8.95105
136 1 14.1659 7.84993 7.85049 -8.93475
137 1 15.7296 6.28461 6.28551 -8.94616
138 1 17.3011 7.85993 7.86064 -8.95122
139 1 18.8705 6.28831 6.28873 -8.95011
140 1 20.4412 7.86131 7.86156 -8.95088
141 1 22.0125 9.43417 6.28822 -8.94937
142 1 3.14003 9.43394 6.28526 -8.94742
143 1 6.28469 9.43526 6.28003 -8.96148
144 1 9.42599 9.41993 6.29286 -8.92526
145 1 12.6072 9.41372 6.25665 -8.91201
146 1 15.7339 9.43169 6.28373 -8.95333
147 1 18.8716 9.43395 6.28835 -8.95066
148 1 -0.000500298 1.83857e-15 9.43445 -8.94951
149 1 3.14362 1.56912e-15 9.43431 -8.94944
150 1 6.289 1.54902e-15 9.43437 -8.95101
151 1 9.43478 1.60812e-15 9.43427 -8.94809
152 1 12.5797 1.30963e-15 9.4343 -8.95003
153 1 15.725 9.7741e-16 9.43421 -8.94954
154 1 18.8694 -1.33767e-17 9.43441 -8.94952
155 1 22.013 3.14386 9.43443 -8.9494
156 1 3.14245 3.14225 9.43419 -8.94906
157 1 6.28723 3.13913 9.43434 -8.95222
158 1 9.43433 3.14416 9.43466 -8.9451
183 1 1.56966 4.71522 11.0074 -8.94912
184 1 4.71128 4.71068 11.0081 -8.94619
11 1 15.7245 1.24419e-15 0.000117029 -8.94954
25 1 15.7249 3.14401 0.000144091 -8.94959
29 1 22.0138 6.28949 -0.000237712 -8.94947
41 1 18.8698 6.28924 -0.000249206 -8.94944
176 1 1.57133 1.57168 11.007 -8.94942
343 1 18.8701 9.43436 18.8699 -8.94941
178 1 7.86208 1.57052 11.007 -8.95109
179 1 11.0069 1.57158 11.0067 -8.94894
180 1 14.1527 1.57121 11.0065 -8.94941
342 1 15.7263 9.43403 18.8715 -8.94886
182 1 20.4414 1.572 11.007 -8.94951
47 1 12.5798 9.43434 22.0132 -8.9514
46 1 9.43417 9.43459 22.0141 -8.94898
185 1 7.85899 4.70861 11.0095 -8.95922
186 1 11.0065 4.71538 11.0074 -8.95083
187 1 14.1545 4.71341 11.0059 -8.94693
341 1 12.5801 9.43463 18.8734 -8.95228
340 1 9.43388 9.43473 18.8717 -8.9502
190 1 1.56715 7.86059 11.0075 -8.95246
191 1 4.69809 7.85323 11.0092 -8.9565
192 1 7.80107 7.8236 11.0355 -8.81537
193 1 11.0464 7.85512 11.0174 -8.86848
194 1 14.1646 7.85666 11.0057 -8.95486
195 1 17.3009 7.86033 11.0068 -8.95046
196 1 20.4415 7.86138 11.0072 -8.95049
197 1 -0.000488615 1.28051e-15 12.5795 -8.9495
198 1 1.57139 1.57174 14.1523 -8.94938
199 1 3.1436 8.7155e-16 12.5797 -8.94937
200 1 4.71572 1.57052 14.1529 -8.95009
201 1 6.28897 9.66807e-16 12.5797 -8.95115
202 1 7.86196 1.57039 14.1526 -8.95075
203 1 9.43476 1.23144e-15 12.5795 -8.94906
204 1 11.0073 1.57022 14.1526 -8.95103
205 1 12.5799 1.79228e-15 12.5791 -8.95095
206 1 14.1529 1.57051 14.1523 -8.95087
207 1 15.7251 1.31019e-15 12.5792 -8.94951
208 1 17.2974 1.57172 14.1519 -8.94958
209 1 18.8694 9.49364e-16 12.5794 -8.9495
210 1 20.4414 1.57203 14.152 -8.94948
211 1 22.0131 3.14391 12.5797 -8.94938
212 1 1.56984 4.71547 14.1532 -8.9492
213 1 3.14244 3.14242 12.5803 -8.94897
214 1 4.71104 4.71032 14.1572 -8.94403
215 1 6.28715 3.13908 12.581 -8.9524
216 1 7.86066 4.70876 14.1561 -8.95632
217 1 9.43486 3.14209 12.5804 -8.94747
218 1 11.0083 4.70776 14.1567 -8.95526
219 1 12.5806 3.14025 12.5794 -8.95366
220 1 14.1569 4.70901 14.1559 -8.95007
221 1 15.7257 3.1428 12.5792 -8.94943
222 1 17.2991 4.71503 14.1526 -8.94979
223 1 18.8696 3.14393 12.5794 -8.94937
224 1 20.4415 4.71632 14.1523 -8.9497
225 1 -0.0016798 6.28854 12.5801 -8.95011
226 1 1.57003 7.86181 14.1528 -8.95206
227 1 3.13785 6.28542 12.5823 -8.94885
228 1 4.70692 7.8558 14.1593 -8.95073
229 1 6.27297 6.27005 12.5929 -8.93122
230 1 7.83715 7.83158 14.1869 -8.89862
231 1 9.43576 6.28637 12.5863 -8.9873
232 1 11.0308 7.82877 14.1907 -8.88284
233 1 12.5895 6.27103 12.5871 -8.95665
234 1 14.1753 7.84119 14.1735 -8.92431
235 1 15.7297 6.28509 12.5804 -8.94954
236 1 17.3036 7.85913 14.155 -8.95287
237 1 18.8707 6.28836 12.5797 -8.94975
238 1 20.4426 7.86162 14.1526 -8.95083
239 1 22.0133 9.43461 12.5799 -8.94986
240 1 3.14133 9.43498 12.5795 -8.95226
241 1 6.27602 9.41359 12.5953 -8.89188
242 1 9.43823 9.25872 12.6391 -8.22574
243 1 12.6297 9.37385 12.643 -8.77401
244 1 15.7378 9.43038 12.5854 -8.95708
245 1 18.8724 9.43412 12.5802 -8.9516
246 1 22.0135 -6.33524e-16 15.7245 -8.9495
247 1 1.57153 1.57185 17.2974 -8.94918
248 1 3.14372 -5.3304e-18 15.7251 -8.94954
249 1 4.71621 1.57129 17.2979 -8.94994
250 1 6.2891 3.02801e-16 15.7251 -8.95025
251 1 7.8616 1.57112 17.2981 -8.94931
252 1 9.43451 5.78186e-16 15.7254 -8.95013
253 1 11.0073 1.57103 17.2981 -8.94935
254 1 12.58 7.01867e-16 15.7251 -8.95035
255 1 14.1528 1.57105 17.2979 -8.94981
256 1 15.7252 8.26769e-16 15.7248 -8.95009
257 1 17.2976 1.57157 17.2974 -8.9495
258 1 18.8694 6.37908e-16 15.7244 -8.94962
259 1 20.4415 1.57205 17.297 -8.94955
260 1 -0.000712581 3.14407 15.7249 -8.94944
261 1 1.57082 4.71617 17.2981 -8.94955
262 1 3.14249 3.14259 15.7262 -8.94817
263 1 4.71326 4.71349 17.3012 -8.94626
264 1 6.28798 3.14111 15.7266 -8.95104
265 1 7.86049 4.71338 17.3009 -8.94752
266 1 9.43434 3.14058 15.7272 -8.94931
267 1 11.0079 4.71301 17.3011 -8.94781
268 1 12.581 3.14042 15.7267 -8.95062
269 1 14.1558 4.71248 17.3016 -8.94593
270 1 15.7266 3.14176 15.726 -8.94955
271 1 17.2997 4.71466 17.2992 -8.94759
272 1 18.8699 3.14388 15.7247 -8.94968
273 1 20.442 4.71649 17.2975 -8.94985
274 1 22.0133 6.28912 15.7251 -8.95065
275 1 1.57188 7.86232 17.2973 -8.94953
276 1 3.14031 6.28711 15.7277 -8.94979
277 1 4.71603 7.86259 17.2988 -8.9522
278 1 6.27926 6.27893 15.7372 -8.93805
279 1 7.85981 7.85878 17.3058 -8.95737
280 1 9.43368 6.27956 15.7353 -8.94132
281 1 11.0081 7.8577 17.3078 -8.9565
282 1 12.5894 6.27678 15.7383 -8.9355
283 1 14.1555 7.85943 17.3038 -8.95289
284 1 15.7331 6.28215 15.7318 -8.94262
285 1 17.2991 7.86126 17.2988 -8.94924
286 1 18.8717 6.28817 15.7258 -8.95042
287 1 20.4422 7.86191 17.2974 -8.94939
288 1 22.014 9.43455 15.7251 -8.94921
289 1 3.14418 9.43529 15.7251 -8.94822
290 1 6.2909 9.43799 15.7256 -8.95648
291 1 9.43436 9.4289 15.7309 -8.96873
292 1 12.5836 9.43333 15.74 -8.96292
293 1 15.7294 9.43341 15.7296 -8.94735
294 1 18.8713 9.43422 15.7257 -8.94909
295 1 -0.00029592 5.38403e-16 18.8694 -8.94933
296 1 1.57188 1.57203 20.4419 -8.94916
297 1 3.14414 -1.60084e-16 18.8698 -8.94959
298 1 4.71678 1.57196 20.442 -8.94945
299 1 6.28921 9.3949e-16 18.8699 -8.94936
300 1 7.86187 1.57188 20.4421 -8.94946
301 1 9.43446 -3.25327e-16 18.87 -8.94945
302 1 11.0071 1.57186 20.4421 -8.94947
303 1 12.5798 1.63365e-15 18.87 -8.94938
304 1 14.1522 1.57189 20.4421 -8.94944
305 1 15.7249 1.77278e-15 18.8698 -8.94952
306 1 17.2972 1.57196 20.442 -8.94928
307 1 18.8695 1.14182e-15 18.8695 -8.94942
308 1 20.4416 1.57213 20.4417 -8.94916
309 1 22.0136 3.14431 18.8697 -8.94945
310 1 1.57194 4.717 20.4418 -8.94993
311 1 3.1434 3.14359 18.8705 -8.94859
312 1 4.71609 4.71623 20.4427 -8.94998
313 1 6.28877 3.14339 18.8706 -8.94912
314 1 7.86147 4.71591 20.4429 -8.94925
315 1 9.43435 3.14319 18.8708 -8.94939
316 1 11.0072 4.7158 20.443 -8.94929
317 1 12.5801 3.14317 18.8708 -8.94914
318 1 14.1528 4.71587 20.443 -8.94967
319 1 15.7257 3.14322 18.8707 -8.94859
320 1 17.2977 4.71636 20.4421 -8.94965
321 1 18.87 3.14396 18.8699 -8.94896
322 1 20.4418 4.717 20.4416 -8.94964
323 1 22.0138 6.28959 18.8695 -8.94966
324 1 1.57201 7.86205 20.4416 -8.9494
325 1 3.14386 6.2895 18.8701 -8.95054
326 1 4.71666 7.86229 20.4419 -8.94986
327 1 6.28762 6.28782 18.8731 -8.95122
328 1 7.8615 7.86171 20.4434 -8.9517
329 1 9.43397 6.28697 18.8736 -8.94905
330 1 11.0068 7.86138 20.4439 -8.95171
331 1 12.581 6.28712 18.8738 -8.95059
332 1 14.1528 7.86144 20.4428 -8.95074
333 1 15.7263 6.28808 18.8717 -8.95041
334 1 17.2978 7.86165 20.442 -8.94927
335 1 18.8701 6.28922 18.8698 -8.94957
336 1 20.4418 7.86194 20.4417 -8.94949
337 1 -5.66974e-05 9.43449 18.8695 -8.94954
338 1 3.14402 9.43462 18.8698 -8.94907
339 1 6.28919 9.43538 18.8699 -8.9496
7 1 9.43451 -4.1229e-16 22.014 -8.94952
44 1 3.14413 9.43446 22.0134 -8.94953
17 1 3.14409 3.14414 22.0138 -8.94947
19 1 6.28925 3.14405 22.014 -8.94936
21 1 9.43446 3.14395 22.014 -8.94945
43 1 22.0138 9.43444 22.0136 -8.94953
27 1 18.8696 3.14428 22.0138 -8.94927
39 1 15.7255 6.28858 22.0133 -8.95005
31 1 3.14427 6.28951 22.0135 -8.94997
33 1 6.28892 6.28899 22.0138 -8.95086
3 1 3.14448 1.07942e-15 22.0139 -8.94957
13 1 18.8693 1.02767e-15 22.0139 -8.9492
15 1 22.0137 3.14453 22.0137 -8.9496
23 1 12.5797 3.14397 22.0141 -8.94934
49 1 18.8698 9.43436 22.0136 -8.94947
344 1 1.57176 11.007 1.57147 -8.9495
345 1 4.7163 11.007 1.57073 -8.9499
346 1 7.86221 11.007 1.57236 -8.94751
347 1 11.0068 11.007 1.57078 -8.94965
348 1 14.1542 11.007 1.56895 -8.94969
349 1 17.2983 11.007 1.57109 -8.94939
350 1 20.4419 11.007 1.57176 -8.94949
688 3 10.1485 11.007 9.53759 2.23021
352 1 1.57181 14.152 1.57153 -8.94931
511 1 18.8695 18.87 9.43436 -8.94943
354 1 4.71657 14.1518 1.57092 -8.9503
355 1 6.28921 12.5791 -0.000320884 -8.94962
356 1 7.86173 14.1523 1.57056 -8.95205
510 1 15.7255 18.8709 9.43405 -8.94918
358 1 11.0066 14.1527 1.57061 -8.95058
509 1 12.5797 18.8712 9.43422 -8.95136
360 1 14.1536 14.1535 1.56919 -8.95118
361 1 15.7257 12.5798 -0.000665297 -8.9494
362 1 17.2982 14.1526 1.57111 -8.94921
538 1 17.2974 20.4421 11.0068 -8.94948
364 1 20.4419 14.1521 1.5718 -8.94944
508 1 9.43433 18.8697 9.43466 -8.9451
366 1 1.57173 17.2972 1.57153 -8.94981
507 1 6.28723 18.8748 9.43434 -8.95222
368 1 4.71607 17.2979 1.57088 -8.94979
506 1 3.14245 18.8717 9.43419 -8.94906
370 1 7.8617 17.298 1.57137 -8.94917
371 1 9.43421 15.7254 0.000244334 -8.94994
372 1 11.0071 17.298 1.57156 -8.94924
373 1 12.5797 15.7253 0.000210068 -8.95019
374 1 14.1525 17.298 1.57151 -8.94992
505 1 22.013 18.87 9.43443 -8.9494
376 1 17.298 17.298 1.57128 -8.94865
504 1 18.8703 15.7256 9.43432 -8.9495
378 1 20.4418 17.2971 1.57189 -8.94954
534 1 4.71557 20.4434 11.0071 -8.94945
380 1 1.57182 20.4419 1.57195 -8.94917
503 1 15.7283 15.728 9.43322 -8.94695
382 1 4.71686 20.442 1.57197 -8.94955
502 1 12.5831 15.7325 9.42976 -8.95204
384 1 7.862 20.442 1.57202 -8.94947
501 1 9.42816 15.7178 9.43865 -9.00609
386 1 11.0071 20.442 1.57206 -8.94949
532 1 20.4413 17.2977 11.0071 -8.94951
388 1 14.1521 20.442 1.57218 -8.94945
500 1 6.2744 15.7439 9.4302 -8.95075
390 1 17.2971 20.442 1.5721 -8.94949
499 1 3.13718 15.7293 9.43339 -8.94812
392 1 20.4415 20.4418 1.57214 -8.94929
393 1 1.57053 11.007 4.715 -8.94926
394 1 4.71399 11.007 4.71176 -8.94593
395 1 7.86546 11.007 4.72022 -8.94455
396 1 11.009 11.007 4.71109 -8.98272
397 1 14.1609 11.007 4.70676 -8.94304
398 1 17.3008 11.007 4.71433 -8.94915
399 1 20.4421 11.007 4.71601 -8.94971
400 1 -0.000357705 12.5796 3.14372 -8.94942
401 1 1.57047 14.1525 4.71526 -8.94929
402 1 3.14331 12.5797 3.14249 -8.94875
403 1 4.71371 14.1535 4.71167 -8.9532
404 1 6.28934 12.5786 3.14229 -8.9516
405 1 7.85852 14.1569 4.70749 -8.95721
406 1 9.43439 12.58 3.14389 -8.94628
407 1 11.0065 14.1552 4.71002 -8.95263
408 1 12.5822 12.5808 3.13672 -8.95685
409 1 14.1619 14.1613 4.70534 -8.93977
410 1 15.7279 12.5807 3.14088 -8.94815
411 1 17.3007 14.1539 4.71455 -8.95012
412 1 18.8706 12.5798 3.14351 -8.94933
413 1 20.442 14.1524 4.71617 -8.94977
414 1 22.0135 15.7247 3.14387 -8.94966
415 1 1.56963 17.299 4.71482 -8.94805
416 1 3.14309 15.7254 3.14236 -8.95055
417 1 4.71281 17.3016 4.71212 -8.94478
418 1 6.28744 15.7268 3.14016 -8.95082
419 1 7.86116 17.3004 4.71424 -8.94825
420 1 9.4342 15.7269 3.14174 -8.94823
421 1 11.0074 17.2997 4.71484 -8.94733
422 1 12.5802 15.7265 3.14169 -8.95003
423 1 14.1543 17.3009 4.71426 -8.95003
424 1 15.728 15.728 3.14078 -8.94658
425 1 17.2985 17.2987 4.71575 -8.94883
426 1 18.8704 15.7253 3.14365 -8.94957
427 1 20.4413 17.2976 4.71641 -8.94973
428 1 22.0132 18.8699 3.14397 -8.94906
429 1 1.57145 20.4423 4.71645 -8.94943
430 1 3.14331 18.8707 3.14315 -8.94836
431 1 4.71635 20.4428 4.71604 -8.95006
432 1 6.28911 18.8705 3.14349 -8.94942
433 1 7.86203 20.4426 4.71622 -8.94947
434 1 9.43458 18.8705 3.1437 -8.94946
435 1 11.0073 20.4425 4.71635 -8.94941
436 1 12.5798 18.8704 3.14392 -8.94908
437 1 14.1522 20.4424 4.71676 -8.95048
438 1 15.7253 18.8708 3.14375 -8.94961
439 1 17.2972 20.4421 4.71684 -8.94959
440 1 18.8695 18.8699 3.14422 -8.94937
441 1 20.4414 20.4419 4.71696 -8.94955
442 1 1.56809 11.007 7.85927 -8.94732
443 1 4.7097 11.007 7.85274 -8.93505
444 1 7.87398 11.007 7.8766 -8.92356
445 1 11.0711 11.007 7.72825 -8.29956
446 1 14.1679 11.007 7.84991 -8.95966
447 1 17.302 11.007 7.86031 -8.9509
448 1 20.4417 11.007 7.86132 -8.95004
449 1 22.0125 12.5797 6.28822 -8.94937
450 1 1.56601 14.154 7.85978 -8.95351
451 1 3.14003 12.58 6.28526 -8.94742
452 1 4.69372 14.169 7.84538 -8.93666
453 1 6.28469 12.5786 6.28003 -8.96148
454 1 7.82145 14.1916 7.82424 -8.84865
455 1 9.42599 12.594 6.29286 -8.92526
456 1 11.0165 14.1637 7.83944 -8.90337
457 1 12.6072 12.6002 6.25665 -8.91201
458 1 14.1659 14.164 7.85049 -8.93475
459 1 15.7339 12.5822 6.28373 -8.95333
460 1 17.3011 14.154 7.86064 -8.95122
461 1 18.8716 12.58 6.28835 -8.95066
462 1 20.4412 14.1526 7.86156 -8.95088
463 1 22.0117 15.7257 6.2883 -8.95053
464 1 1.56956 17.2989 7.86109 -8.94923
465 1 3.13631 15.7307 6.28303 -8.94502
466 1 4.71125 17.3046 7.85825 -8.94868
467 1 6.27641 15.7385 6.2754 -8.93002
468 1 7.85992 17.3056 7.86048 -8.95933
469 1 9.43344 15.7328 6.28411 -8.9446
470 1 11.0052 17.299 7.86191 -8.95295
471 1 12.5844 15.7332 6.2822 -8.95105
472 1 14.1542 17.3013 7.86003 -8.94977
473 1 15.7296 15.7293 6.28551 -8.94616
474 1 17.2982 17.2985 7.86146 -8.94918
475 1 18.8705 15.7256 6.28873 -8.95011
476 1 20.4412 17.2977 7.86177 -8.94951
477 1 -0.000882576 18.87 6.28913 -8.94948
478 1 1.57139 20.4423 7.86174 -8.9494
479 1 3.14246 18.872 6.28781 -8.94928
480 1 4.71589 20.4435 7.8613 -8.95035
481 1 6.28817 18.8733 6.28765 -8.95162
482 1 7.86213 20.4433 7.86172 -8.95135
483 1 9.43471 18.8722 6.2881 -8.94994
484 1 11.0069 20.4422 7.86191 -8.94946
485 1 12.5795 18.8713 6.28907 -8.95176
486 1 14.1524 20.4426 7.86173 -8.95034
487 1 15.7254 18.8711 6.28879 -8.94958
488 1 17.2973 20.4421 7.86184 -8.94944
489 1 18.8695 18.8699 6.28932 -8.9495
490 1 20.4414 20.4419 7.86194 -8.94949
491 1 22.0114 12.5795 9.43422 -8.95154
492 1 3.13305 12.5811 9.43091 -8.96021
493 1 6.24164 12.6283 9.39129 -8.86685
494 1 9.34501 12.825 9.44579 -7.96649
495 1 12.6011 12.6103 9.39044 -8.80937
496 1 15.7319 12.5818 9.43119 -8.94967
497 1 18.8712 12.5799 9.43419 -8.94996
498 1 -0.00211537 15.7256 9.43438 -8.94984
513 1 4.71892 11.007 10.9995 -9.00753
514 1 7.60042 11.007 10.9152 -8.00064
531 1 17.2984 17.2985 11.0067 -8.9489
526 1 1.56966 17.2987 11.0074 -8.94912
527 1 4.71128 17.3032 11.0081 -8.94619
389 1 15.7249 18.8699 0.000144091 -8.94959
365 1 22.0138 15.7244 -0.000237712 -8.94947
377 1 18.8698 15.7247 -0.000249206 -8.94944
512 1 1.57049 11.007 11.0071 -8.94561
687 3 9.47632 11.007 11.608 2.15678
686 1 20.4416 20.4418 20.4417 -8.94916
515 1 11.4085 11.007 11.0903 -7.18108
516 1 14.1737 11.007 11.0123 -9.02185
517 1 17.3022 11.007 11.007 -8.95325
518 1 20.4422 11.007 11.0071 -8.94918
519 1 1.56715 14.1533 11.0075 -8.95246
520 1 4.69809 14.1607 11.0092 -8.9565
521 1 7.80107 14.1903 11.0355 -8.81537
522 1 11.0464 14.1588 11.0174 -8.86848
523 1 14.1646 14.1572 11.0057 -8.95486
524 1 17.3009 14.1536 11.0068 -8.95046
525 1 20.4415 14.1525 11.0072 -8.95049
391 1 18.8696 18.8696 22.0138 -8.94927
385 1 9.43446 18.87 22.014 -8.94945
528 1 7.85899 17.3053 11.0095 -8.95922
529 1 11.0065 17.2985 11.0074 -8.95083
530 1 14.1545 17.3005 11.0059 -8.94693
685 1 18.87 18.8699 18.8699 -8.94896
684 1 17.2972 20.4419 20.442 -8.94928
533 1 1.57133 20.4422 11.007 -8.94942
683 1 15.7257 18.8707 18.8707 -8.94859
535 1 7.86208 20.4434 11.007 -8.95109
536 1 11.0069 20.4423 11.0067 -8.94894
537 1 14.1527 20.4427 11.0065 -8.94941
682 1 14.1522 20.442 20.4421 -8.94944
539 1 20.4414 20.4419 11.007 -8.94951
540 1 1.57177 11.007 14.1528 -8.94806
541 1 4.71823 11.007 14.1507 -8.9405
542 1 7.87569 11.007 14.1161 -8.92795
543 1 11.0065 11.007 14.1436 -8.97543
544 1 14.1617 11.007 14.163 -8.9367
545 1 17.3017 11.007 14.1549 -8.94766
546 1 20.4427 11.007 14.1528 -8.94952
547 1 22.0133 12.5793 12.5799 -8.94986
548 1 1.57003 14.1521 14.1528 -8.95206
549 1 3.14133 12.5789 12.5795 -8.95226
550 1 4.70692 14.1581 14.1593 -8.95073
551 1 6.27602 12.6003 12.5953 -8.89188
552 1 7.83715 14.1823 14.1869 -8.89862
553 1 9.43823 12.7552 12.6391 -8.22574
554 1 11.0308 14.1851 14.1907 -8.88284
555 1 12.6297 12.64 12.643 -8.77401
556 1 14.1753 14.1727 14.1735 -8.92431
557 1 15.7378 12.5835 12.5854 -8.95708
558 1 17.3036 14.1548 14.155 -8.95287
559 1 18.8724 12.5798 12.5802 -8.9516
560 1 20.4426 14.1523 14.1526 -8.95083
561 1 -0.0016798 15.7254 12.5801 -8.95011
562 1 1.56984 17.2984 14.1532 -8.9492
563 1 3.13785 15.7285 12.5823 -8.94885
564 1 4.71104 17.3036 14.1572 -8.94403
565 1 6.27297 15.7439 12.5929 -8.93122
566 1 7.86066 17.3051 14.1561 -8.95632
567 1 9.43576 15.7275 12.5863 -8.9873
568 1 11.0083 17.3061 14.1567 -8.95526
569 1 12.5895 15.7429 12.5871 -8.95665
570 1 14.1569 17.3049 14.1559 -8.95007
571 1 15.7297 15.7288 12.5804 -8.94954
572 1 17.2991 17.2989 14.1526 -8.94979
573 1 18.8707 15.7255 12.5797 -8.94975
574 1 20.4415 17.2976 14.1523 -8.9497
575 1 22.0131 18.87 12.5797 -8.94938
576 1 1.57139 20.4422 14.1523 -8.94938
577 1 3.14244 18.8715 12.5803 -8.94897
578 1 4.71572 20.4434 14.1529 -8.95009
579 1 6.28715 18.8748 12.581 -8.9524
580 1 7.86196 20.4435 14.1526 -8.95075
581 1 9.43486 18.8718 12.5804 -8.94747
582 1 11.0073 20.4437 14.1526 -8.95103
583 1 12.5806 18.8737 12.5794 -8.95366
584 1 14.1529 20.4434 14.1523 -8.95087
585 1 15.7257 18.8711 12.5792 -8.94943
586 1 17.2974 20.4422 14.1519 -8.94958
587 1 18.8696 18.87 12.5794 -8.94937
588 1 20.4414 20.4419 14.152 -8.94948
589 1 1.57186 11.007 17.2974 -8.9497
590 1 4.71595 11.007 17.2979 -8.94748
591 1 7.86274 11.007 17.2928 -8.93548
592 1 11.0062 11.007 17.2988 -8.94215
593 1 14.1559 11.007 17.3032 -8.94641
594 1 17.2992 11.007 17.2989 -8.94925
595 1 20.4422 11.007 17.2975 -8.94955
596 1 22.014 12.5793 15.7251 -8.94921
597 1 1.57188 14.1516 17.2973 -8.94953
598 1 3.14418 12.5786 15.7251 -8.94822
599 1 4.71603 14.1513 17.2988 -8.9522
600 1 6.2909 12.5759 15.7256 -8.95648
601 1 7.85981 14.1551 17.3058 -8.95737
602 1 9.43436 12.585 15.7309 -8.96873
603 1 11.0081 14.1562 17.3078 -8.9565
604 1 12.5836 12.5806 15.74 -8.96292
605 1 14.1555 14.1545 17.3038 -8.95289
606 1 15.7294 12.5805 15.7296 -8.94735
607 1 17.2991 14.1526 17.2988 -8.94924
608 1 18.8713 12.5797 15.7257 -8.94909
609 1 20.4422 14.152 17.2974 -8.94939
610 1 22.0133 15.7248 15.7251 -8.95065
611 1 1.57082 17.2977 17.2981 -8.94955
612 1 3.14031 15.7268 15.7277 -8.94979
613 1 4.71326 17.3004 17.3012 -8.94626
614 1 6.27926 15.735 15.7372 -8.93805
615 1 7.86049 17.3005 17.3009 -8.94752
616 1 9.43368 15.7343 15.7353 -8.94132
617 1 11.0079 17.3009 17.3011 -8.94781
618 1 12.5894 15.7371 15.7383 -8.9355
619 1 14.1558 17.3014 17.3016 -8.94593
620 1 15.7331 15.7318 15.7318 -8.94262
621 1 17.2997 17.2992 17.2992 -8.94759
622 1 18.8717 15.7257 15.7258 -8.95042
623 1 20.442 17.2974 17.2975 -8.94985
624 1 -0.000712581 18.8698 15.7249 -8.94944
625 1 1.57153 20.4421 17.2974 -8.94918
626 1 3.14249 18.8713 15.7262 -8.94817
627 1 4.71621 20.4426 17.2979 -8.94994
628 1 6.28798 18.8728 15.7266 -8.95104
629 1 7.8616 20.4428 17.2981 -8.94931
630 1 9.43434 18.8733 15.7272 -8.94931
631 1 11.0073 20.4429 17.2981 -8.94935
632 1 12.581 18.8735 15.7267 -8.95062
633 1 14.1528 20.4429 17.2979 -8.94981
634 1 15.7266 18.8721 15.726 -8.94955
635 1 17.2976 20.4423 17.2974 -8.9495
636 1 18.8699 18.87 15.7247 -8.94968
637 1 20.4415 20.4418 17.297 -8.94955
638 1 1.57195 11.007 20.4416 -8.94955
639 1 4.71639 11.007 20.4417 -8.94967
640 1 7.8615 11.007 20.4416 -8.94693
641 1 11.0067 11.007 20.4426 -8.94813
642 1 14.1533 11.007 20.4428 -8.95009
643 1 17.2979 11.007 20.442 -8.94944
644 1 20.4418 11.007 20.4417 -8.94953
645 1 -5.66974e-05 12.5794 18.8695 -8.94954
646 1 1.57201 14.1519 20.4416 -8.9494
647 1 3.14402 12.5793 18.8698 -8.94907
648 1 4.71666 14.1516 20.4419 -8.94986
649 1 6.28919 12.5785 18.8699 -8.9496
650 1 7.8615 14.1522 20.4434 -8.9517
651 1 9.43388 12.5792 18.8717 -8.9502
652 1 11.0068 14.1525 20.4439 -8.95171
653 1 12.5801 12.5793 18.8734 -8.95228
654 1 14.1528 14.1525 20.4428 -8.95074
655 1 15.7263 12.5799 18.8715 -8.94886
656 1 17.2978 14.1523 20.442 -8.94927
657 1 18.8701 12.5795 18.8699 -8.94941
658 1 20.4418 14.152 20.4417 -8.94949
659 1 22.0138 15.7243 18.8695 -8.94966
660 1 1.57194 17.2969 20.4418 -8.94993
661 1 3.14386 15.7244 18.8701 -8.95054
662 1 4.71609 17.2977 20.4427 -8.94998
663 1 6.28762 15.7261 18.8731 -8.95122
664 1 7.86147 17.298 20.4429 -8.94925
665 1 9.43397 15.7269 18.8736 -8.94905
666 1 11.0072 17.2981 20.443 -8.94929
667 1 12.581 15.7268 18.8738 -8.95059
668 1 14.1528 17.298 20.443 -8.94967
669 1 15.7263 15.7258 18.8717 -8.95041
670 1 17.2977 17.2975 20.4421 -8.94965
671 1 18.8701 15.7247 18.8698 -8.94957
672 1 20.4418 17.2969 20.4416 -8.94964
673 1 22.0136 18.8696 18.8697 -8.94945
674 1 1.57188 20.4419 20.4419 -8.94916
675 1 3.1434 18.8703 18.8705 -8.94859
676 1 4.71678 20.4419 20.442 -8.94945
677 1 6.28877 18.8705 18.8706 -8.94912
678 1 7.86187 20.442 20.4421 -8.94946
679 1 9.43435 18.8707 18.8708 -8.94939
680 1 11.0071 20.442 20.4421 -8.94947
681 1 12.5801 18.8707 18.8708 -8.94914
351 1 22.0138 12.5795 22.0136 -8.94953
353 1 3.14413 12.5794 22.0134 -8.94953
357 1 9.43417 12.5793 22.0141 -8.94898
359 1 12.5798 12.5796 22.0132 -8.9514
383 1 6.28925 18.8699 22.014 -8.94936
367 1 3.14427 15.7244 22.0135 -8.94997
369 1 6.28892 15.7249 22.0138 -8.95086
375 1 15.7255 15.7253 22.0133 -8.95005
381 1 3.14409 18.8698 22.0138 -8.94947
363 1 18.8698 12.5795 22.0136 -8.94947
379 1 22.0137 18.8694 22.0137 -8.9496
387 1 12.5797 18.8699 22.0141 -8.94934
