ITEM: TIMESTEP
56
ITEM: NUMBER OF ATOMS
688
ITEM: BOX BOUNDS pp pp pp
0.0000000000000000e+00 2.2013900999999997e+01
0.0000000000000000e+00 2.2013900999999997e+01
0.0000000000000000e+00 2.2013900999999997e+01
ITEM: ATOMS id type x y z c_pot
1 1 22.0139 1.44107e-15 1.31997e-07 -8.94963
2 1 1.57242 1.57242 1.57242 -8.94961
189 1 20.4415 4.71725 11.007 -8.94964
4 1 4.71727 1.57242 1.57242 -8.94967
5 1 6.28969 1.64053e-15 -2.04401e-07 -8.94963
6 1 7.86211 1.57242 1.57242 -8.94964
175 1 18.8694 9.43443 9.43453 -8.94996
8 1 11.007 1.57242 1.57242 -8.94964
9 1 12.5794 -5.46362e-16 -7.79516e-08 -8.94964
10 1 14.1518 1.57242 1.57242 -8.94964
174 1 15.727 9.43371 9.43434 -8.95027
12 1 17.2966 1.57241 1.57242 -8.94962
188 1 17.2967 4.71719 11.0069 -8.9496
14 1 20.4415 1.57242 1.57242 -8.94963
181 1 17.2966 1.57241 11.007 -8.94964
16 1 1.57242 4.71726 1.57241 -8.94965
173 1 12.5916 9.41515 9.40884 -8.8302
18 1 4.71721 4.71721 1.57234 -8.9496
172 1 9.34488 9.22568 9.44023 -7.99538
20 1 7.86211 4.71722 1.57238 -8.94957
171 1 6.25519 9.40604 9.40705 -8.88294
22 1 11.007 4.71722 1.57238 -8.94963
177 1 4.71719 1.57233 11.0069 -8.94956
24 1 14.1518 4.71724 1.57241 -8.94979
170 1 3.13998 9.43393 9.4337 -8.95692
26 1 17.2967 4.71721 1.57236 -8.94938
169 1 22.0134 9.43448 9.43448 -8.95068
28 1 20.4415 4.71726 1.57242 -8.94963
168 1 18.8692 6.28961 9.43453 -8.94954
30 1 1.57242 7.86211 1.57242 -8.94963
167 1 15.7248 6.2891 9.43449 -8.94837
32 1 4.71722 7.86211 1.57234 -8.94975
166 1 12.5803 6.28631 9.43294 -8.95233
34 1 7.86198 7.86196 1.57196 -8.95047
35 1 9.43452 6.28963 -5.71402e-07 -8.94965
36 1 11.0068 7.86193 1.57204 -8.94971
37 1 12.5794 6.28964 2.2273e-05 -8.9497
38 1 14.1521 7.86182 1.5718 -8.95014
165 1 9.43259 6.28601 9.43518 -8.99531
40 1 17.2967 7.8621 1.5724 -8.94971
164 1 6.28553 6.28305 9.43302 -8.9511
42 1 20.4415 7.86211 1.57242 -8.94963
163 1 3.14408 6.28922 9.43458 -8.9496
162 1 -7.90924e-05 6.28964 9.43454 -8.94964
45 1 6.28965 9.43454 -1.09026e-05 -8.94972
161 1 18.8691 3.14484 9.43453 -8.94965
160 1 15.7243 3.14474 9.43452 -8.94953
48 1 15.7243 9.43452 -4.11055e-05 -8.94957
159 1 12.5796 3.14431 9.4344 -8.94994
50 1 22.0139 9.50484e-17 3.14484 -8.94964
51 1 1.57242 1.57241 4.71726 -8.94965
52 1 3.14483 5.701e-16 3.14483 -8.94961
53 1 4.71722 1.57235 4.71722 -8.94964
54 1 6.28969 1.23369e-15 3.14484 -8.94964
55 1 7.86211 1.57239 4.71724 -8.94959
56 1 9.43453 8.19492e-17 3.14484 -8.94964
57 1 11.007 1.57237 4.71722 -8.9496
58 1 12.5794 1.04552e-15 3.14484 -8.94962
59 1 14.1518 1.57236 4.71723 -8.94973
60 1 15.7242 -1.54824e-16 3.14484 -8.94964
61 1 17.2966 1.57241 4.71726 -8.94963
62 1 18.8691 -7.96599e-16 3.14484 -8.94963
63 1 20.4415 1.57242 4.71726 -8.94964
64 1 22.0139 3.14483 3.14483 -8.9496
65 1 1.57229 4.71716 4.71717 -8.94935
66 1 3.14479 3.14479 3.14479 -8.9494
67 1 4.71669 4.71667 4.71666 -8.94767
68 1 6.28969 3.14482 3.14482 -8.94979
69 1 7.86215 4.71699 4.71704 -8.94988
70 1 9.43452 3.14479 3.1448 -8.94966
71 1 11.007 4.71686 4.71691 -8.94899
72 1 12.5794 3.1448 3.14481 -8.94957
73 1 14.1521 4.7166 4.71693 -8.9499
74 1 15.7243 3.14476 3.1448 -8.94961
75 1 17.2967 4.7172 4.71722 -8.94957
76 1 18.8691 3.14484 3.14484 -8.94964
77 1 20.4415 4.71725 4.71725 -8.94963
78 1 22.0139 6.28968 3.14484 -8.94967
79 1 1.57236 7.8621 4.71721 -8.9497
80 1 3.14478 6.28965 3.14475 -8.94979
81 1 4.71679 7.86191 4.71649 -8.9508
82 1 6.28936 6.28934 3.14413 -8.94984
83 1 7.86068 7.86049 4.71312 -8.95363
84 1 9.43451 6.28931 3.14441 -8.94897
85 1 11.0063 7.8609 4.71464 -8.95084
86 1 12.5793 6.28947 3.14457 -8.94992
87 1 14.1561 7.85771 4.71268 -8.93785
88 1 15.7248 6.2891 3.14424 -8.9477
89 1 17.2972 7.86185 4.717 -8.9501
90 1 18.8691 6.28965 3.1448 -8.94964
91 1 20.4415 7.86209 4.71724 -8.94971
92 1 -2.49509e-06 9.43453 3.14483 -8.94964
93 1 3.14477 9.43452 3.14475 -8.94952
94 1 6.28948 9.43466 3.14427 -8.95043
95 1 9.43405 9.43401 3.14347 -8.94864
96 1 12.5803 9.4337 3.14126 -8.95486
97 1 15.7245 9.43444 3.14451 -8.94935
98 1 18.8691 9.43452 3.14481 -8.94959
99 1 22.0139 1.30377e-15 6.28969 -8.94964
100 1 1.57242 1.57242 7.86211 -8.94964
101 1 3.14483 1.23372e-15 6.28968 -8.94964
102 1 4.7172 1.57231 7.86207 -8.94966
103 1 6.28965 3.26332e-16 6.28965 -8.94983
104 1 7.86206 1.57205 7.86203 -8.95042
105 1 9.43454 8.31137e-16 6.28965 -8.94971
106 1 11.007 1.57222 7.86203 -8.94974
107 1 12.5794 9.50769e-16 6.28966 -8.94977
108 1 14.1518 1.57234 7.86209 -8.9497
109 1 15.7242 -1.11686e-15 6.28968 -8.94964
110 1 17.2966 1.57242 7.86211 -8.94963
111 1 18.8691 5.95203e-16 6.28969 -8.94963
112 1 20.4415 1.57242 7.86211 -8.94963
113 1 -2.11628e-06 3.14484 6.28969 -8.94966
114 1 1.57236 4.71721 7.86211 -8.94973
115 1 3.14477 3.14474 6.28963 -8.94969
116 1 4.71665 4.71628 7.8617 -8.94965
117 1 6.28944 3.14422 6.28939 -8.95019
118 1 7.86146 4.71364 7.8612 -8.95521
119 1 9.43464 3.14439 6.28947 -8.94953
120 1 11.0072 4.71586 7.86162 -8.94984
121 1 12.5795 3.1444 6.28955 -8.95038
122 1 14.1522 4.71648 7.86197 -8.94975
123 1 15.7243 3.14475 6.28966 -8.94961
124 1 17.2967 4.71721 7.8621 -8.94967
125 1 18.8691 3.14484 6.28969 -8.94965
126 1 20.4415 4.71726 7.86211 -8.94963
127 1 22.0138 6.28962 6.28962 -8.94973
128 1 1.57143 7.86178 7.86179 -8.95092
129 1 3.14364 6.28882 6.28882 -8.94783
130 1 4.70899 7.85641 7.85655 -8.94042
131 1 6.28522 6.28503 6.28488 -8.93636
132 1 7.83613 7.83655 7.83593 -8.86274
133 1 9.43516 6.287 6.28827 -8.94938
134 1 11.0133 7.8568 7.84999 -8.91854
135 1 12.5809 6.28595 6.28797 -8.95327
136 1 14.1571 7.85758 7.85946 -8.9396
137 1 15.7249 6.28903 6.28925 -8.9485
138 1 17.2974 7.86178 7.86204 -8.95022
139 1 18.8691 6.28963 6.28965 -8.94966
140 1 20.4415 7.86206 7.86208 -8.94991
141 1 22.0138 9.43452 6.28962 -8.94965
142 1 3.14415 9.43453 6.28916 -8.94923
143 1 6.28724 9.43498 6.28532 -8.95606
144 1 9.42744 9.42392 6.28629 -8.9203
145 1 12.604 9.41237 6.26446 -8.88574
146 1 15.7278 9.43365 6.28863 -8.95411
147 1 18.8694 9.43448 6.28961 -8.95025
148 1 -3.39222e-07 1.47302e-15 9.43453 -8.94964
149 1 3.14483 1.67899e-15 9.43453 -8.94963
150 1 6.28962 1.01297e-15 9.4345 -8.94986
151 1 9.43455 6.61985e-16 9.43451 -8.94999
152 1 12.5794 2.51808e-16 9.4345 -8.94974
153 1 15.7242 -5.63868e-16 9.43453 -8.94964
154 1 18.8691 6.98185e-16 9.43453 -8.94964
155 1 22.0139 3.14484 9.43453 -8.94964
156 1 3.14478 3.14477 9.43453 -8.94963
157 1 6.28929 3.14387 9.43441 -8.95007
158 1 9.43465 3.14362 9.43446 -8.94962
183 1 1.57232 4.71719 11.0069 -8.94959
184 1 4.71661 4.71655 11.007 -8.9488
11 1 15.7242 1.55492e-15 1.49726e-07 -8.94964
25 1 15.7242 3.14484 6.61746e-06 -8.94965
29 1 22.0139 6.28969 1.68892e-07 -8.94963
41 1 18.8691 6.28969 -4.91778e-07 -8.94966
176 1 1.57242 1.57242 11.007 -8.94965
343 1 18.8691 9.43453 18.8691 -8.94964
178 1 7.86199 1.57191 11.0069 -8.95046
179 1 11.0071 1.57206 11.0069 -8.94977
180 1 14.1519 1.57234 11.0069 -8.94962
342 1 15.7243 9.43451 18.8692 -8.94951
182 1 20.4415 1.57242 11.007 -8.94964
47 1 12.5795 9.43446 22.0136 -8.95046
46 1 9.43446 9.43447 22.0138 -8.94997
185 1 7.8609 4.71276 11.0073 -8.95439
186 1 11.0077 4.71498 11.0068 -8.94872
187 1 14.1523 4.71663 11.0067 -8.94903
341 1 12.5797 9.43451 18.8699 -8.9505
340 1 9.43442 9.43459 18.8706 -8.95165
190 1 1.57166 7.86188 11.0071 -8.95034
191 1 4.71123 7.86004 11.0086 -8.95561
192 1 7.82545 7.83507 11.0246 -8.83377
193 1 11.0268 7.85579 11.0092 -8.88669
194 1 14.1559 7.86007 11.006 -8.95344
195 1 17.2974 7.86174 11.0069 -8.9496
196 1 20.4415 7.86206 11.007 -8.94981
197 1 -2.77453e-07 -7.94313e-17 12.5794 -8.94964
198 1 1.57242 1.57242 14.1518 -8.94966
199 1 3.14483 1.04222e-15 12.5794 -8.94963
200 1 4.7172 1.57232 14.1518 -8.9496
201 1 6.28962 2.77292e-16 12.5794 -8.94988
202 1 7.86206 1.57206 14.1519 -8.95031
203 1 9.43454 6.09663e-16 12.5794 -8.95013
204 1 11.007 1.57203 14.1519 -8.95034
205 1 12.5794 1.64939e-15 12.5794 -8.94988
206 1 14.1518 1.57232 14.1518 -8.94972
207 1 15.7242 3.38554e-16 12.5794 -8.94964
208 1 17.2966 1.57242 14.1518 -8.94964
209 1 18.8691 7.54598e-16 12.5794 -8.94963
210 1 20.4415 1.57242 14.1518 -8.94964
211 1 22.0139 3.14484 12.5794 -8.94964
212 1 1.57231 4.71719 14.1518 -8.94956
213 1 3.14478 3.14477 12.5794 -8.94972
214 1 4.71651 4.71646 14.1523 -8.94782
215 1 6.28926 3.14387 12.5795 -8.95013
216 1 7.8614 4.71384 14.1528 -8.95474
217 1 9.43464 3.14329 12.5794 -8.95024
218 1 11.0077 4.71354 14.153 -8.95392
219 1 12.5797 3.14396 12.5794 -8.95064
220 1 14.1524 4.71622 14.1521 -8.95032
221 1 15.7243 3.14477 12.5794 -8.94965
222 1 17.2967 4.71722 14.1518 -8.94975
223 1 18.8691 3.14484 12.5794 -8.94964
224 1 20.4415 4.71725 14.1518 -8.94963
225 1 -9.90293e-05 6.28963 12.5794 -8.9497
226 1 1.57196 7.86199 14.1519 -8.95035
227 1 3.14386 6.28909 12.5797 -8.94938
228 1 4.71342 7.86062 14.1536 -8.95316
229 1 6.28422 6.28296 12.5833 -8.93737
230 1 7.83912 7.83859 14.1791 -8.88161
231 1 9.43535 6.28282 12.5818 -8.9906
232 1 11.0286 7.83758 14.1794 -8.86931
233 1 12.582 6.28266 12.5804 -8.9563
234 1 14.1613 7.85466 14.1591 -8.93388
235 1 15.7249 6.28918 12.5793 -8.94952
236 1 17.2977 7.86178 14.1521 -8.95129
237 1 18.8692 6.28962 12.5794 -8.94957
238 1 20.4415 7.86208 14.1518 -8.94991
239 1 22.0137 9.43447 12.5795 -8.94979
240 1 3.14332 9.43426 12.58 -8.9493
241 1 6.28439 9.42457 12.5886 -8.9128
242 1 9.43737 9.24043 12.6562 -8.13351
243 1 12.6121 9.39228 12.6216 -8.8001
244 1 15.7288 9.43367 12.5804 -8.95621
245 1 18.8695 9.43449 12.5794 -8.9506
246 1 22.0139 -3.03612e-16 15.7242 -8.94964
247 1 1.57242 1.57242 17.2966 -8.94964
248 1 3.14483 6.84363e-16 15.7242 -8.94962
249 1 4.71722 1.57235 17.2967 -8.94966
250 1 6.28965 -5.80136e-16 15.7243 -8.94981
251 1 7.8621 1.57237 17.2967 -8.94958
252 1 9.43453 1.6104e-16 15.7243 -8.94972
253 1 11.007 1.57237 17.2967 -8.94958
254 1 12.5794 8.33231e-16 15.7243 -8.9498
255 1 14.1518 1.57235 17.2967 -8.94963
256 1 15.7242 1.12878e-15 15.7242 -8.94965
257 1 17.2966 1.57241 17.2966 -8.94965
258 1 18.8691 2.74347e-16 15.7242 -8.94964
259 1 20.4415 1.57242 17.2966 -8.94964
260 1 -8.12956e-06 3.14484 15.7242 -8.94963
261 1 1.57234 4.71722 17.2967 -8.94961
262 1 3.14477 3.14477 15.7243 -8.94952
263 1 4.71667 4.71668 17.2973 -8.94766
264 1 6.28943 3.14426 15.7245 -8.95025
265 1 7.86201 4.71691 17.297 -8.94933
266 1 9.43451 3.14427 15.7245 -8.94937
267 1 11.007 4.71692 17.297 -8.94943
268 1 12.5796 3.14422 15.7245 -8.95004
269 1 14.1523 4.7167 17.2972 -8.94785
270 1 15.7243 3.14473 15.7243 -8.94975
271 1 17.2968 4.71715 17.2968 -8.94925
272 1 18.8691 3.14484 15.7242 -8.94967
273 1 20.4415 4.71725 17.2966 -8.94964
274 1 22.0138 6.28965 15.7242 -8.94973
275 1 1.5724 7.86212 17.2967 -8.94966
276 1 3.14417 6.28937 15.7246 -8.94991
277 1 4.71707 7.86218 17.2969 -8.95037
278 1 6.28518 6.28529 15.729 -8.93766
279 1 7.86103 7.86095 17.3006 -8.95454
280 1 9.43442 6.2865 15.7273 -8.94597
281 1 11.0077 7.86094 17.3006 -8.95427
282 1 12.5836 6.28523 15.7287 -8.93746
283 1 14.1523 7.86179 17.2976 -8.95076
284 1 15.7256 6.28862 15.7253 -8.94693
285 1 17.2967 7.86211 17.2967 -8.94973
286 1 18.8692 6.28962 15.7243 -8.94977
287 1 20.4415 7.86211 17.2966 -8.94963
288 1 22.0139 9.43454 15.7242 -8.94963
289 1 3.14462 9.4347 15.7244 -8.94964
290 1 6.28893 9.43602 15.7259 -8.95155
291 1 9.43359 9.43098 15.7347 -8.96757
292 1 12.5814 9.43442 15.7308 -8.95634
293 1 15.7249 9.43458 15.7248 -8.94922
294 1 18.8692 9.43453 15.7243 -8.94956
295 1 -4.48558e-07 2.71193e-16 18.8691 -8.94964
296 1 1.57242 1.57242 20.4415 -8.9496
297 1 3.14483 1.0462e-15 18.8691 -8.94962
298 1 4.71727 1.57242 20.4415 -8.94966
299 1 6.28969 1.70285e-15 18.8691 -8.94963
300 1 7.86211 1.57242 20.4415 -8.94965
301 1 9.43453 7.06181e-16 18.8691 -8.94964
302 1 11.007 1.57242 20.4415 -8.94965
303 1 12.5794 9.35539e-16 18.8691 -8.94963
304 1 14.1518 1.57242 20.4415 -8.94966
305 1 15.7242 3.69998e-16 18.8691 -8.94961
306 1 17.2966 1.57242 20.4415 -8.94962
307 1 18.8691 8.83582e-16 18.8691 -8.94964
308 1 20.4415 1.57242 20.4415 -8.94963
309 1 22.0139 3.14484 18.8691 -8.94962
310 1 1.57242 4.71726 20.4415 -8.94966
311 1 3.14478 3.14479 18.8691 -8.94938
312 1 4.71721 4.71721 20.4416 -8.94962
313 1 6.28968 3.14482 18.8691 -8.94971
314 1 7.8621 4.71723 20.4415 -8.94958
315 1 9.43453 3.14481 18.8691 -8.9497
316 1 11.007 4.71723 20.4415 -8.94959
317 1 12.5794 3.14481 18.8691 -8.94972
318 1 14.1518 4.71722 20.4416 -8.94963
319 1 15.7243 3.14479 18.8691 -8.94943
320 1 17.2966 4.71725 20.4415 -8.94964
321 1 18.8691 3.14483 18.8691 -8.94959
322 1 20.4415 4.71727 20.4415 -8.94964
323 1 22.0139 6.28969 18.8691 -8.94964
324 1 1.57242 7.86211 20.4415 -8.94963
325 1 3.14482 6.28969 18.8691 -8.9498
326 1 4.71724 7.86211 20.4415 -8.94962
327 1 6.28938 6.28939 18.8697 -8.95004
328 1 7.86203 7.86203 20.4418 -8.95049
329 1 9.43452 6.28939 18.8696 -8.94929
330 1 11.007 7.86202 20.4418 -8.95043
331 1 12.5796 6.28939 18.8697 -8.94999
332 1 14.1519 7.86206 20.4415 -8.94981
333 1 15.7243 6.28963 18.8692 -8.94978
334 1 17.2966 7.86211 20.4415 -8.94962
335 1 18.8691 6.28969 18.8691 -8.94967
336 1 20.4415 7.86211 20.4415 -8.94963
337 1 -5.0238e-06 9.43453 18.8691 -8.94963
338 1 3.1448 9.43452 18.8691 -8.94956
339 1 6.28948 9.43462 18.8694 -8.94954
7 1 9.43453 1.62134e-15 22.0139 -8.94964
44 1 3.14483 9.43453 22.0139 -8.94962
17 1 3.14483 3.14483 22.0139 -8.94961
19 1 6.28969 3.14484 22.0139 -8.94963
21 1 9.43453 3.14484 22.0139 -8.94964
43 1 22.0139 9.43453 22.0139 -8.94964
27 1 18.8691 3.14484 22.0139 -8.94961
39 1 15.7243 6.28964 22.0138 -8.94964
31 1 3.14484 6.28969 22.0139 -8.94965
33 1 6.28964 6.28964 22.0139 -8.94981
3 1 3.14484 1.35332e-15 22.0139 -8.94965
13 1 18.8691 1.89784e-16 22.0139 -8.94963
15 1 22.0139 3.14484 22.0139 -8.94964
23 1 12.5794 3.14484 22.0139 -8.94963
49 1 18.8691 9.43453 22.0139 -8.94965
344 1 1.57242 11.007 1.57242 -8.94965
345 1 4.71719 11.007 1.5723 -8.94964
346 1 7.86204 11.007 1.5722 -8.94949
347 1 11.0068 11.007 1.57108 -8.95081
348 1 14.1521 11.007 1.57188 -8.94936
349 1 17.2967 11.007 1.57239 -8.94969
350 1 20.4415 11.007 1.57242 -8.94964
688 3 10.1994 11.007 9.47712 2.35575
352 1 1.57242 14.1518 1.57242 -8.94963
511 1 18.8691 18.8691 9.43453 -8.94965
354 1 4.71722 14.1518 1.57234 -8.94975
355 1 6.28965 12.5794 -1.09026e-05 -8.94972
356 1 7.86198 14.1519 1.57196 -8.95047
510 1 15.7243 18.8692 9.43452 -8.94953
358 1 11.0068 14.152 1.57204 -8.94971
509 1 12.5796 18.8696 9.4344 -8.94994
360 1 14.1521 14.1521 1.5718 -8.95014
361 1 15.7243 12.5794 -4.11055e-05 -8.94957
362 1 17.2967 14.1518 1.5724 -8.94971
538 1 17.2966 20.4415 11.007 -8.94964
364 1 20.4415 14.1518 1.57242 -8.94963
508 1 9.43465 18.8703 9.43446 -8.94962
366 1 1.57242 17.2966 1.57241 -8.94965
507 1 6.28929 18.87 9.43441 -8.95007
368 1 4.71721 17.2967 1.57234 -8.9496
506 1 3.14478 18.8691 9.43453 -8.94963
370 1 7.86211 17.2967 1.57238 -8.94957
371 1 9.43452 15.7243 -5.71402e-07 -8.94965
372 1 11.007 17.2967 1.57238 -8.94963
373 1 12.5794 15.7243 2.2273e-05 -8.9497
374 1 14.1518 17.2967 1.57241 -8.94979
505 1 22.0139 18.8691 9.43453 -8.94964
376 1 17.2967 17.2967 1.57236 -8.94938
504 1 18.8692 15.7243 9.43453 -8.94954
378 1 20.4415 17.2966 1.57242 -8.94963
534 1 4.71719 20.4416 11.0069 -8.94956
380 1 1.57242 20.4415 1.57242 -8.94961
503 1 15.7248 15.7248 9.43449 -8.94837
382 1 4.71727 20.4415 1.57242 -8.94967
502 1 12.5803 15.7276 9.43294 -8.95233
384 1 7.86211 20.4415 1.57242 -8.94964
501 1 9.43259 15.7279 9.43518 -8.99531
386 1 11.007 20.4415 1.57242 -8.94964
532 1 20.4415 17.2966 11.007 -8.94964
388 1 14.1518 20.4415 1.57242 -8.94964
500 1 6.28553 15.7309 9.43302 -8.9511
390 1 17.2966 20.4415 1.57242 -8.94962
499 1 3.14408 15.7247 9.43458 -8.9496
392 1 20.4415 20.4415 1.57242 -8.94963
393 1 1.57233 11.007 4.71718 -8.94965
394 1 4.71666 11.007 4.71632 -8.948
395 1 7.86285 11.007 4.71626 -8.95087
396 1 11.0084 11.007 4.71051 -8.98805
397 1 14.1547 11.007 4.71417 -8.94602
398 1 17.2972 11.007 4.717 -8.94942
399 1 20.4415 11.007 4.71724 -8.94967
400 1 -2.49509e-06 12.5794 3.14483 -8.94964
401 1 1.57236 14.1518 4.71721 -8.9497
402 1 3.14477 12.5794 3.14475 -8.94952
403 1 4.71679 14.152 4.71649 -8.9508
404 1 6.28948 12.5792 3.14427 -8.95043
405 1 7.86068 14.1534 4.71312 -8.95363
406 1 9.43405 12.5799 3.14347 -8.94864
407 1 11.0063 14.153 4.71464 -8.95084
408 1 12.5803 12.5802 3.14126 -8.95486
409 1 14.1561 14.1562 4.71268 -8.93785
410 1 15.7245 12.5795 3.14451 -8.94935
411 1 17.2972 14.152 4.717 -8.9501
412 1 18.8691 12.5794 3.14481 -8.94959
413 1 20.4415 14.1518 4.71724 -8.94971
414 1 22.0139 15.7242 3.14484 -8.94967
415 1 1.57229 17.2967 4.71717 -8.94935
416 1 3.14478 15.7243 3.14475 -8.94979
417 1 4.71669 17.2972 4.71666 -8.94767
418 1 6.28936 15.7246 3.14413 -8.94984
419 1 7.86215 17.2969 4.71704 -8.94988
420 1 9.43451 15.7246 3.14441 -8.94897
421 1 11.007 17.297 4.71691 -8.94899
422 1 12.5793 15.7244 3.14457 -8.94992
423 1 14.1521 17.2973 4.71693 -8.9499
424 1 15.7248 15.7248 3.14424 -8.9477
425 1 17.2967 17.2967 4.71722 -8.94957
426 1 18.8691 15.7243 3.1448 -8.94964
427 1 20.4415 17.2966 4.71725 -8.94963
428 1 22.0139 18.8691 3.14483 -8.9496
429 1 1.57242 20.4415 4.71726 -8.94965
430 1 3.14479 18.8691 3.14479 -8.9494
431 1 4.71722 20.4416 4.71722 -8.94964
432 1 6.28969 18.8691 3.14482 -8.94979
433 1 7.86211 20.4415 4.71724 -8.94959
434 1 9.43452 18.8691 3.1448 -8.94966
435 1 11.007 20.4415 4.71722 -8.9496
436 1 12.5794 18.8691 3.14481 -8.94957
437 1 14.1518 20.4415 4.71723 -8.94973
438 1 15.7243 18.8691 3.1448 -8.94961
439 1 17.2966 20.4415 4.71726 -8.94963
440 1 18.8691 18.8691 3.14484 -8.94964
441 1 20.4415 20.4415 4.71726 -8.94964
442 1 1.57166 11.007 7.86171 -8.94894
443 1 4.71383 11.007 7.85864 -8.94136
444 1 7.86753 11.007 7.85773 -8.92521
445 1 11.0844 11.007 7.6837 -8.19387
446 1 14.1627 11.007 7.85828 -8.9672
447 1 17.2983 11.007 7.86204 -8.95132
448 1 20.4416 11.007 7.86207 -8.94998
449 1 22.0138 12.5794 6.28962 -8.94965
450 1 1.57143 14.1521 7.86179 -8.95092
451 1 3.14415 12.5794 6.28916 -8.94923
452 1 4.70899 14.1575 7.85655 -8.94042
453 1 6.28724 12.5789 6.28532 -8.95606
454 1 7.83613 14.1774 7.83593 -8.86274
455 1 9.42744 12.59 6.28629 -8.9203
456 1 11.0133 14.1571 7.84999 -8.91854
457 1 12.604 12.6015 6.26446 -8.88574
458 1 14.1571 14.1563 7.85946 -8.9396
459 1 15.7278 12.5803 6.28863 -8.95411
460 1 17.2974 14.1521 7.86204 -8.95022
461 1 18.8694 12.5794 6.28961 -8.95025
462 1 20.4415 14.1518 7.86208 -8.94991
463 1 22.0138 15.7243 6.28962 -8.94973
464 1 1.57236 17.2967 7.86211 -8.94973
465 1 3.14364 15.7251 6.28882 -8.94783
466 1 4.71665 17.2976 7.8617 -8.94965
467 1 6.28522 15.7289 6.28488 -8.93636
468 1 7.86146 17.3003 7.8612 -8.95521
469 1 9.43516 15.7269 6.28827 -8.94938
470 1 11.0072 17.298 7.86162 -8.94984
471 1 12.5809 15.728 6.28797 -8.95327
472 1 14.1522 17.2974 7.86197 -8.94975
473 1 15.7249 15.7249 6.28925 -8.9485
474 1 17.2967 17.2967 7.8621 -8.94967
475 1 18.8691 15.7243 6.28965 -8.94966
476 1 20.4415 17.2966 7.86211 -8.94963
477 1 -2.11628e-06 18.8691 6.28969 -8.94966
478 1 1.57242 20.4415 7.86211 -8.94964
479 1 3.14477 18.8692 6.28963 -8.94969
480 1 4.7172 20.4416 7.86207 -8.94966
481 1 6.28944 18.8697 6.28939 -8.95019
482 1 7.86206 20.4418 7.86203 -8.95042
483 1 9.43464 18.8695 6.28947 -8.94953
484 1 11.007 20.4417 7.86203 -8.94974
485 1 12.5795 18.8695 6.28955 -8.95038
486 1 14.1518 20.4416 7.86209 -8.9497
487 1 15.7243 18.8692 6.28966 -8.94961
488 1 17.2966 20.4415 7.86211 -8.94963
489 1 18.8691 18.8691 6.28969 -8.94965
490 1 20.4415 20.4415 7.86211 -8.94963
491 1 22.0134 12.5794 9.43448 -8.95068
492 1 3.13998 12.58 9.4337 -8.95692
493 1 6.25519 12.6079 9.40705 -8.88294
494 1 9.34488 12.7882 9.44023 -7.99538
495 1 12.5916 12.5987 9.40884 -8.8302
496 1 15.727 12.5802 9.43434 -8.95027
497 1 18.8694 12.5795 9.43453 -8.94996
498 1 -7.90924e-05 15.7243 9.43454 -8.94964
513 1 4.71255 11.007 11.0057 -8.99385
514 1 7.64454 11.007 10.9156 -8.0029
531 1 17.2967 17.2967 11.0069 -8.9496
526 1 1.57232 17.2967 11.0069 -8.94959
527 1 4.71661 17.2973 11.007 -8.9488
389 1 15.7242 18.8691 6.61746e-06 -8.94965
365 1 22.0139 15.7242 1.68892e-07 -8.94963
377 1 18.8691 15.7242 -4.91778e-07 -8.94966
512 1 1.57105 11.007 11.0072 -8.94969
687 3 9.4507 11.007 11.7287 2.29768
686 1 20.4415 20.4415 20.4415 -8.94963
515 1 11.3386 11.007 11.1015 -7.20355
516 1 14.1579 11.007 11.0096 -9.01677
517 1 17.2979 11.007 11.0069 -8.94992
518 1 20.4415 11.007 11.007 -8.94998
519 1 1.57166 14.152 11.0071 -8.95034
520 1 4.71123 14.1539 11.0086 -8.95561
521 1 7.82545 14.1788 11.0246 -8.83377
522 1 11.0268 14.1581 11.0092 -8.88669
523 1 14.1559 14.1538 11.006 -8.95344
524 1 17.2974 14.1522 11.0069 -8.9496
525 1 20.4415 14.1518 11.007 -8.94981
391 1 18.8691 18.8691 22.0139 -8.94961
385 1 9.43453 18.8691 22.0139 -8.94964
528 1 7.8609 17.3011 11.0073 -8.95439
529 1 11.0077 17.2989 11.0068 -8.94872
530 1 14.1523 17.2973 11.0067 -8.94903
685 1 18.8691 18.8691 18.8691 -8.94959
684 1 17.2966 20.4415 20.4415 -8.94962
533 1 1.57242 20.4415 11.007 -8.94965
683 1 15.7243 18.8691 18.8691 -8.94943
535 1 7.86199 20.442 11.0069 -8.95046
536 1 11.0071 20.4418 11.0069 -8.94977
537 1 14.1519 20.4416 11.0069 -8.94962
682 1 14.1518 20.4415 20.4415 -8.94966
539 1 20.4415 20.4415 11.007 -8.94964
540 1 1.57226 11.007 14.1519 -8.94916
541 1 4.71726 11.007 14.1516 -8.94797
542 1 7.86681 11.007 14.1404 -8.91232
543 1 11.0053 11.007 14.1596 -8.96375
544 1 14.1549 11.007 14.1551 -8.9447
545 1 17.2974 11.007 14.1522 -8.94901
546 1 20.4415 11.007 14.1518 -8.94968
547 1 22.0137 12.5794 12.5795 -8.94979
548 1 1.57196 14.1519 14.1519 -8.95035
549 1 3.14332 12.5796 12.58 -8.9493
550 1 4.71342 14.1533 14.1536 -8.95316
551 1 6.28439 12.5893 12.5886 -8.9128
552 1 7.83912 14.1753 14.1791 -8.88161
553 1 9.43737 12.7735 12.6562 -8.13351
554 1 11.0286 14.1763 14.1794 -8.86931
555 1 12.6121 12.6216 12.6216 -8.8001
556 1 14.1613 14.1592 14.1591 -8.93388
557 1 15.7288 12.5802 12.5804 -8.95621
558 1 17.2977 14.1521 14.1521 -8.95129
559 1 18.8695 12.5794 12.5794 -8.9506
560 1 20.4415 14.1518 14.1518 -8.94991
561 1 -9.90293e-05 15.7243 12.5794 -8.9497
562 1 1.57231 17.2967 14.1518 -8.94956
563 1 3.14386 15.7248 12.5797 -8.94938
564 1 4.71651 17.2974 14.1523 -8.94782
565 1 6.28422 15.7309 12.5833 -8.93737
566 1 7.8614 17.3001 14.1528 -8.95474
567 1 9.43535 15.7311 12.5818 -8.9906
568 1 11.0077 17.3004 14.153 -8.95392
569 1 12.582 15.7312 12.5804 -8.9563
570 1 14.1524 17.2977 14.1521 -8.95032
571 1 15.7249 15.7247 12.5793 -8.94952
572 1 17.2967 17.2967 14.1518 -8.94975
573 1 18.8692 15.7243 12.5794 -8.94957
574 1 20.4415 17.2966 14.1518 -8.94963
575 1 22.0139 18.8691 12.5794 -8.94964
576 1 1.57242 20.4415 14.1518 -8.94966
577 1 3.14478 18.8691 12.5794 -8.94972
578 1 4.7172 20.4416 14.1518 -8.9496
579 1 6.28926 18.87 12.5795 -8.95013
580 1 7.86206 20.4418 14.1519 -8.95031
581 1 9.43464 18.8706 12.5794 -8.95024
582 1 11.007 20.4419 14.1519 -8.95034
583 1 12.5797 18.8699 12.5794 -8.95064
584 1 14.1518 20.4416 14.1518 -8.94972
585 1 15.7243 18.8691 12.5794 -8.94965
586 1 17.2966 20.4415 14.1518 -8.94964
587 1 18.8691 18.8691 12.5794 -8.94964
588 1 20.4415 20.4415 14.1518 -8.94964
589 1 1.57235 11.007 17.2967 -8.94963
590 1 4.71677 11.007 17.297 -8.94832
591 1 7.86136 11.007 17.2971 -8.94305
592 1 11.0074 11.007 17.2994 -8.94798
593 1 14.1526 11.007 17.2977 -8.94804
594 1 17.2967 11.007 17.2967 -8.94966
595 1 20.4415 11.007 17.2966 -8.94965
596 1 22.0139 12.5794 15.7242 -8.94963
597 1 1.5724 14.1518 17.2967 -8.94966
598 1 3.14462 12.5792 15.7244 -8.94964
599 1 4.71707 14.1517 17.2969 -8.95037
600 1 6.28893 12.5779 15.7259 -8.95155
601 1 7.86103 14.1529 17.3006 -8.95454
602 1 9.43359 12.5829 15.7347 -8.96757
603 1 11.0077 14.153 17.3006 -8.95427
604 1 12.5814 12.5795 15.7308 -8.95634
605 1 14.1523 14.1521 17.2976 -8.95076
606 1 15.7249 12.5793 15.7248 -8.94922
607 1 17.2967 14.1518 17.2967 -8.94973
608 1 18.8692 12.5794 15.7243 -8.94956
609 1 20.4415 14.1518 17.2966 -8.94963
610 1 22.0138 15.7242 15.7242 -8.94973
611 1 1.57234 17.2967 17.2967 -8.94961
612 1 3.14417 15.7245 15.7246 -8.94991
613 1 4.71667 17.2972 17.2973 -8.94766
614 1 6.28518 15.7286 15.729 -8.93766
615 1 7.86201 17.297 17.297 -8.94933
616 1 9.43442 15.7274 15.7273 -8.94597
617 1 11.007 17.297 17.297 -8.94943
618 1 12.5836 15.7287 15.7287 -8.93746
619 1 14.1523 17.2972 17.2972 -8.94785
620 1 15.7256 15.7253 15.7253 -8.94693
621 1 17.2968 17.2968 17.2968 -8.94925
622 1 18.8692 15.7243 15.7243 -8.94977
623 1 20.4415 17.2966 17.2966 -8.94964
624 1 -8.12956e-06 18.8691 15.7242 -8.94963
625 1 1.57242 20.4415 17.2966 -8.94964
626 1 3.14477 18.8691 15.7243 -8.94952
627 1 4.71722 20.4415 17.2967 -8.94966
628 1 6.28943 18.8696 15.7245 -8.95025
629 1 7.8621 20.4415 17.2967 -8.94958
630 1 9.43451 18.8696 15.7245 -8.94937
631 1 11.007 20.4415 17.2967 -8.94958
632 1 12.5796 18.8697 15.7245 -8.95004
633 1 14.1518 20.4416 17.2967 -8.94963
634 1 15.7243 18.8692 15.7243 -8.94975
635 1 17.2966 20.4415 17.2966 -8.94965
636 1 18.8691 18.8691 15.7242 -8.94967
637 1 20.4415 20.4415 17.2966 -8.94964
638 1 1.57242 11.007 20.4415 -8.94965
639 1 4.71721 11.007 20.4415 -8.94961
640 1 7.86198 11.007 20.4417 -8.94922
641 1 11.007 11.007 20.4418 -8.95001
642 1 14.1519 11.007 20.4416 -8.94968
643 1 17.2966 11.007 20.4415 -8.94965
644 1 20.4415 11.007 20.4415 -8.94964
645 1 -5.0238e-06 12.5794 18.8691 -8.94963
646 1 1.57242 14.1518 20.4415 -8.94963
647 1 3.1448 12.5794 18.8691 -8.94956
648 1 4.71724 14.1518 20.4415 -8.94962
649 1 6.28948 12.5793 18.8694 -8.94954
650 1 7.86203 14.1519 20.4418 -8.95049
651 1 9.43442 12.5793 18.8706 -8.95165
652 1 11.007 14.1519 20.4418 -8.95043
653 1 12.5797 12.5794 18.8699 -8.9505
654 1 14.1519 14.1518 20.4415 -8.94981
655 1 15.7243 12.5794 18.8692 -8.94951
656 1 17.2966 14.1518 20.4415 -8.94962
657 1 18.8691 12.5794 18.8691 -8.94964
658 1 20.4415 14.1518 20.4415 -8.94963
659 1 22.0139 15.7242 18.8691 -8.94964
660 1 1.57242 17.2966 20.4415 -8.94966
661 1 3.14482 15.7242 18.8691 -8.9498
662 1 4.71721 17.2967 20.4416 -8.94962
663 1 6.28938 15.7245 18.8697 -8.95004
664 1 7.8621 17.2967 20.4415 -8.94958
665 1 9.43452 15.7245 18.8696 -8.94929
666 1 11.007 17.2967 20.4415 -8.94959
667 1 12.5796 15.7245 18.8697 -8.94999
668 1 14.1518 17.2967 20.4416 -8.94963
669 1 15.7243 15.7243 18.8692 -8.94978
670 1 17.2966 17.2966 20.4415 -8.94964
671 1 18.8691 15.7242 18.8691 -8.94967
672 1 20.4415 17.2966 20.4415 -8.94964
673 1 22.0139 18.8691 18.8691 -8.94962
674 1 1.57242 20.4415 20.4415 -8.9496
675 1 3.14478 18.8691 18.8691 -8.94938
676 1 4.71727 20.4415 20.4415 -8.94966
677 1 6.28968 18.8691 18.8691 -8.94971
678 1 7.86211 20.4415 20.4415 -8.94965
679 1 9.43453 18.8691 18.8691 -8.9497
680 1 11.007 20.4415 20.4415 -8.94965
681 1 12.5794 18.8691 18.8691 -8.94972
351 1 22.0139 12.5794 22.0139 -8.94964
353 1 3.14483 12.5794 22.0139 -8.94962
357 1 9.43446 12.5794 22.0138 -8.94997
359 1 12.5795 12.5794 22.0136 -8.95046
383 1 6.28969 18.8691 22.0139 -8.94963
367 1 3.14484 15.7242 22.0139 -8.94965
369 1 6.28964 15.7243 22.0139 -8.94981
375 1 15.7243 15.7243 22.0138 -8.94964
381 1 3.14483 18.8691 22.0139 -8.94961
363 1 18.8691 12.5794 22.0139 -8.94965
379 1 22.0139 18.8691 22.0139 -8.94964
387 1 12.5794 18.8691 22.0139 -8.94963
