ITEM: TIMESTEP
54
ITEM: NUMBER OF ATOMS
688
ITEM: BOX BOUNDS pp pp pp
0.0000000000000000e+00 2.2013900999999997e+01
0.0000000000000000e+00 2.2013900999999997e+01
0.0000000000000000e+00 2.2013900999999997e+01
ITEM: ATOMS id type x y z c_pot
1 1 22.0139 1.15466e-15 3.35259e-08 -8.94963
2 1 1.57242 1.57242 1.57242 -8.94962
189 1 20.4415 4.71726 11.007 -8.94964
4 1 4.71727 1.57242 1.57242 -8.94965
5 1 6.28969 1.77693e-15 -6.44236e-08 -8.94963
6 1 7.86211 1.57242 1.57242 -8.94963
175 1 18.8693 9.43446 9.43453 -8.94994
8 1 11.007 1.57242 1.57242 -8.94964
9 1 12.5794 -5.28117e-16 1.49469e-08 -8.94963
10 1 14.1518 1.57242 1.57242 -8.94964
174 1 15.7264 9.43383 9.43442 -8.95052
12 1 17.2966 1.57242 1.57242 -8.94963
188 1 17.2967 4.71724 11.0069 -8.94966
14 1 20.4415 1.57242 1.57242 -8.94963
181 1 17.2966 1.57242 11.007 -8.94963
16 1 1.57242 4.71726 1.57242 -8.94964
173 1 12.591 9.41745 9.4143 -8.83886
18 1 4.71724 4.71724 1.57239 -8.94961
172 1 9.34849 9.23783 9.43628 -7.99209
20 1 7.86211 4.71725 1.57241 -8.94961
171 1 6.26081 9.41164 9.41251 -8.8885
22 1 11.007 4.71725 1.57241 -8.94965
177 1 4.71724 1.57239 11.007 -8.9496
24 1 14.1518 4.71726 1.57242 -8.94975
170 1 3.14149 9.434 9.43389 -8.95546
26 1 17.2967 4.71724 1.5724 -8.9495
169 1 22.0136 9.43449 9.43449 -8.95035
28 1 20.4415 4.71726 1.57242 -8.94963
168 1 18.8691 6.28966 9.43453 -8.94958
30 1 1.57242 7.86211 1.57242 -8.94963
167 1 15.7245 6.2894 9.43452 -8.94889
32 1 4.71725 7.86211 1.57239 -8.9497
166 1 12.58 6.28731 9.43353 -8.95235
34 1 7.86202 7.86202 1.57216 -8.95012
35 1 9.43453 6.28966 1.69134e-06 -8.94964
36 1 11.0069 7.86202 1.57223 -8.94966
37 1 12.5794 6.28967 1.56299e-05 -8.94967
38 1 14.152 7.86195 1.57208 -8.9499
165 1 9.43329 6.28418 9.43491 -8.99111
40 1 17.2966 7.86211 1.57242 -8.94971
164 1 6.28709 6.28539 9.43356 -8.95141
42 1 20.4415 7.86211 1.57242 -8.94963
163 1 3.14451 6.28948 9.43457 -8.94981
162 1 -2.50165e-05 6.28967 9.43453 -8.94964
45 1 6.28967 9.43453 -1.82935e-06 -8.9497
161 1 18.8691 3.14484 9.43453 -8.94964
160 1 15.7242 3.1448 9.43453 -8.94958
48 1 15.7242 9.43453 -1.17486e-05 -8.94961
159 1 12.5795 3.14454 9.43445 -8.9498
50 1 22.0139 2.92262e-16 3.14484 -8.94963
51 1 1.57242 1.57242 4.71726 -8.94964
52 1 3.14484 5.89407e-16 3.14484 -8.94962
53 1 4.71724 1.57239 4.71724 -8.94963
54 1 6.28969 1.27522e-15 3.14484 -8.94964
55 1 7.86211 1.57241 4.71726 -8.94961
56 1 9.43453 -9.48094e-17 3.14484 -8.94964
57 1 11.007 1.5724 4.71725 -8.94962
58 1 12.5794 9.64044e-16 3.14484 -8.94963
59 1 14.1518 1.57239 4.71725 -8.94967
60 1 15.7242 7.21659e-17 3.14484 -8.94963
61 1 17.2966 1.57242 4.71726 -8.94963
62 1 18.8691 -9.11675e-16 3.14484 -8.94963
63 1 20.4415 1.57242 4.71726 -8.94964
64 1 22.0139 3.14484 3.14484 -8.94962
65 1 1.57237 4.71722 4.71723 -8.94949
66 1 3.14482 3.14482 3.14482 -8.94951
67 1 4.71698 4.71697 4.71696 -8.94836
68 1 6.28969 3.14484 3.14484 -8.94975
69 1 7.86214 4.71718 4.71719 -8.95002
70 1 9.43452 3.14483 3.14483 -8.94966
71 1 11.007 4.71708 4.71709 -8.94929
72 1 12.5794 3.14483 3.14483 -8.94962
73 1 14.152 4.71692 4.71709 -8.94979
74 1 15.7242 3.14481 3.14482 -8.94962
75 1 17.2967 4.71724 4.71725 -8.94962
76 1 18.8691 3.14484 3.14484 -8.94964
77 1 20.4415 4.71726 4.71726 -8.94963
78 1 22.0139 6.28969 3.14484 -8.94965
79 1 1.5724 7.86211 4.71725 -8.9497
80 1 3.14482 6.28967 3.14481 -8.94973
81 1 4.71703 7.86198 4.71687 -8.95041
82 1 6.28952 6.28951 3.14448 -8.94975
83 1 7.86116 7.86107 4.71452 -8.95282
84 1 9.43453 6.2895 3.14464 -8.94925
85 1 11.0065 7.86138 4.71562 -8.95099
86 1 12.5793 6.28961 3.14475 -8.94999
87 1 14.1547 7.8592 4.71427 -8.93977
88 1 15.7245 6.28939 3.14454 -8.94835
89 1 17.2969 7.86198 4.71713 -8.94994
90 1 18.8691 6.28967 3.14483 -8.94964
91 1 20.4415 7.8621 4.71726 -8.94968
92 1 -4.62511e-08 9.43453 3.14484 -8.94964
93 1 3.14482 9.43453 3.14481 -8.9496
94 1 6.28956 9.43459 3.14453 -8.95023
95 1 9.43407 9.43405 3.14379 -8.94871
96 1 12.5801 9.43387 3.14238 -8.95356
97 1 15.7243 9.4345 3.14472 -8.94963
98 1 18.8691 9.43453 3.14483 -8.94961
99 1 22.0139 1.19769e-15 6.28969 -8.94963
100 1 1.57242 1.57242 7.86211 -8.94964
101 1 3.14484 1.20729e-15 6.28968 -8.94964
102 1 4.71724 1.57238 7.86209 -8.94964
103 1 6.28967 2.56799e-16 6.28967 -8.94973
104 1 7.86207 1.57222 7.86206 -8.95016
105 1 9.43453 5.91449e-16 6.28967 -8.94967
106 1 11.007 1.5723 7.86206 -8.94973
107 1 12.5794 8.66798e-16 6.28967 -8.94971
108 1 14.1518 1.57239 7.8621 -8.94967
109 1 15.7242 -1.06896e-15 6.28968 -8.94964
110 1 17.2966 1.57242 7.86211 -8.94963
111 1 18.8691 6.25389e-16 6.28969 -8.94963
112 1 20.4415 1.57242 7.86211 -8.94963
113 1 6.36097e-07 3.14484 6.28969 -8.94965
114 1 1.57241 4.71725 7.86211 -8.94972
115 1 3.14482 3.14481 6.28967 -8.94969
116 1 4.71698 4.7168 7.86191 -8.94981
117 1 6.28954 3.14451 6.28952 -8.94993
118 1 7.86156 4.71478 7.86141 -8.95391
119 1 9.43459 3.14463 6.28958 -8.94954
120 1 11.0073 4.71621 7.86164 -8.9495
121 1 12.5794 3.14459 6.2896 -8.95008
122 1 14.152 4.71684 7.86204 -8.94978
123 1 15.7242 3.14481 6.28967 -8.94963
124 1 17.2967 4.71725 7.86211 -8.9497
125 1 18.8691 3.14484 6.28969 -8.94965
126 1 20.4415 4.71726 7.86211 -8.94963
127 1 22.0138 6.28966 6.28966 -8.94967
128 1 1.5719 7.86192 7.86193 -8.95041
129 1 3.14423 6.28925 6.28925 -8.94848
130 1 4.71187 7.85842 7.85851 -8.94226
131 1 6.28676 6.28669 6.2866 -8.93881
132 1 7.84061 7.84104 7.8403 -8.86768
133 1 9.43502 6.28804 6.28888 -8.95013
134 1 11.0126 7.85762 7.85267 -8.92157
135 1 12.5804 6.28717 6.28861 -8.95257
136 1 14.1555 7.85899 7.8603 -8.94122
137 1 15.7246 6.28936 6.28945 -8.94894
138 1 17.2971 7.86191 7.86205 -8.95
139 1 18.8691 6.28966 6.28967 -8.94963
140 1 20.4415 7.86208 7.86209 -8.94978
141 1 22.0139 9.43453 6.28966 -8.94965
142 1 3.14451 9.43453 6.28944 -8.94958
143 1 6.28787 9.43466 6.28664 -8.95425
144 1 9.42859 9.42611 6.28624 -8.92367
145 1 12.5998 9.41564 6.26905 -8.88519
146 1 15.7266 9.43394 6.28903 -8.9534
147 1 18.8693 9.4345 6.28965 -8.95006
148 1 2.19149e-08 1.55669e-15 9.43453 -8.94963
149 1 3.14484 1.66114e-15 9.43453 -8.94964
150 1 6.28966 7.17797e-16 9.43452 -8.94974
151 1 9.43454 6.9509e-16 9.43452 -8.95003
152 1 12.5794 9.64616e-17 9.43452 -8.94969
153 1 15.7242 -5.89965e-16 9.43453 -8.94964
154 1 18.8691 5.77679e-16 9.43453 -8.94963
155 1 22.0139 3.14484 9.43453 -8.94964
156 1 3.14482 3.14483 9.43453 -8.94967
157 1 6.28947 3.14433 9.43445 -8.94984
158 1 9.4346 3.14383 9.4345 -8.95053
183 1 1.57239 4.71724 11.0069 -8.94963
184 1 4.71696 4.71696 11.007 -8.94932
11 1 15.7242 1.34755e-15 5.87394e-08 -8.94964
25 1 15.7242 3.14484 2.84851e-06 -8.94965
29 1 22.0139 6.28969 1.6333e-07 -8.94963
41 1 18.8691 6.28969 5.09447e-07 -8.94965
176 1 1.57242 1.57242 11.007 -8.94964
343 1 18.8691 9.43453 18.8691 -8.94964
178 1 7.86203 1.57212 11.0069 -8.9502
179 1 11.007 1.5722 11.0069 -8.94976
180 1 14.1518 1.57239 11.0069 -8.94964
342 1 15.7242 9.43452 18.8691 -8.9496
182 1 20.4415 1.57242 11.007 -8.94963
47 1 12.5794 9.43448 22.0137 -8.95017
46 1 9.43448 9.43449 22.0139 -8.9499
185 1 7.86106 4.71402 11.0071 -8.95286
186 1 11.0078 4.71546 11.0069 -8.94828
187 1 14.1521 4.71694 11.0068 -8.9494
341 1 12.5795 9.4345 18.8695 -8.95019
340 1 9.43447 9.43455 18.8701 -8.95158
190 1 1.57204 7.86199 11.007 -8.95007
191 1 4.71339 7.86082 11.0081 -8.95485
192 1 7.83272 7.83958 11.0213 -8.84423
193 1 11.0224 7.85643 11.0084 -8.8946
194 1 14.1546 7.8606 11.0065 -8.95272
195 1 17.2971 7.8619 11.007 -8.94957
196 1 20.4415 7.86209 11.007 -8.94973
197 1 3.19382e-08 -4.72943e-17 12.5794 -8.94963
198 1 1.57242 1.57242 14.1518 -8.94965
199 1 3.14484 7.30466e-16 12.5794 -8.94964
200 1 4.71724 1.57238 14.1518 -8.94961
201 1 6.28966 1.67527e-16 12.5794 -8.94976
202 1 7.86207 1.57222 14.1518 -8.9501
203 1 9.43453 2.85046e-16 12.5794 -8.95009
204 1 11.007 1.57221 14.1518 -8.95011
205 1 12.5794 1.80768e-15 12.5794 -8.94975
206 1 14.1518 1.57238 14.1518 -8.94967
207 1 15.7242 4.20343e-16 12.5794 -8.94964
208 1 17.2966 1.57242 14.1518 -8.94964
209 1 18.8691 4.63984e-16 12.5794 -8.94963
210 1 20.4415 1.57242 14.1518 -8.94963
211 1 22.0139 3.14484 12.5794 -8.94964
212 1 1.57238 4.71724 14.1518 -8.9496
213 1 3.14483 3.14482 12.5794 -8.94973
214 1 4.71691 4.7169 14.152 -8.94865
215 1 6.28945 3.14434 12.5795 -8.94987
216 1 7.86152 4.71492 14.1525 -8.95366
217 1 9.43459 3.14366 12.5794 -8.95093
218 1 11.0076 4.71477 14.1526 -8.95295
219 1 12.5795 3.14438 12.5794 -8.9502
220 1 14.152 4.71678 14.1519 -8.95024
221 1 15.7242 3.14482 12.5794 -8.94966
222 1 17.2967 4.71725 14.1518 -8.94972
223 1 18.8691 3.14484 12.5794 -8.94964
224 1 20.4415 4.71726 14.1518 -8.94963
225 1 -3.76196e-05 6.28966 12.5794 -8.94967
226 1 1.57216 7.86203 14.1519 -8.95005
227 1 3.14435 6.28938 12.5795 -8.94951
228 1 4.7147 7.86113 14.1529 -8.95258
229 1 6.28619 6.28536 12.5819 -8.94012
230 1 7.84264 7.84256 14.1741 -8.88336
231 1 9.43511 6.28204 12.5809 -8.98775
232 1 11.0254 7.84217 14.1739 -8.87387
233 1 12.581 6.28514 12.5799 -8.95554
234 1 14.158 7.85734 14.1565 -8.93702
235 1 15.7245 6.28944 12.5793 -8.94966
236 1 17.2972 7.86193 14.152 -8.95069
237 1 18.8691 6.28966 12.5794 -8.94959
238 1 20.4415 7.86209 14.1518 -8.94978
239 1 22.0138 9.43449 12.5794 -8.94975
240 1 3.14372 9.43417 12.5799 -8.94908
241 1 6.28521 9.42661 12.5868 -8.91766
242 1 9.43663 9.24931 12.6555 -8.11364
243 1 12.6068 9.39973 12.6137 -8.80774
244 1 15.7273 9.43393 12.58 -8.95519
245 1 18.8693 9.4345 12.5794 -8.9503
246 1 22.0139 -8.74816e-17 15.7242 -8.94963
247 1 1.57242 1.57242 17.2966 -8.94964
248 1 3.14484 5.92431e-16 15.7242 -8.94963
249 1 4.71725 1.57239 17.2967 -8.94964
250 1 6.28967 -8.92891e-16 15.7242 -8.94973
251 1 7.86211 1.57241 17.2966 -8.94961
252 1 9.43453 6.46444e-18 15.7242 -8.94967
253 1 11.007 1.57241 17.2966 -8.94961
254 1 12.5794 7.97306e-16 15.7242 -8.94972
255 1 14.1518 1.57239 17.2967 -8.94962
256 1 15.7242 8.49436e-16 15.7242 -8.94964
257 1 17.2966 1.57242 17.2966 -8.94964
258 1 18.8691 1.59526e-16 15.7242 -8.94963
259 1 20.4415 1.57242 17.2966 -8.94963
260 1 -1.84068e-06 3.14484 15.7242 -8.94963
261 1 1.57239 4.71725 17.2967 -8.94962
262 1 3.14482 3.14482 15.7242 -8.94961
263 1 4.71696 4.71696 17.2969 -8.94833
264 1 6.28954 3.14452 15.7244 -8.94999
265 1 7.86208 4.71713 17.2968 -8.94964
266 1 9.43452 3.14457 15.7244 -8.94945
267 1 11.007 4.71713 17.2968 -8.9497
268 1 12.5795 3.14451 15.7244 -8.94985
269 1 14.1521 4.71698 17.2969 -8.94848
270 1 15.7242 3.1448 15.7242 -8.94972
271 1 17.2967 4.71722 17.2967 -8.94944
272 1 18.8691 3.14484 15.7242 -8.94965
273 1 20.4415 4.71726 17.2966 -8.94963
274 1 22.0139 6.28967 15.7242 -8.94967
275 1 1.57241 7.86211 17.2966 -8.94966
276 1 3.14449 6.28952 15.7244 -8.94981
277 1 4.71718 7.86213 17.2967 -8.95014
278 1 6.28672 6.28679 15.7273 -8.93961
279 1 7.86139 7.86135 17.2992 -8.95349
280 1 9.43451 6.28775 15.726 -8.94762
281 1 11.0075 7.86136 17.2992 -8.95331
282 1 12.5821 6.28684 15.7271 -8.93985
283 1 14.1521 7.86193 17.2971 -8.95037
284 1 15.7249 6.28915 15.7248 -8.94793
285 1 17.2967 7.86211 17.2966 -8.94973
286 1 18.8691 6.28966 15.7242 -8.94969
287 1 20.4415 7.86211 17.2966 -8.94963
288 1 22.0139 9.43453 15.7242 -8.94964
289 1 3.14472 9.43462 15.7243 -8.94974
290 1 6.28899 9.43534 15.7255 -8.9506
291 1 9.43382 9.43187 15.7337 -8.96651
292 1 12.5809 9.43429 15.7287 -8.95449
293 1 15.7245 9.43455 15.7245 -8.9496
294 1 18.8691 9.43453 15.7242 -8.9496
295 1 -2.85207e-08 1.99974e-16 18.8691 -8.94963
296 1 1.57242 1.57242 20.4415 -8.94962
297 1 3.14484 7.72679e-16 18.8691 -8.94962
298 1 4.71727 1.57242 20.4415 -8.94965
299 1 6.28969 1.1799e-15 18.8691 -8.94963
300 1 7.86211 1.57242 20.4415 -8.94964
301 1 9.43453 6.7227e-16 18.8691 -8.94964
302 1 11.007 1.57242 20.4415 -8.94964
303 1 12.5794 9.13542e-16 18.8691 -8.94964
304 1 14.1518 1.57242 20.4415 -8.94965
305 1 15.7242 3.64837e-16 18.8691 -8.94962
306 1 17.2966 1.57242 20.4415 -8.94963
307 1 18.8691 8.78381e-16 18.8691 -8.94963
308 1 20.4415 1.57242 20.4415 -8.94963
309 1 22.0139 3.14484 18.8691 -8.94963
310 1 1.57242 4.71726 20.4415 -8.94965
311 1 3.14482 3.14482 18.8691 -8.9495
312 1 4.71724 4.71724 20.4415 -8.94962
313 1 6.28969 3.14484 18.8691 -8.94971
314 1 7.86211 4.71725 20.4415 -8.94961
315 1 9.43453 3.14484 18.8691 -8.94969
316 1 11.007 4.71725 20.4415 -8.94962
317 1 12.5794 3.14484 18.8691 -8.94971
318 1 14.1518 4.71725 20.4415 -8.94963
319 1 15.7242 3.14482 18.8691 -8.94953
320 1 17.2966 4.71726 20.4415 -8.94963
321 1 18.8691 3.14484 18.8691 -8.94961
322 1 20.4415 4.71726 20.4415 -8.94964
323 1 22.0139 6.28969 18.8691 -8.94964
324 1 1.57242 7.86211 20.4415 -8.94963
325 1 3.14484 6.28969 18.8691 -8.94974
326 1 4.71725 7.86211 20.4415 -8.94963
327 1 6.28953 6.28953 18.8694 -8.94987
328 1 7.86207 7.86206 20.4417 -8.95019
329 1 9.43453 6.28955 18.8693 -8.94942
330 1 11.007 7.86207 20.4417 -8.95015
331 1 12.5795 6.28954 18.8694 -8.94985
332 1 14.1518 7.86209 20.4415 -8.94972
333 1 15.7242 6.28966 18.8691 -8.94972
334 1 17.2966 7.86211 20.4415 -8.94963
335 1 18.8691 6.28969 18.8691 -8.94965
336 1 20.4415 7.86211 20.4415 -8.94963
337 1 -1.09323e-06 9.43453 18.8691 -8.94963
338 1 3.14483 9.43453 18.8691 -8.94962
339 1 6.28957 9.43456 18.8693 -8.94959
7 1 9.43453 1.66424e-15 22.0139 -8.94963
44 1 3.14484 9.43453 22.0139 -8.94963
17 1 3.14484 3.14484 22.0139 -8.94962
19 1 6.28969 3.14484 22.0139 -8.94964
21 1 9.43453 3.14484 22.0139 -8.94964
43 1 22.0139 9.43453 22.0139 -8.94963
27 1 18.8691 3.14484 22.0139 -8.94962
39 1 15.7242 6.28966 22.0139 -8.94962
31 1 3.14484 6.28969 22.0139 -8.94964
33 1 6.28967 6.28966 22.0139 -8.94972
3 1 3.14484 1.83442e-15 22.0139 -8.94964
13 1 18.8691 1.35085e-16 22.0139 -8.94963
15 1 22.0139 3.14484 22.0139 -8.94963
23 1 12.5794 3.14484 22.0139 -8.94963
49 1 18.8691 9.43453 22.0139 -8.94964
344 1 1.57242 11.007 1.57242 -8.94964
345 1 4.71724 11.007 1.57237 -8.94962
346 1 7.86208 11.007 1.5723 -8.94963
347 1 11.0069 11.007 1.57134 -8.95132
348 1 14.1519 11.007 1.57216 -8.94943
349 1 17.2966 11.007 1.57242 -8.94969
350 1 20.4415 11.007 1.57242 -8.94964
688 3 10.2011 11.007 9.46826 2.42864
352 1 1.57242 14.1518 1.57242 -8.94963
511 1 18.8691 18.8691 9.43453 -8.94964
354 1 4.71725 14.1518 1.57239 -8.9497
355 1 6.28967 12.5794 -1.82935e-06 -8.9497
356 1 7.86202 14.1519 1.57216 -8.95012
510 1 15.7242 18.8691 9.43453 -8.94958
358 1 11.0069 14.1519 1.57223 -8.94966
509 1 12.5795 18.8694 9.43445 -8.9498
360 1 14.152 14.152 1.57208 -8.9499
361 1 15.7242 12.5794 -1.17486e-05 -8.94961
362 1 17.2966 14.1518 1.57242 -8.94971
538 1 17.2966 20.4415 11.007 -8.94963
364 1 20.4415 14.1518 1.57242 -8.94963
508 1 9.4346 18.8701 9.4345 -8.95053
366 1 1.57242 17.2966 1.57242 -8.94964
507 1 6.28947 18.8696 9.43445 -8.94984
368 1 4.71724 17.2967 1.57239 -8.94961
506 1 3.14482 18.8691 9.43453 -8.94967
370 1 7.86211 17.2966 1.57241 -8.94961
371 1 9.43453 15.7242 1.69134e-06 -8.94964
372 1 11.007 17.2966 1.57241 -8.94965
373 1 12.5794 15.7242 1.56299e-05 -8.94967
374 1 14.1518 17.2966 1.57242 -8.94975
505 1 22.0139 18.8691 9.43453 -8.94964
376 1 17.2967 17.2967 1.5724 -8.9495
504 1 18.8691 15.7242 9.43453 -8.94958
378 1 20.4415 17.2966 1.57242 -8.94963
534 1 4.71724 20.4415 11.007 -8.9496
380 1 1.57242 20.4415 1.57242 -8.94962
503 1 15.7245 15.7245 9.43452 -8.94889
382 1 4.71727 20.4415 1.57242 -8.94965
502 1 12.58 15.7266 9.43353 -8.95235
384 1 7.86211 20.4415 1.57242 -8.94963
501 1 9.43329 15.7297 9.43491 -8.99111
386 1 11.007 20.4415 1.57242 -8.94964
532 1 20.4415 17.2966 11.007 -8.94964
388 1 14.1518 20.4415 1.57242 -8.94964
500 1 6.28709 15.7285 9.43356 -8.95141
390 1 17.2966 20.4415 1.57242 -8.94963
499 1 3.14451 15.7244 9.43457 -8.94981
392 1 20.4415 20.4415 1.57242 -8.94963
393 1 1.57239 11.007 4.71724 -8.94966
394 1 4.71697 11.007 4.71679 -8.94856
395 1 7.86252 11.007 4.71635 -8.95165
396 1 11.008 11.007 4.70965 -8.98583
397 1 14.1535 11.007 4.71538 -8.94755
398 1 17.2969 11.007 4.71714 -8.9495
399 1 20.4415 11.007 4.71726 -8.94965
400 1 -4.62511e-08 12.5794 3.14484 -8.94964
401 1 1.5724 14.1518 4.71725 -8.9497
402 1 3.14482 12.5794 3.14481 -8.9496
403 1 4.71703 14.1519 4.71687 -8.95041
404 1 6.28956 12.5793 3.14453 -8.95023
405 1 7.86116 14.1528 4.71452 -8.95282
406 1 9.43407 12.5799 3.14379 -8.94871
407 1 11.0065 14.1525 4.71562 -8.95099
408 1 12.5801 12.58 3.14238 -8.95356
409 1 14.1547 14.1547 4.71427 -8.93977
410 1 15.7243 12.5794 3.14472 -8.94963
411 1 17.2969 14.1519 4.71713 -8.94994
412 1 18.8691 12.5794 3.14483 -8.94961
413 1 20.4415 14.1518 4.71726 -8.94968
414 1 22.0139 15.7242 3.14484 -8.94965
415 1 1.57237 17.2967 4.71723 -8.94949
416 1 3.14482 15.7242 3.14481 -8.94973
417 1 4.71698 17.2969 4.71696 -8.94836
418 1 6.28952 15.7244 3.14448 -8.94975
419 1 7.86214 17.2967 4.71719 -8.95002
420 1 9.43453 15.7244 3.14464 -8.94925
421 1 11.007 17.2968 4.71709 -8.94929
422 1 12.5793 15.7243 3.14475 -8.94999
423 1 14.152 17.297 4.71709 -8.94979
424 1 15.7245 15.7245 3.14454 -8.94835
425 1 17.2967 17.2967 4.71725 -8.94962
426 1 18.8691 15.7242 3.14483 -8.94964
427 1 20.4415 17.2966 4.71726 -8.94963
428 1 22.0139 18.8691 3.14484 -8.94962
429 1 1.57242 20.4415 4.71726 -8.94964
430 1 3.14482 18.8691 3.14482 -8.94951
431 1 4.71724 20.4415 4.71724 -8.94963
432 1 6.28969 18.8691 3.14484 -8.94975
433 1 7.86211 20.4415 4.71726 -8.94961
434 1 9.43452 18.8691 3.14483 -8.94966
435 1 11.007 20.4415 4.71725 -8.94962
436 1 12.5794 18.8691 3.14483 -8.94962
437 1 14.1518 20.4415 4.71725 -8.94967
438 1 15.7242 18.8691 3.14482 -8.94962
439 1 17.2966 20.4415 4.71726 -8.94963
440 1 18.8691 18.8691 3.14484 -8.94964
441 1 20.4415 20.4415 4.71726 -8.94964
442 1 1.57202 11.007 7.8619 -8.94925
443 1 4.71483 11.007 7.85983 -8.94417
444 1 7.86476 11.007 7.85578 -8.9242
445 1 11.0841 11.007 7.68645 -8.1722
446 1 14.1611 11.007 7.85962 -8.96758
447 1 17.2977 11.007 7.86206 -8.95123
448 1 20.4415 11.007 7.86209 -8.94987
449 1 22.0139 12.5794 6.28966 -8.94965
450 1 1.5719 14.152 7.86193 -8.95041
451 1 3.14451 12.5794 6.28944 -8.94958
452 1 4.71187 14.1555 7.85851 -8.94226
453 1 6.28787 12.5792 6.28664 -8.95425
454 1 7.84061 14.1729 7.8403 -8.86768
455 1 9.42859 12.5878 6.28624 -8.92367
456 1 11.0126 14.1563 7.85267 -8.92157
457 1 12.5998 12.5983 6.26905 -8.88519
458 1 14.1555 14.1549 7.8603 -8.94122
459 1 15.7266 12.58 6.28903 -8.9534
460 1 17.2971 14.152 7.86205 -8.95
461 1 18.8693 12.5794 6.28965 -8.95006
462 1 20.4415 14.1518 7.86209 -8.94978
463 1 22.0138 15.7242 6.28966 -8.94967
464 1 1.57241 17.2966 7.86211 -8.94972
465 1 3.14423 15.7247 6.28925 -8.94848
466 1 4.71698 17.2971 7.86191 -8.94981
467 1 6.28676 15.7272 6.2866 -8.93881
468 1 7.86156 17.2991 7.86141 -8.95391
469 1 9.43502 15.7259 6.28888 -8.95013
470 1 11.0073 17.2977 7.86164 -8.9495
471 1 12.5804 15.7267 6.28861 -8.95257
472 1 14.152 17.2971 7.86204 -8.94978
473 1 15.7246 15.7245 6.28945 -8.94894
474 1 17.2967 17.2967 7.86211 -8.9497
475 1 18.8691 15.7242 6.28967 -8.94963
476 1 20.4415 17.2966 7.86211 -8.94963
477 1 6.36097e-07 18.8691 6.28969 -8.94965
478 1 1.57242 20.4415 7.86211 -8.94964
479 1 3.14482 18.8691 6.28967 -8.94969
480 1 4.71724 20.4415 7.86209 -8.94964
481 1 6.28954 18.8694 6.28952 -8.94993
482 1 7.86207 20.4417 7.86206 -8.95016
483 1 9.43459 18.8693 6.28958 -8.94954
484 1 11.007 20.4416 7.86206 -8.94973
485 1 12.5794 18.8693 6.2896 -8.95008
486 1 14.1518 20.4415 7.8621 -8.94967
487 1 15.7242 18.8691 6.28967 -8.94963
488 1 17.2966 20.4415 7.86211 -8.94963
489 1 18.8691 18.8691 6.28969 -8.94965
490 1 20.4415 20.4415 7.86211 -8.94963
491 1 22.0136 12.5794 9.43449 -8.95035
492 1 3.14149 12.5799 9.43389 -8.95546
493 1 6.26081 12.6023 9.41251 -8.8885
494 1 9.34849 12.7761 9.43628 -7.99209
495 1 12.591 12.5964 9.4143 -8.83886
496 1 15.7264 12.5801 9.43442 -8.95052
497 1 18.8693 12.5794 9.43453 -8.94994
498 1 -2.50165e-05 15.7242 9.43453 -8.94964
513 1 4.71102 11.007 11.0063 -8.9893
514 1 7.65815 11.007 10.9208 -7.99524
531 1 17.2967 17.2967 11.0069 -8.94966
526 1 1.57239 17.2967 11.0069 -8.94963
527 1 4.71696 17.2969 11.007 -8.94932
389 1 15.7242 18.8691 2.84851e-06 -8.94965
365 1 22.0139 15.7242 1.6333e-07 -8.94963
377 1 18.8691 15.7242 5.09447e-07 -8.94965
512 1 1.57132 11.007 11.0071 -8.95058
687 3 9.44519 11.007 11.745 2.38806
686 1 20.4415 20.4415 20.4415 -8.94963
515 1 11.3208 11.007 11.1015 -7.21187
516 1 14.1566 11.007 11.0088 -9.01245
517 1 17.2976 11.007 11.0069 -8.95001
518 1 20.4415 11.007 11.007 -8.94999
519 1 1.57204 14.1519 11.007 -8.95007
520 1 4.71339 14.1531 11.0081 -8.95485
521 1 7.83272 14.1743 11.0213 -8.84423
522 1 11.0224 14.1575 11.0084 -8.8946
523 1 14.1546 14.1533 11.0065 -8.95272
524 1 17.2971 14.152 11.007 -8.94957
525 1 20.4415 14.1518 11.007 -8.94973
391 1 18.8691 18.8691 22.0139 -8.94962
385 1 9.43453 18.8691 22.0139 -8.94964
528 1 7.86106 17.2999 11.0071 -8.95286
529 1 11.0078 17.2984 11.0069 -8.94828
530 1 14.1521 17.297 11.0068 -8.9494
685 1 18.8691 18.8691 18.8691 -8.94961
684 1 17.2966 20.4415 20.4415 -8.94963
533 1 1.57242 20.4415 11.007 -8.94964
683 1 15.7242 18.8691 18.8691 -8.94953
535 1 7.86203 20.4418 11.0069 -8.9502
536 1 11.007 20.4417 11.0069 -8.94976
537 1 14.1518 20.4415 11.0069 -8.94964
682 1 14.1518 20.4415 20.4415 -8.94965
539 1 20.4415 20.4415 11.007 -8.94963
540 1 1.57234 11.007 14.1519 -8.94938
541 1 4.71713 11.007 14.1516 -8.94932
542 1 7.86395 11.007 14.1455 -8.91121
543 1 11.0068 11.007 14.1617 -8.96125
544 1 14.154 11.007 14.154 -8.94723
545 1 17.297 11.007 14.152 -8.94927
546 1 20.4415 11.007 14.1518 -8.94966
547 1 22.0138 12.5794 12.5794 -8.94975
548 1 1.57216 14.1519 14.1519 -8.95005
549 1 3.14372 12.5797 12.5799 -8.94908
550 1 4.7147 14.1528 14.1529 -8.95258
551 1 6.28521 12.5873 12.5868 -8.91766
552 1 7.84264 14.1713 14.1741 -8.88336
553 1 9.43663 12.7646 12.6555 -8.11364
554 1 11.0254 14.1717 14.1739 -8.87387
555 1 12.6068 12.6142 12.6137 -8.80774
556 1 14.158 14.1566 14.1565 -8.93702
557 1 15.7273 12.58 12.58 -8.95519
558 1 17.2972 14.152 14.152 -8.95069
559 1 18.8693 12.5794 12.5794 -8.9503
560 1 20.4415 14.1518 14.1518 -8.94978
561 1 -3.76196e-05 15.7242 12.5794 -8.94967
562 1 1.57238 17.2967 14.1518 -8.9496
563 1 3.14435 15.7245 12.5795 -8.94951
564 1 4.71691 17.297 14.152 -8.94865
565 1 6.28619 15.7285 12.5819 -8.94012
566 1 7.86152 17.299 14.1525 -8.95366
567 1 9.43511 15.7319 12.5809 -8.98775
568 1 11.0076 17.2991 14.1526 -8.95295
569 1 12.581 15.7288 12.5799 -8.95554
570 1 14.152 17.2971 14.1519 -8.95024
571 1 15.7245 15.7245 12.5793 -8.94966
572 1 17.2967 17.2966 14.1518 -8.94972
573 1 18.8691 15.7242 12.5794 -8.94959
574 1 20.4415 17.2966 14.1518 -8.94963
575 1 22.0139 18.8691 12.5794 -8.94964
576 1 1.57242 20.4415 14.1518 -8.94965
577 1 3.14483 18.8691 12.5794 -8.94973
578 1 4.71724 20.4415 14.1518 -8.94961
579 1 6.28945 18.8696 12.5795 -8.94987
580 1 7.86207 20.4417 14.1518 -8.9501
581 1 9.43459 18.8702 12.5794 -8.95093
582 1 11.007 20.4417 14.1518 -8.95011
583 1 12.5795 18.8695 12.5794 -8.9502
584 1 14.1518 20.4415 14.1518 -8.94967
585 1 15.7242 18.8691 12.5794 -8.94966
586 1 17.2966 20.4415 14.1518 -8.94964
587 1 18.8691 18.8691 12.5794 -8.94964
588 1 20.4415 20.4415 14.1518 -8.94963
589 1 1.57239 11.007 17.2967 -8.94962
590 1 4.71701 11.007 17.2968 -8.94875
591 1 7.86147 11.007 17.2973 -8.94503
592 1 11.0075 11.007 17.2989 -8.94917
593 1 14.1522 11.007 17.2971 -8.94865
594 1 17.2967 11.007 17.2967 -8.94968
595 1 20.4415 11.007 17.2966 -8.94964
596 1 22.0139 12.5794 15.7242 -8.94964
597 1 1.57241 14.1518 17.2966 -8.94966
598 1 3.14472 12.5793 15.7243 -8.94974
599 1 4.71718 14.1518 17.2967 -8.95014
600 1 6.28899 12.5786 15.7255 -8.9506
601 1 7.86139 14.1526 17.2992 -8.95349
602 1 9.43382 12.582 15.7337 -8.96651
603 1 11.0075 14.1525 17.2992 -8.95331
604 1 12.5809 12.5796 15.7287 -8.95449
605 1 14.1521 14.152 17.2971 -8.95037
606 1 15.7245 12.5793 15.7245 -8.9496
607 1 17.2967 14.1518 17.2966 -8.94973
608 1 18.8691 12.5794 15.7242 -8.9496
609 1 20.4415 14.1518 17.2966 -8.94963
610 1 22.0139 15.7242 15.7242 -8.94967
611 1 1.57239 17.2967 17.2967 -8.94962
612 1 3.14449 15.7244 15.7244 -8.94981
613 1 4.71696 17.2969 17.2969 -8.94833
614 1 6.28672 15.7271 15.7273 -8.93961
615 1 7.86208 17.2968 17.2968 -8.94964
616 1 9.43451 15.7262 15.726 -8.94762
617 1 11.007 17.2968 17.2968 -8.9497
618 1 12.5821 15.7271 15.7271 -8.93985
619 1 14.1521 17.2969 17.2969 -8.94848
620 1 15.7249 15.7248 15.7248 -8.94793
621 1 17.2967 17.2967 17.2967 -8.94944
622 1 18.8691 15.7242 15.7242 -8.94969
623 1 20.4415 17.2966 17.2966 -8.94963
624 1 -1.84068e-06 18.8691 15.7242 -8.94963
625 1 1.57242 20.4415 17.2966 -8.94964
626 1 3.14482 18.8691 15.7242 -8.94961
627 1 4.71725 20.4415 17.2967 -8.94964
628 1 6.28954 18.8694 15.7244 -8.94999
629 1 7.86211 20.4415 17.2966 -8.94961
630 1 9.43452 18.8693 15.7244 -8.94945
631 1 11.007 20.4415 17.2966 -8.94961
632 1 12.5795 18.8694 15.7244 -8.94985
633 1 14.1518 20.4415 17.2967 -8.94962
634 1 15.7242 18.8691 15.7242 -8.94972
635 1 17.2966 20.4415 17.2966 -8.94964
636 1 18.8691 18.8691 15.7242 -8.94965
637 1 20.4415 20.4415 17.2966 -8.94963
638 1 1.57242 11.007 20.4415 -8.94964
639 1 4.71724 11.007 20.4415 -8.94962
640 1 7.86204 11.007 20.4416 -8.94946
641 1 11.007 11.007 20.4416 -8.95007
642 1 14.1518 11.007 20.4415 -8.94966
643 1 17.2966 11.007 20.4415 -8.94965
644 1 20.4415 11.007 20.4415 -8.94963
645 1 -1.09323e-06 12.5794 18.8691 -8.94963
646 1 1.57242 14.1518 20.4415 -8.94963
647 1 3.14483 12.5794 18.8691 -8.94962
648 1 4.71725 14.1518 20.4415 -8.94963
649 1 6.28957 12.5793 18.8693 -8.94959
650 1 7.86207 14.1518 20.4417 -8.95019
651 1 9.43447 12.5793 18.8701 -8.95158
652 1 11.007 14.1518 20.4417 -8.95015
653 1 12.5795 12.5794 18.8695 -8.95019
654 1 14.1518 14.1518 20.4415 -8.94972
655 1 15.7242 12.5794 18.8691 -8.9496
656 1 17.2966 14.1518 20.4415 -8.94963
657 1 18.8691 12.5794 18.8691 -8.94964
658 1 20.4415 14.1518 20.4415 -8.94963
659 1 22.0139 15.7242 18.8691 -8.94964
660 1 1.57242 17.2966 20.4415 -8.94965
661 1 3.14484 15.7242 18.8691 -8.94974
662 1 4.71724 17.2967 20.4415 -8.94962
663 1 6.28953 15.7244 18.8694 -8.94987
664 1 7.86211 17.2966 20.4415 -8.94961
665 1 9.43453 15.7244 18.8693 -8.94942
666 1 11.007 17.2966 20.4415 -8.94962
667 1 12.5795 15.7244 18.8694 -8.94985
668 1 14.1518 17.2967 20.4415 -8.94963
669 1 15.7242 15.7242 18.8691 -8.94972
670 1 17.2966 17.2966 20.4415 -8.94963
671 1 18.8691 15.7242 18.8691 -8.94965
672 1 20.4415 17.2966 20.4415 -8.94964
673 1 22.0139 18.8691 18.8691 -8.94963
674 1 1.57242 20.4415 20.4415 -8.94962
675 1 3.14482 18.8691 18.8691 -8.9495
676 1 4.71727 20.4415 20.4415 -8.94965
677 1 6.28969 18.8691 18.8691 -8.94971
678 1 7.86211 20.4415 20.4415 -8.94964
679 1 9.43453 18.8691 18.8691 -8.94969
680 1 11.007 20.4415 20.4415 -8.94964
681 1 12.5794 18.8691 18.8691 -8.94971
351 1 22.0139 12.5794 22.0139 -8.94963
353 1 3.14484 12.5794 22.0139 -8.94963
357 1 9.43448 12.5794 22.0139 -8.9499
359 1 12.5794 12.5794 22.0137 -8.95017
383 1 6.28969 18.8691 22.0139 -8.94964
367 1 3.14484 15.7242 22.0139 -8.94964
369 1 6.28967 15.7242 22.0139 -8.94972
375 1 15.7242 15.7242 22.0139 -8.94962
381 1 3.14484 18.8691 22.0139 -8.94962
363 1 18.8691 12.5794 22.0139 -8.94964
379 1 22.0139 18.8691 22.0139 -8.94963
387 1 12.5794 18.8691 22.0139 -8.94963
