ITEM: TIMESTEP
115
ITEM: NUMBER OF ATOMS
688
ITEM: BOX BOUNDS pp pp pp
0.0000000000000000e+00 2.2013900999999997e+01
0.0000000000000000e+00 2.2013900999999997e+01
0.0000000000000000e+00 2.2013900999999997e+01
ITEM: ATOMS id type x y z c_pot
513 1 4.71534 11.0067 11.0075 -8.94858
2 1 1.57219 1.57263 1.57221 -8.94955
175 1 18.8707 9.43374 9.43468 -8.94941
4 1 4.71701 1.57266 1.57209 -8.94964
512 1 1.57216 11.0068 11.007 -8.9498
6 1 7.86201 1.57258 1.57212 -8.94962
448 1 20.4423 11.0065 7.86173 -8.9499
8 1 11.007 1.57242 1.57222 -8.94961
447 1 17.2995 11.0054 7.86112 -8.94834
10 1 14.152 1.57228 1.57231 -8.94963
174 1 15.727 9.43327 9.43541 -8.95046
12 1 17.2968 1.57228 1.57237 -8.9496
445 1 11.0224 11.0071 7.80928 -9.22352
14 1 20.4415 1.57244 1.57236 -8.94958
151 1 9.43424 0.000855257 9.43417 -8.95041
16 1 1.57224 4.7171 1.57223 -8.94947
17 1 3.14464 3.14474 -6.47405e-05 -8.94956
18 1 4.71696 4.71706 1.57215 -8.94954
443 1 4.71311 11.0067 7.85997 -8.952
20 1 7.86199 4.71702 1.57222 -8.94968
21 1 9.43454 3.14456 4.86086e-05 -8.94961
22 1 11.0071 4.71693 1.57234 -8.94961
23 1 12.5796 3.14444 0.000159633 -8.94961
24 1 14.1521 4.71681 1.57245 -8.94971
442 1 1.57144 11.0068 7.86155 -8.95035
26 1 17.297 4.71684 1.57246 -8.94952
27 1 18.8693 3.14452 0.000168449 -8.94953
28 1 20.4416 4.71702 1.57239 -8.94954
29 1 1.5256e-05 6.28944 1.84301e-05 -8.9496
30 1 1.5721 7.86189 1.57207 -8.94961
193 1 11.0104 7.85068 11.0115 -9.01982
32 1 4.71661 7.86175 1.57164 -8.94966
33 1 6.2893 6.28922 -0.000187465 -8.94953
34 1 7.8615 7.86152 1.57134 -8.9494
192 1 7.86192 7.86047 11.0101 -8.98118
36 1 11.007 7.86166 1.57175 -8.94937
191 1 4.71803 7.86262 11.0066 -8.95086
38 1 14.1525 7.8614 1.57195 -8.94942
39 1 15.7248 6.28905 0.000293497 -8.94958
40 1 17.2971 7.86177 1.57244 -8.94976
190 1 1.57304 7.86197 11.0069 -8.94949
42 1 20.4416 7.86188 1.57234 -8.94964
349 1 17.2969 11.0069 1.57236 -8.94962
44 1 3.1444 9.43439 -0.000409862 -8.94958
345 1 4.71632 11.007 1.57117 -8.94951
688 2 10.2528 11.066 9.46551 0.632406
47 1 12.5798 9.4341 -0.000316677 -8.94994
48 1 15.7247 9.43426 0.000280451 -8.94967
49 1 18.8694 9.43434 0.000197243 -8.94962
50 1 22.0136 0.000391653 3.14458 -8.9496
51 1 1.5722 1.57286 4.71704 -8.94964
173 1 12.5849 9.43086 9.43584 -9.04353
53 1 4.7168 1.57301 4.71674 -8.94961
54 1 6.28932 0.000728237 3.14418 -8.94965
55 1 7.86193 1.57294 4.71677 -8.94967
172 1 9.4197 9.39972 9.43545 -9.25428
57 1 11.0071 1.57263 4.71685 -8.94962
171 1 6.2935 9.43829 9.43495 -8.99582
59 1 14.1521 1.57231 4.71691 -8.9496
60 1 15.7244 8.55189e-05 3.14454 -8.9496
61 1 17.2969 1.57234 4.71706 -8.9496
170 1 3.14517 9.43463 9.43442 -8.94776
63 1 20.4415 1.57254 4.71713 -8.94962
64 1 -3.56634e-06 3.14489 3.14474 -8.94965
65 1 1.57243 4.71733 4.71715 -8.94978
66 1 3.14458 3.14499 3.14457 -8.94961
67 1 4.71697 4.71722 4.71687 -8.94967
68 1 6.28949 3.14497 3.14448 -8.94974
69 1 7.86208 4.7172 4.71681 -8.9501
70 1 9.43454 3.14484 3.14456 -8.94961
71 1 11.0071 4.71701 4.71688 -8.94958
72 1 12.5796 3.14466 3.14464 -8.94966
73 1 14.1524 4.71661 4.71692 -8.94966
74 1 15.7246 3.14453 3.14469 -8.9496
75 1 17.2972 4.71679 4.71706 -8.94958
76 1 18.8693 3.14467 3.14477 -8.94959
77 1 20.4418 4.71709 4.71717 -8.94965
78 1 22.0139 6.28941 3.14458 -8.94954
79 1 1.57196 7.86174 4.71667 -8.9496
80 1 3.14432 6.28932 3.14428 -8.94921
81 1 4.71587 7.8612 4.71574 -8.94821
82 1 6.28917 6.28928 3.14406 -8.94934
83 1 7.8611 7.8613 4.71514 -8.9489
84 1 9.43451 6.28933 3.14432 -8.94958
85 1 11.007 7.86194 4.71597 -8.94945
86 1 12.5797 6.2892 3.14449 -8.94991
87 1 14.1532 7.86073 4.71601 -8.94807
88 1 15.7249 6.28903 3.1445 -8.94925
89 1 17.2976 7.86136 4.71676 -8.94933
90 1 18.8695 6.28928 3.14467 -8.94951
91 1 20.4418 7.86168 4.7169 -8.94959
92 1 -0.000269555 9.43436 3.14442 -8.94959
93 1 3.14399 9.43434 3.14387 -8.94957
94 1 6.28844 9.43422 3.14275 -8.95027
95 1 9.43342 9.43369 3.14172 -8.9484
96 1 12.5805 9.4335 3.14244 -8.94858
97 1 15.7247 9.43429 3.14444 -8.95017
98 1 18.8693 9.43433 3.14463 -8.94972
169 1 0.000596938 9.43418 9.43448 -8.94933
100 1 1.57229 1.57289 7.86197 -8.94961
101 1 3.14426 0.00091593 6.28928 -8.94958
102 1 4.7169 1.5732 7.86187 -8.94956
168 1 18.8702 6.28892 9.43459 -8.94954
104 1 7.86169 1.57283 7.86161 -8.9498
105 1 9.43437 0.000869237 6.28902 -8.94963
106 1 11.0072 1.57226 7.8617 -8.94961
107 1 12.5796 0.000318099 6.28914 -8.94965
108 1 14.1523 1.5721 7.86184 -8.94965
167 1 15.7259 6.28806 9.4347 -8.94887
110 1 17.2971 1.57217 7.86199 -8.9496
111 1 18.8692 0.000141269 6.2895 -8.94963
112 1 20.4416 1.57249 7.86201 -8.94961
113 1 22.014 3.14497 6.28959 -8.94962
114 1 1.5727 4.71743 7.86206 -8.94962
115 1 3.14475 3.1453 6.28956 -8.94972
116 1 4.71745 4.71783 7.86213 -8.94985
117 1 6.28928 3.14501 6.28914 -8.94951
118 1 7.86154 4.71631 7.86122 -8.94816
119 1 9.43463 3.14484 6.28936 -8.94953
120 1 11.008 4.71572 7.86156 -8.94813
121 1 12.5799 3.1443 6.28925 -8.94955
122 1 14.1529 4.71603 7.86194 -8.94984
123 1 15.7248 3.14437 6.28945 -8.94964
124 1 17.2975 4.71655 7.86202 -8.94954
125 1 18.8695 3.14463 6.28957 -8.94961
126 1 20.442 4.71701 7.86205 -8.94959
127 1 0.000313926 6.28955 6.28958 -8.94961
128 1 1.57278 7.86207 7.86202 -8.9494
129 1 3.14497 6.2899 6.28965 -8.95011
130 1 4.71798 7.863 7.86242 -8.95105
131 1 6.28933 6.2893 6.2889 -8.94993
132 1 7.86203 7.86204 7.85948 -8.98205
133 1 9.43497 6.2893 6.28949 -8.95092
134 1 11.0093 7.86114 7.86163 -9.00169
135 1 12.5802 6.28833 6.28906 -8.95054
136 1 14.154 7.8597 7.86187 -8.95044
137 1 15.7253 6.28863 6.28929 -8.94957
138 1 17.2979 7.86113 7.8621 -8.95001
139 1 18.8697 6.28918 6.28955 -8.94968
140 1 20.4422 7.86165 7.86201 -8.94952
141 1 22.0138 9.43418 6.2892 -8.94984
142 1 3.14336 9.43407 6.28846 -8.94998
143 1 6.28554 9.43235 6.2851 -8.94505
144 1 9.4317 9.43275 6.2849 -8.99599
145 1 12.5824 9.43031 6.28596 -8.9792
146 1 15.7263 9.43291 6.28844 -8.94875
147 1 18.8701 9.43377 6.28911 -8.9495
148 1 -0.000145064 0.000385185 9.43444 -8.9496
166 1 12.581 6.2869 9.43469 -8.94871
150 1 6.289 0.00109404 9.43429 -8.94955
165 1 9.43463 6.28066 9.43465 -8.95916
152 1 12.5798 0.000166201 9.43423 -8.94961
153 1 15.7246 -0.000212019 9.43443 -8.94962
164 1 6.2909 6.29066 9.4345 -8.94988
155 1 0.000281677 3.14489 9.43449 -8.94961
156 1 3.14489 3.14525 9.43446 -8.94963
157 1 6.28956 3.14517 9.43445 -8.94915
158 1 9.43457 3.14301 9.43449 -8.952
159 1 12.5801 3.14358 9.43453 -8.94953
160 1 15.7251 3.14394 9.43455 -8.94954
161 1 18.8696 3.14444 9.43453 -8.94961
162 1 22.0146 6.28947 9.43452 -8.94958
163 1 3.1454 6.28993 9.43447 -8.94942
344 1 1.57189 11.007 1.57185 -8.94959
350 1 20.4414 11.0069 1.57224 -8.94961
181 1 17.2972 1.5719 11.007 -8.94961
188 1 17.2978 4.71616 11.0072 -8.94957
177 1 4.71696 1.57294 11.007 -8.94955
184 1 4.7175 4.71757 11.0069 -8.94991
189 1 20.4422 4.71684 11.007 -8.94959
644 1 20.4417 11.0069 20.4417 -8.9496
3 1 3.14456 0.000283358 22.0136 -8.9496
178 1 7.86173 1.5723 11.0072 -8.94977
179 1 11.0073 1.57157 11.0072 -8.95041
180 1 14.1525 1.57155 11.0071 -8.94963
46 1 9.43424 9.43414 22.0131 -8.9499
182 1 20.4418 1.57235 11.007 -8.94961
183 1 1.57282 4.7173 11.0069 -8.94962
252 1 9.43453 -0.000523063 15.7245 -8.94955
185 1 7.86155 4.7155 11.008 -8.94824
186 1 11.0082 4.7132 11.0083 -8.95084
187 1 14.1533 4.71509 11.0075 -8.94981
642 1 14.1524 11.0068 20.4421 -8.94975
254 1 12.5796 -0.000778515 15.7246 -8.94956
641 1 11.0071 11.0068 20.4416 -8.95046
640 1 7.86177 11.0069 20.4412 -8.94981
45 1 6.28914 9.43435 22.0132 -8.94979
638 1 1.57222 11.0069 20.4414 -8.94959
194 1 14.1555 7.85802 11.0082 -8.94893
195 1 17.2989 7.86053 11.0075 -8.94973
196 1 20.4427 7.86147 11.0072 -8.9496
343 1 18.8698 9.43417 18.8698 -8.94959
198 1 1.57239 1.57253 14.1519 -8.94964
342 1 15.7253 9.4339 18.8704 -8.94956
200 1 4.71689 1.57243 14.1521 -8.94958
201 1 6.2891 0.000522216 12.5797 -8.94974
202 1 7.86182 1.5719 14.1524 -8.94974
341 1 12.5801 9.43372 18.8708 -8.95031
204 1 11.0072 1.57133 14.1525 -8.94955
340 1 9.43442 9.43383 18.8703 -8.95008
206 1 14.1526 1.57116 14.1525 -8.94977
207 1 15.7247 -0.000514293 12.5795 -8.94967
208 1 17.2973 1.57169 14.1522 -8.94965
339 1 6.28928 9.43419 18.8695 -8.94968
210 1 20.4418 1.5722 14.152 -8.94962
211 1 22.0143 3.14472 12.5795 -8.94962
212 1 1.57268 4.71705 14.152 -8.94975
213 1 3.14486 3.145 12.5794 -8.94973
214 1 4.71696 4.71673 14.1523 -8.94958
215 1 6.28925 3.14434 12.5799 -8.94939
216 1 7.86156 4.71538 14.1532 -8.95004
217 1 9.43454 3.14323 12.5802 -8.94999
218 1 11.0075 4.71476 14.1536 -8.94934
219 1 12.5804 3.14252 12.5805 -8.95017
220 1 14.1538 4.71417 14.1538 -8.94987
221 1 15.7253 3.14349 12.5799 -8.94962
222 1 17.2981 4.71585 14.1527 -8.94967
223 1 18.8698 3.14421 12.5796 -8.94961
224 1 20.4423 4.71666 14.1522 -8.94964
225 1 0.00073705 6.28931 12.5795 -8.94965
226 1 1.57261 7.86167 14.1522 -8.94978
227 1 3.14512 6.28963 12.5794 -8.95001
228 1 4.71632 7.86122 14.1528 -8.94968
229 1 6.2892 6.28863 12.5803 -8.94928
230 1 7.85918 7.85797 14.1565 -8.94578
231 1 9.43422 6.28528 12.5818 -8.95123
232 1 11.0079 7.85816 14.1563 -8.94888
233 1 12.5824 6.2836 12.5828 -8.95189
234 1 14.1583 7.85543 14.1585 -8.94244
235 1 15.7266 6.28731 12.5807 -8.94961
236 1 17.2996 7.86017 14.1537 -8.95003
237 1 18.8705 6.28864 12.5799 -8.94961
238 1 20.4428 7.86133 14.1525 -8.94978
239 1 22.0146 9.43408 12.5798 -8.94985
240 1 3.14435 9.43418 12.5799 -8.95003
241 1 6.28729 9.43342 12.5818 -8.95113
242 1 9.4256 9.4231 12.5913 -9.02472
243 1 12.5969 9.41716 12.5966 -8.99616
244 1 15.7298 9.4316 12.5825 -8.9529
245 1 18.8715 9.43342 12.5804 -8.95001
246 1 22.0139 8.89965e-05 15.7244 -8.94962
247 1 1.57234 1.57235 17.2969 -8.94958
248 1 3.1445 0.000243725 15.7245 -8.94956
249 1 4.71699 1.57218 17.297 -8.94956
338 1 3.14461 9.43433 18.8693 -8.9496
251 1 7.86201 1.57187 17.297 -8.94957
337 1 22.0141 9.43432 18.8694 -8.94959
253 1 11.0071 1.5716 17.2971 -8.94958
336 1 20.4418 7.86181 20.4418 -8.9496
255 1 14.1522 1.57151 17.2972 -8.94958
335 1 18.8698 6.28904 18.8698 -8.94957
257 1 17.2972 1.57171 17.2972 -8.94952
258 1 18.8694 -0.000242073 15.7245 -8.94964
259 1 20.4418 1.57214 17.2969 -8.9496
260 1 0.000291577 3.14456 15.7245 -8.94965
261 1 1.57245 4.71687 17.297 -8.94958
262 1 3.14468 3.1446 15.7245 -8.94962
263 1 4.7168 4.71653 17.2973 -8.94921
264 1 6.28927 3.14406 15.725 -8.94964
265 1 7.86188 4.71621 17.2976 -8.94957
266 1 9.43454 3.14361 15.7252 -8.94948
267 1 11.0072 4.71591 17.2979 -8.94954
268 1 12.5799 3.1433 15.7253 -8.94951
269 1 14.1527 4.71576 17.298 -8.94962
270 1 15.7253 3.14329 15.7253 -8.94954
271 1 17.2979 4.71594 17.2978 -8.949
272 1 18.8698 3.1441 15.7247 -8.94963
273 1 20.4421 4.71664 17.2972 -8.94956
274 1 22.0144 6.28915 15.7247 -8.94967
275 1 1.5725 7.86176 17.297 -8.94962
276 1 3.14456 6.28912 15.7248 -8.9496
277 1 4.71682 7.86156 17.2973 -8.94959
278 1 6.28855 6.28802 15.726 -8.94837
279 1 7.86151 7.86083 17.2985 -8.94999
280 1 9.43447 6.28767 15.7263 -8.94925
281 1 11.0074 7.8605 17.299 -8.9494
282 1 12.5806 6.28725 15.7267 -8.94951
283 1 14.1535 7.86025 17.2995 -8.95015
284 1 15.727 6.28683 15.727 -8.94757
285 1 17.2981 7.86106 17.2981 -8.94948
286 1 18.8705 6.28856 15.7253 -8.94961
287 1 20.4422 7.86159 17.2973 -8.94959
288 1 0.000525451 9.43418 15.7248 -8.94966
289 1 3.14456 9.43421 15.7248 -8.94959
290 1 6.28886 9.4338 15.7258 -8.94951
291 1 9.43403 9.43243 15.7285 -8.951
292 1 12.5818 9.43188 15.7298 -8.95249
293 1 15.7269 9.43291 15.727 -8.94893
294 1 18.8706 9.43382 15.7254 -8.94959
334 1 17.2973 7.86161 20.4422 -8.9496
296 1 1.5723 1.57238 20.4415 -8.94952
333 1 15.7253 6.28852 18.8704 -8.94962
298 1 4.71709 1.57233 20.4415 -8.94962
299 1 6.28956 -0.000106171 18.8691 -8.94964
300 1 7.86204 1.57219 20.4415 -8.9496
332 1 14.1525 7.86134 20.4423 -8.94985
302 1 11.007 1.57204 20.4416 -8.9496
331 1 12.5799 6.28854 18.8703 -8.94952
304 1 14.152 1.57196 20.4417 -8.9496
305 1 15.7244 -0.000434549 18.8693 -8.94964
306 1 17.2969 1.57203 20.4417 -8.9496
330 1 11.0071 7.86139 20.4421 -8.94966
308 1 20.4416 1.57224 20.4416 -8.94948
309 1 22.014 3.14455 18.8693 -8.94953
310 1 1.57235 4.71699 20.4416 -8.94957
311 1 3.14465 3.14453 18.8693 -8.94946
312 1 4.71698 4.71685 20.4417 -8.94953
313 1 6.2895 3.14435 18.8694 -8.94961
314 1 7.86197 4.71671 20.4418 -8.94958
315 1 9.43455 3.14413 18.8696 -8.94958
316 1 11.0071 4.71657 20.442 -8.94958
317 1 12.5797 3.14398 18.8697 -8.94958
318 1 14.1522 4.7165 20.4421 -8.94959
319 1 15.7248 3.14398 18.8697 -8.94961
320 1 17.2972 4.71658 20.4421 -8.94952
321 1 18.8696 3.14423 18.8696 -8.94939
322 1 20.4418 4.7169 20.4418 -8.94957
323 1 0.00025064 6.28932 18.8694 -8.94959
324 1 1.57233 7.86187 20.4415 -8.94959
325 1 3.14464 6.28929 18.8694 -8.9496
326 1 4.7169 7.86178 20.4415 -8.94964
327 1 6.28924 6.28892 18.8698 -8.94961
328 1 7.86177 7.86151 20.4417 -8.94977
329 1 9.4345 6.28869 18.8701 -8.94952
593 1 14.1534 11.0064 17.2991 -8.94979
592 1 11.0074 11.0063 17.2995 -8.95167
515 1 11.0391 10.9476 11.1062 -9.37132
517 1 17.3005 11.0053 11.0085 -8.94816
518 1 20.4429 11.0065 11.0073 -8.94981
540 1 1.57238 11.0068 14.1522 -8.94966
541 1 4.71619 11.0068 14.1529 -8.94923
542 1 7.86073 11.0063 14.1554 -8.9495
544 1 14.1567 11.0049 14.1574 -8.94726
545 1 17.2994 11.0062 14.1536 -8.94975
546 1 20.4426 11.0066 14.1525 -8.94974
591 1 7.86174 11.0067 17.2979 -8.94993
7 1 9.43451 7.54394e-05 22.0136 -8.94961
9 1 12.5795 -7.2221e-05 22.0137 -8.94961
13 1 18.8691 -1.54478e-05 22.0139 -8.94958
19 1 6.28953 3.14467 22.0139 -8.94963
25 1 15.7245 3.14441 22.0141 -8.94962
31 1 3.14453 6.28939 22.0137 -8.94958
35 1 9.43448 6.28916 22.0139 -8.94956
37 1 12.5797 6.28909 22.0142 -8.94959
41 1 18.8694 6.28931 22.0141 -8.94963
43 1 22.0138 9.4344 22.0138 -8.9496
15 1 22.0139 3.14471 22.0139 -8.94952
176 1 1.57237 1.57274 11.0069 -8.94961
687 2 10.976 12.5203 10.1887 0.632406
511 1 18.8691 18.8694 9.43442 -8.94961
346 1 7.86138 11.0072 1.57047 -8.94998
347 1 11.0069 11.0071 1.56949 -8.95282
348 1 14.1522 11.007 1.57186 -8.94941
510 1 15.7246 18.8693 9.43435 -8.94958
539 1 20.4414 20.4418 11.0069 -8.94961
154 1 18.8693 22.0139 9.43446 -8.94961
352 1 1.57169 14.1522 1.57168 -8.94959
353 1 3.14423 12.5796 -0.000647155 -8.94957
354 1 4.71609 14.1525 1.57088 -8.94959
538 1 17.2969 20.4415 11.0069 -8.94961
356 1 7.86105 14.1529 1.57003 -8.95001
357 1 9.43417 12.5799 -0.00140017 -8.94981
358 1 11.0068 14.1526 1.57081 -8.94941
359 1 12.5797 12.5798 -0.000777393 -8.9499
360 1 14.1524 14.1526 1.57139 -8.9495
393 1 1.57148 11.0069 4.71637 -8.94951
362 1 17.2969 14.152 1.57221 -8.94972
363 1 18.8692 12.5794 5.77028e-05 -8.94961
364 1 20.4413 14.152 1.57212 -8.94962
365 1 -0.000323973 15.7245 -0.00031952 -8.9496
366 1 1.57168 17.2973 1.57166 -8.94957
149 1 3.14434 22.0147 9.43438 -8.94958
368 1 4.71621 17.2978 1.57093 -8.94961
369 1 6.28897 15.725 -0.00128899 -8.94978
370 1 7.86158 17.2977 1.57096 -8.94961
109 1 15.7246 22.014 6.28935 -8.9496
372 1 11.0069 17.2974 1.5713 -8.94954
103 1 6.28894 22.0152 6.2889 -8.94977
374 1 14.1519 17.2971 1.57177 -8.94968
375 1 15.7246 15.7246 -0.000303914 -8.94959
376 1 17.2968 17.297 1.57202 -8.94951
99 1 -0.000236162 22.0144 6.28947 -8.9496
378 1 20.4412 17.297 1.57205 -8.94963
394 1 4.71528 11.0071 4.71509 -8.94892
380 1 1.5719 20.4421 1.57188 -8.94939
381 1 3.14428 18.8697 -0.000642586 -8.94956
382 1 4.71676 20.4422 1.57166 -8.94963
62 1 18.8691 22.014 3.14464 -8.9496
384 1 7.86187 20.4421 1.57167 -8.94961
385 1 9.43443 18.8695 -0.000747807 -8.94959
386 1 11.0069 20.4419 1.57183 -8.94961
387 1 12.5794 18.8693 -0.000532886 -8.94959
388 1 14.1519 20.4417 1.57203 -8.94961
58 1 12.5795 22.0142 3.14441 -8.9496
390 1 17.2967 20.4417 1.57217 -8.94959
391 1 18.8691 18.8693 -0.00014732 -8.94954
392 1 20.4413 20.4418 1.57216 -8.94953
509 1 12.5799 18.8706 9.43347 -8.94813
508 1 9.4332 18.8731 9.43325 -8.95084
395 1 7.86027 11.0074 4.71248 -8.95274
396 1 11.0069 11.0077 4.70469 -8.96454
397 1 14.1518 11.007 4.71621 -8.95131
507 1 6.28788 18.8716 9.43401 -8.94934
506 1 3.1436 18.8704 9.43424 -8.94954
400 1 -0.000533978 12.5795 3.14426 -8.94959
401 1 1.57106 14.1524 4.71617 -8.94956
402 1 3.14357 12.5797 3.14355 -8.94956
403 1 4.71452 14.1534 4.71462 -8.94893
404 1 6.28783 12.5801 3.14212 -8.94975
405 1 7.85901 14.1547 4.71164 -8.9529
406 1 9.433 12.581 3.14094 -8.94816
407 1 11.0061 14.1531 4.71445 -8.95046
408 1 12.5804 12.5809 3.14203 -8.94834
409 1 14.153 14.1534 4.71521 -8.94875
410 1 15.7246 12.5795 3.14446 -8.94965
411 1 17.297 14.152 4.71676 -8.95017
412 1 18.8691 12.5794 3.14455 -8.94962
413 1 20.4412 14.1521 4.71673 -8.94967
414 1 22.0132 15.7247 3.14416 -8.9496
415 1 1.57107 17.2978 4.71618 -8.94962
416 1 3.14338 15.7253 3.14337 -8.94948
417 1 4.7145 17.2995 4.71451 -8.94757
418 1 6.28779 15.7261 3.14188 -8.95003
419 1 7.8608 17.299 4.7149 -8.94961
420 1 9.43393 15.7258 3.14258 -8.94973
421 1 11.0068 17.2983 4.71554 -8.94887
422 1 12.5794 15.7252 3.14355 -8.95001
423 1 14.1522 17.2977 4.71623 -8.94957
424 1 15.7247 15.725 3.14392 -8.94933
425 1 17.297 17.2973 4.7166 -8.94925
426 1 18.869 15.7246 3.1444 -8.94976
427 1 20.4412 17.2973 4.71667 -8.94958
428 1 -0.000573573 18.8697 3.14424 -8.94952
429 1 1.57174 20.4423 4.71672 -8.94961
430 1 3.14364 18.8704 3.14359 -8.949
431 1 4.71618 20.443 4.71614 -8.94954
432 1 6.28882 18.8705 3.14341 -8.94967
433 1 7.86159 20.4428 4.7162 -8.94962
434 1 9.43424 18.8702 3.14365 -8.94957
435 1 11.0069 20.4424 4.71641 -8.94954
436 1 12.5795 18.8698 3.14398 -8.94954
437 1 14.152 20.442 4.71667 -8.94964
438 1 15.7244 18.8695 3.14429 -8.94958
439 1 17.2968 20.4418 4.71691 -8.9496
440 1 18.869 18.8695 3.14444 -8.94952
441 1 20.4413 20.4419 4.71696 -8.94962
505 1 -0.000509679 18.8698 9.43438 -8.94958
504 1 18.8697 15.7247 9.43444 -8.94937
444 1 7.84814 11.0027 7.84764 -9.01913
503 1 15.7255 15.7244 9.43451 -8.94945
446 1 14.1557 11.0017 7.85934 -9.03361
502 1 12.5798 15.7252 9.43221 -9.00169
501 1 9.42999 15.7356 9.43105 -9.01982
449 1 22.0133 12.5795 6.28905 -8.94975
450 1 1.57067 14.1526 7.86138 -8.95031
451 1 3.14237 12.58 6.28811 -8.94979
452 1 4.7117 14.1544 7.85966 -8.95249
453 1 6.28404 12.5814 6.28476 -8.94726
454 1 7.84485 14.1692 7.84458 -8.99616
455 1 9.42913 12.5834 6.2837 -9.05609
456 1 11.0056 14.1555 7.85662 -9.04353
457 1 12.5821 12.5846 6.28574 -9.03361
458 1 14.1555 14.156 7.85907 -8.9792
459 1 15.7253 12.5793 6.28964 -8.95131
460 1 17.299 14.1528 7.86102 -8.94858
461 1 18.8696 12.5793 6.28927 -8.94941
462 1 20.4418 14.1522 7.86164 -8.94994
463 1 -0.000837488 15.725 6.28897 -8.94985
464 1 1.57114 17.2978 7.86156 -8.94952
465 1 3.14202 15.7261 6.28794 -8.95015
466 1 4.71476 17.2991 7.86092 -8.94951
467 1 6.28299 15.7309 6.28319 -8.94244
468 1 7.85864 17.3027 7.85904 -8.95189
469 1 9.43325 15.7283 6.28594 -8.94893
470 1 11.0068 17.2994 7.86051 -8.94871
471 1 12.5796 15.7266 6.28751 -8.95044
472 1 14.1524 17.298 7.86128 -8.95054
473 1 15.7255 15.7256 6.28832 -8.94807
474 1 17.297 17.2971 7.86182 -8.94991
475 1 18.8695 15.7249 6.28897 -8.94942
476 1 20.4412 17.2972 7.8618 -8.94959
477 1 22.0133 18.8698 6.28924 -8.94959
478 1 1.57176 20.4423 7.8618 -8.94958
479 1 3.14346 18.8706 6.2888 -8.94962
480 1 4.71615 20.443 7.86153 -8.94951
481 1 6.28767 18.8722 6.28772 -8.94987
482 1 7.86102 20.4438 7.86107 -8.95017
483 1 9.43401 18.8712 6.28821 -8.94981
484 1 11.007 20.4427 7.86135 -8.94953
485 1 12.5795 18.8703 6.28863 -8.94984
486 1 14.1522 20.442 7.86156 -8.94955
487 1 15.7246 18.8697 6.28913 -8.94966
488 1 17.2968 20.4417 7.86191 -8.94966
489 1 18.869 18.8695 6.28936 -8.94971
490 1 20.4413 20.4419 7.86192 -8.94961
491 1 -7.74362e-05 12.5795 9.43439 -8.95046
492 1 3.14193 12.58 9.4341 -8.95167
493 1 6.27921 12.5805 9.43293 -9.01868
494 1 9.33528 12.6388 9.40233 -9.37132
495 1 12.6322 12.5792 9.41912 -9.22352
496 1 15.7368 12.5786 9.43461 -8.96454
497 1 18.872 12.5792 9.43456 -8.95282
498 1 22.0133 15.7249 9.43434 -8.94966
499 1 3.14249 15.7258 9.43409 -8.9494
500 1 6.28518 15.7282 9.43363 -8.94888
56 1 9.43444 22.0144 3.14427 -8.94961
52 1 3.14429 22.0146 3.14426 -8.94952
516 1 14.1578 11.0029 11.0124 -9.05609
519 1 1.5712 14.1525 11.0071 -8.95008
520 1 4.71301 14.1539 11.0074 -8.951
521 1 7.85018 14.1632 11.0159 -9.02472
529 1 11.0068 17.3057 11.0069 -8.95916
398 1 17.297 11.0068 4.71687 -8.94965
1 1 -0.000161104 22.0141 -0.000124636 -8.94948
5 1 6.28951 22.0141 -0.000340707 -8.94962
399 1 20.4414 11.0068 4.71683 -8.94957
530 1 14.152 17.297 11.0065 -8.95092
532 1 20.4414 17.2972 11.007 -8.94956
534 1 4.71632 20.4427 11.0069 -8.94948
11 1 15.7244 22.0138 -5.74124e-05 -8.94962
686 1 20.4415 20.4416 20.4415 -8.94952
685 1 18.8692 18.8692 18.8692 -8.94947
514 1 7.85911 11.0065 11.0141 -9.0307
684 1 17.2967 20.4414 20.4415 -8.94965
307 1 18.8693 22.0137 18.8693 -8.94955
683 1 15.7243 18.869 18.869 -8.94978
682 1 14.1519 20.4414 20.4413 -8.94962
303 1 12.5795 22.0134 18.8692 -8.94961
301 1 9.43455 22.0136 18.8691 -8.94961
297 1 3.14463 22.014 18.8691 -8.94958
522 1 11.006 14.1866 11.0218 -9.25428
523 1 14.1566 14.1536 11.0098 -8.99599
524 1 17.2998 14.1526 11.0081 -8.9484
525 1 20.4423 14.1522 11.0072 -8.9499
526 1 1.57141 17.2976 11.007 -8.94952
527 1 4.7152 17.2987 11.007 -8.94925
528 1 7.85967 17.301 11.0073 -8.95123
295 1 -4.44733e-05 22.0139 18.8692 -8.94952
639 1 4.7168 11.0069 20.4412 -8.94964
531 1 17.2972 17.297 11.007 -8.94958
643 1 17.2972 11.0068 20.442 -8.94959
256 1 15.7247 22.0133 15.7247 -8.94961
383 1 6.28933 18.8697 22.0131 -8.94964
535 1 7.86128 20.4431 11.0069 -8.94999
536 1 11.007 20.4433 11.0069 -8.952
537 1 14.1521 20.4415 11.0069 -8.94953
377 1 18.8691 15.7244 22.0138 -8.94964
389 1 15.7243 18.8692 22.0136 -8.94965
681 1 12.5794 18.8689 18.8688 -8.94962
680 1 11.007 20.4414 20.4412 -8.94961
679 1 9.43455 18.869 18.8687 -8.94962
543 1 11.0086 11.0059 14.1623 -9.01868
678 1 7.86203 20.4416 20.4411 -8.94962
677 1 6.28952 18.8693 18.8688 -8.94975
676 1 4.71702 20.4418 20.4412 -8.94965
547 1 22.0142 12.5794 12.5797 -8.94981
548 1 1.57196 14.1521 14.1522 -8.94968
549 1 3.14356 12.5796 12.5797 -8.94993
550 1 4.71566 14.1525 14.1526 -8.94951
551 1 6.28607 12.58 12.5808 -8.9495
552 1 7.85972 14.1529 14.1542 -8.95113
553 1 9.42739 12.5798 12.5824 -9.0307
554 1 11.0065 14.148 14.148 -8.99582
555 1 12.5938 12.5836 12.5933 -9.01913
556 1 14.1564 14.154 14.1559 -8.94505
557 1 15.729 12.5789 12.5812 -8.95274
558 1 17.2987 14.1521 14.153 -8.95027
559 1 18.871 12.5792 12.5801 -8.94998
560 1 20.4422 14.152 14.1523 -8.94979
561 1 -0.000252063 15.7248 12.5797 -8.94977
562 1 1.57171 17.2974 14.1522 -8.94961
563 1 3.14295 15.7255 12.58 -8.94999
564 1 4.71551 17.2983 14.1529 -8.94837
565 1 6.28493 15.7283 12.5823 -8.94578
566 1 7.86114 17.2977 14.1523 -8.94928
567 1 9.43137 15.7259 12.5796 -8.98118
568 1 11.007 17.2957 14.1506 -8.94988
569 1 12.582 15.7243 12.5794 -8.98205
570 1 14.1526 17.297 14.1522 -8.94993
571 1 15.7263 15.725 12.5804 -8.9489
572 1 17.2974 17.297 14.1523 -8.94934
573 1 18.8701 15.7248 12.58 -8.9494
574 1 20.4417 17.2971 14.1522 -8.94953
575 1 22.0136 18.8696 12.5795 -8.94958
576 1 1.57204 20.442 14.152 -8.94961
577 1 3.14387 18.8701 12.5796 -8.94957
578 1 4.71652 20.4423 14.1522 -8.94964
579 1 6.28824 18.8709 12.5799 -8.95004
580 1 7.86159 20.442 14.1522 -8.94939
581 1 9.43352 18.8708 12.5799 -8.94824
582 1 11.007 20.4412 14.1519 -8.94915
583 1 12.5803 18.87 12.5799 -8.94816
584 1 14.1523 20.4413 14.1522 -8.94951
585 1 15.7247 18.8691 12.5794 -8.9501
586 1 17.297 20.4414 14.152 -8.94974
587 1 18.8693 18.8693 12.5795 -8.94968
588 1 20.4415 20.4416 14.152 -8.94963
589 1 1.57241 11.0069 17.297 -8.94959
590 1 4.7168 11.0068 17.2972 -8.94955
675 1 3.14448 18.8695 18.869 -8.94958
674 1 1.57215 20.4418 20.4413 -8.94953
673 1 22.0138 18.8693 18.8691 -8.94957
594 1 17.2979 11.0066 17.2979 -8.94956
595 1 20.4421 11.0068 17.2973 -8.94957
596 1 0.000288506 12.5794 15.7247 -8.94964
597 1 1.57223 14.152 17.2969 -8.9496
598 1 3.14432 12.5795 15.7247 -8.94955
599 1 4.71667 14.1521 17.2969 -8.94959
600 1 6.28863 12.5795 15.7253 -8.94923
601 1 7.86161 14.1521 17.2971 -8.95003
602 1 9.43396 12.5796 15.7261 -8.94858
603 1 11.0071 14.1517 17.2963 -8.94776
604 1 12.5815 12.5797 15.7284 -8.952
605 1 14.153 14.1523 17.2981 -8.94998
606 1 15.7264 12.5793 15.7262 -8.94892
607 1 17.2976 14.152 17.2975 -8.94957
608 1 18.8703 12.5793 15.7252 -8.94951
609 1 20.4419 14.1519 17.2971 -8.94958
610 1 22.0139 15.7245 15.7246 -8.94964
611 1 1.57212 17.297 17.2968 -8.9496
612 1 3.14414 15.7248 15.7247 -8.94959
613 1 4.71671 17.2972 17.2969 -8.9496
614 1 6.28866 15.7251 15.7252 -8.94968
615 1 7.8621 17.2967 17.2964 -8.95001
616 1 9.43486 15.7237 15.7235 -8.95086
617 1 11.007 17.2964 17.2961 -8.94942
618 1 12.5791 15.7233 15.7235 -8.95105
619 1 14.1518 17.2964 17.2965 -8.95011
620 1 15.7257 15.7251 15.7256 -8.94821
621 1 17.2972 17.297 17.2972 -8.94921
622 1 18.8698 15.7246 15.7249 -8.94966
623 1 20.4417 17.2969 17.2969 -8.94958
624 1 -0.000179023 18.8695 15.7245 -8.94953
625 1 1.57215 20.4418 17.2968 -8.94946
626 1 3.14415 18.8698 15.7247 -8.94921
627 1 4.71696 20.4417 17.2968 -8.94962
628 1 6.28921 18.8696 15.7245 -8.94958
629 1 7.86207 20.4413 17.2966 -8.94973
630 1 9.43463 18.8688 15.724 -8.94991
631 1 11.007 20.4411 17.2966 -8.94963
632 1 12.5793 18.8685 15.724 -8.94985
633 1 14.1519 20.441 17.2967 -8.94972
634 1 15.7246 18.8691 15.7245 -8.94967
635 1 17.2969 20.4413 17.2969 -8.94961
636 1 18.8693 18.8693 15.7245 -8.94954
637 1 20.4415 20.4416 17.2968 -8.94956
672 1 20.4415 17.2969 20.4415 -8.9496
671 1 18.8694 15.7244 18.8694 -8.94961
670 1 17.2969 17.2969 20.4415 -8.94954
669 1 15.7248 15.7246 18.8695 -8.9496
668 1 14.1519 17.2968 20.4412 -8.94961
667 1 12.5795 15.7243 18.8687 -8.9494
666 1 11.007 17.2968 20.4408 -8.94958
645 1 22.014 12.5794 18.8693 -8.94959
646 1 1.5721 14.152 20.4413 -8.94959
647 1 3.14451 12.5795 18.8691 -8.94959
648 1 4.71671 14.1521 20.441 -8.94966
649 1 6.28923 12.5795 18.8691 -8.94966
650 1 7.86171 14.1522 20.4407 -8.94985
651 1 9.43445 12.5795 18.8693 -8.9498
652 1 11.007 14.1521 20.4409 -8.94933
653 1 12.5799 12.5795 18.87 -8.95035
654 1 14.1523 14.1521 20.4415 -8.94984
655 1 15.7251 12.5794 18.87 -8.94951
656 1 17.2971 14.152 20.4417 -8.94959
657 1 18.8696 12.5794 18.8696 -8.94959
658 1 20.4416 14.1519 20.4416 -8.9496
659 1 -6.27715e-05 15.7245 18.8692 -8.94959
660 1 1.57206 17.297 20.4412 -8.94959
661 1 3.14443 15.7246 18.869 -8.94962
662 1 4.71677 17.2972 20.441 -8.94967
663 1 6.28925 15.7247 18.8689 -8.94978
664 1 7.86194 17.297 20.4407 -8.94965
665 1 9.43454 15.7244 18.8684 -8.94949
197 1 -4.87683e-05 22.0141 12.5794 -8.9496
199 1 3.14444 22.0145 12.5795 -8.94957
203 1 9.43431 22.014 12.5798 -8.94977
205 1 12.5799 22.0135 12.5798 -8.9498
209 1 18.8694 22.0137 12.5795 -8.94962
250 1 6.28935 22.0139 15.7246 -8.94958
351 1 22.0137 12.5795 22.0137 -8.9496
355 1 6.28897 12.5797 22.0128 -8.94974
367 1 3.14415 15.7247 22.0131 -8.94959
371 1 9.43431 15.7249 22.0127 -8.9496
373 1 12.5795 15.7247 22.0132 -8.94952
361 1 15.7247 12.5795 22.014 -8.94957
379 1 22.0136 18.8694 22.0136 -8.94957
533 1 1.5719 20.4422 11.0069 -8.94958
