ITEM: TIMESTEP
64
ITEM: NUMBER OF ATOMS
688
ITEM: BOX BOUNDS pp pp pp
0.0000000000000000e+00 2.2013900999999997e+01
0.0000000000000000e+00 2.2013900999999997e+01
0.0000000000000000e+00 2.2013900999999997e+01
ITEM: ATOMS id type x y z c_pot
513 1 4.71477 11.006 11.008 -8.9486
2 1 1.57224 1.57239 1.57223 -8.94953
175 1 18.8701 9.43404 9.43449 -8.94945
4 1 4.71704 1.57234 1.57216 -8.94964
512 1 1.57173 11.0066 11.0072 -8.94982
6 1 7.86199 1.57232 1.57214 -8.94961
448 1 20.4422 11.0066 7.86171 -8.94989
8 1 11.007 1.57231 1.57214 -8.9496
447 1 17.2995 11.0057 7.86075 -8.94845
10 1 14.152 1.57231 1.57216 -8.94962
174 1 15.7264 9.43371 9.43473 -8.95054
12 1 17.2969 1.57232 1.57221 -8.94959
445 1 11.0257 11.0045 7.80632 -9.23277
14 1 20.4416 1.57238 1.57229 -8.94958
151 1 9.43424 0.000644294 9.43429 -8.95055
16 1 1.57222 4.71704 1.57218 -8.94952
17 1 3.14462 3.14467 -0.000107897 -8.94957
18 1 4.71687 4.71688 1.57203 -8.94955
443 1 4.7137 11.0058 7.86053 -8.95065
20 1 7.86189 4.71681 1.57201 -8.94965
21 1 9.43447 3.1446 -0.000127235 -8.94961
22 1 11.007 4.71681 1.57199 -8.9496
23 1 12.5795 3.1446 -0.000125752 -8.94962
24 1 14.1521 4.7168 1.57202 -8.94971
442 1 1.57153 11.0066 7.86175 -8.95017
26 1 17.297 4.71688 1.5721 -8.94945
27 1 18.8693 3.14466 -6.80892e-05 -8.94953
28 1 20.4416 4.71704 1.57222 -8.94954
29 1 -3.55747e-05 6.28954 -0.000100222 -8.94962
30 1 1.57218 7.86191 1.57213 -8.94963
193 1 11.0094 7.84974 11.0103 -9.01766
32 1 4.71673 7.86174 1.57186 -8.94969
33 1 6.28927 6.28924 -0.00027923 -8.94959
34 1 7.8615 7.86136 1.57136 -8.9495
192 1 7.85931 7.85775 11.0109 -8.98109
36 1 11.007 7.86149 1.5714 -8.9494
191 1 4.71667 7.86168 11.0069 -8.95108
38 1 14.1526 7.86131 1.57134 -8.94946
39 1 15.7247 6.28921 -0.000248255 -8.94956
40 1 17.2971 7.86181 1.57201 -8.94974
190 1 1.57222 7.86176 11.007 -8.9496
42 1 20.4416 7.86194 1.57218 -8.94964
349 1 17.2971 11.0069 1.57203 -8.9496
44 1 3.14452 9.43441 -0.000188633 -8.9496
345 1 4.71672 11.0069 1.57179 -8.94954
688 2 10.2376 11.0359 9.44559 0.660537
47 1 12.5798 9.43414 -0.000721918 -8.95001
48 1 15.7247 9.43436 -0.000227617 -8.94964
49 1 18.8693 9.43444 -0.000115228 -8.94961
50 1 22.0138 0.000102204 3.14466 -8.94962
51 1 1.5722 1.57241 4.71708 -8.94964
173 1 12.5841 9.43017 9.4338 -9.03997
53 1 4.71672 1.5723 4.71675 -8.94954
54 1 6.28944 0.000160513 3.1444 -8.94964
55 1 7.86187 1.57227 4.71673 -8.94963
172 1 9.41547 9.38982 9.43396 -9.25876
57 1 11.007 1.57224 4.71673 -8.9496
171 1 6.29133 9.43612 9.43485 -8.99905
59 1 14.1522 1.57219 4.71675 -8.94962
60 1 15.7245 9.32913e-05 3.14447 -8.94961
61 1 17.297 1.57233 4.71696 -8.94961
170 1 3.14441 9.43413 9.43456 -8.94827
63 1 20.4416 1.57239 4.71712 -8.94962
64 1 -4.9247e-05 3.1447 3.14467 -8.94964
65 1 1.57216 4.717 4.71704 -8.94974
66 1 3.14446 3.14459 3.14449 -8.9495
67 1 4.7165 4.71652 4.71656 -8.94929
68 1 6.28936 3.14449 3.14436 -8.94972
69 1 7.86176 4.71644 4.71648 -8.95002
70 1 9.43445 3.14445 3.14435 -8.94959
71 1 11.007 4.7164 4.71642 -8.94952
72 1 12.5796 3.14445 3.14434 -8.94963
73 1 14.1524 4.71626 4.71645 -8.94967
74 1 15.7246 3.14445 3.14441 -8.94959
75 1 17.2972 4.71673 4.71681 -8.94958
76 1 18.8693 3.14463 3.1446 -8.9496
77 1 20.4417 4.717 4.71706 -8.94967
78 1 22.0138 6.28937 3.14451 -8.94955
79 1 1.57193 7.86162 4.71674 -8.94957
80 1 3.14428 6.2892 3.14431 -8.94935
81 1 4.71594 7.86101 4.71604 -8.9486
82 1 6.28897 6.28888 3.14386 -8.94944
83 1 7.86085 7.86049 4.71496 -8.94942
84 1 9.43435 6.28884 3.14397 -8.94954
85 1 11.0069 7.86112 4.71534 -8.94944
86 1 12.5797 6.28888 3.14395 -8.94991
87 1 14.1537 7.86004 4.715 -8.9474
88 1 15.725 6.28883 3.14395 -8.94904
89 1 17.2978 7.86127 4.71636 -8.94935
90 1 18.8695 6.28926 3.14441 -8.9495
91 1 20.4418 7.86167 4.7168 -8.94962
92 1 -9.37414e-05 9.43435 3.14447 -8.94958
93 1 3.14427 9.43425 3.14422 -8.94962
94 1 6.28883 9.43406 3.14345 -8.95025
95 1 9.43356 9.43324 3.14198 -8.94833
96 1 12.5807 9.43311 3.14177 -8.94905
97 1 15.725 9.43419 3.14392 -8.95013
98 1 18.8694 9.43434 3.14438 -8.94968
169 1 9.41254e-05 9.43416 9.43451 -8.94941
100 1 1.5722 1.5724 7.86203 -8.94961
101 1 3.14442 0.000210215 6.28945 -8.94959
102 1 4.71672 1.57237 7.8619 -8.94954
168 1 18.8697 6.28917 9.43445 -8.94956
104 1 7.86149 1.57197 7.86155 -8.94992
105 1 9.43444 0.000312044 6.28911 -8.94962
106 1 11.0072 1.5719 7.86158 -8.94967
107 1 12.5798 0.00021937 6.28912 -8.94967
108 1 14.1524 1.5722 7.86173 -8.94967
167 1 15.7254 6.28842 9.43434 -8.9489
110 1 17.2971 1.57231 7.86194 -8.9496
111 1 18.8693 0.000116019 6.28952 -8.94962
112 1 20.4416 1.57238 7.86204 -8.94962
113 1 22.0139 3.1447 6.28958 -8.94962
114 1 1.5722 4.71701 7.86203 -8.94962
115 1 3.14443 3.14465 6.28949 -8.9497
116 1 4.71666 4.71682 7.86195 -8.94981
117 1 6.28883 3.14399 6.28888 -8.94944
118 1 7.86064 4.71459 7.8607 -8.94856
119 1 9.43442 3.14402 6.28907 -8.94951
120 1 11.0078 4.71477 7.86098 -8.94804
121 1 12.5799 3.14391 6.28893 -8.94957
122 1 14.1527 4.7159 7.86155 -8.94983
123 1 15.7248 3.14434 6.28925 -8.94964
124 1 17.2973 4.71669 7.86187 -8.94957
125 1 18.8694 3.14461 6.2895 -8.94962
126 1 20.4417 4.71698 7.862 -8.94961
127 1 -4.89076e-06 6.28939 6.28952 -8.94967
128 1 1.57221 7.86176 7.86202 -8.94957
129 1 3.14433 6.28928 6.28946 -8.9501
130 1 4.71674 7.86181 7.86215 -8.95142
131 1 6.28817 6.28782 6.28812 -8.94864
132 1 7.85907 7.85804 7.85772 -8.98188
133 1 9.43456 6.28792 6.28884 -8.95067
134 1 11.0091 7.85929 7.86027 -9.00199
135 1 12.5803 6.28749 6.28826 -8.95067
136 1 14.1539 7.85934 7.86104 -8.95024
137 1 15.7253 6.28848 6.28887 -8.94953
138 1 17.2977 7.8613 7.8618 -8.95007
139 1 18.8696 6.2892 6.28939 -8.94972
140 1 20.4418 7.86171 7.86195 -8.94959
141 1 22.0138 9.43412 6.28925 -8.94981
142 1 3.14346 9.43375 6.28875 -8.94976
143 1 6.28626 9.43218 6.28625 -8.94623
144 1 9.43163 9.43117 6.28527 -8.99775
145 1 12.5838 9.42855 6.28368 -8.979
146 1 15.7267 9.43271 6.28773 -8.94899
147 1 18.8701 9.43384 6.28892 -8.94956
148 1 -6.25656e-05 0.000105149 9.43452 -8.94961
166 1 12.5804 6.2865 9.43388 -8.94862
150 1 6.28902 0.000389207 9.43445 -8.94955
165 1 9.43346 6.27795 9.43398 -8.96124
152 1 12.5799 0.000517833 9.43428 -8.94967
153 1 15.7248 0.000186438 9.43443 -8.9496
164 1 6.28942 6.28892 9.43443 -8.9496
155 1 -2.98551e-05 3.14469 9.43451 -8.94961
156 1 3.14445 3.14463 9.4345 -8.94961
157 1 6.28899 3.14417 9.43443 -8.94918
158 1 9.4342 3.14214 9.43429 -8.95245
159 1 12.5799 3.14358 9.43427 -8.94956
160 1 15.7249 3.14426 9.4344 -8.94954
161 1 18.8694 3.14459 9.43448 -8.94961
162 1 22.014 6.28937 9.4345 -8.94962
163 1 3.14447 6.28927 9.4345 -8.94943
344 1 1.57216 11.0069 1.57211 -8.9496
350 1 20.4416 11.0069 1.57217 -8.9496
181 1 17.2971 1.57228 11.007 -8.9496
188 1 17.2973 4.71663 11.007 -8.94958
177 1 4.71672 1.57235 11.0071 -8.94954
184 1 4.71665 4.71679 11.007 -8.94981
189 1 20.4417 4.71696 11.007 -8.94961
644 1 20.4416 11.0069 20.4415 -8.94961
3 1 3.14467 6.26501e-05 22.0138 -8.9496
178 1 7.86148 1.57188 11.0072 -8.94985
179 1 11.0072 1.57178 11.0072 -8.95055
180 1 14.1524 1.57211 11.007 -8.94962
46 1 9.43423 9.43413 22.0132 -8.94985
182 1 20.4416 1.57237 11.007 -8.94962
183 1 1.5722 4.71701 11.007 -8.94961
252 1 9.43442 7.1428e-05 15.7248 -8.94954
185 1 7.86068 4.71443 11.008 -8.94853
186 1 11.0078 4.71292 11.0079 -8.95089
187 1 14.1527 4.71566 11.0071 -8.94978
642 1 14.1522 11.007 20.4416 -8.94969
254 1 12.5796 4.75048e-05 15.7248 -8.94954
641 1 11.007 11.0069 20.4415 -8.95052
640 1 7.86176 11.007 20.4415 -8.94971
45 1 6.28926 9.43434 22.0135 -8.94974
638 1 1.57224 11.0069 20.4415 -8.9496
194 1 14.1542 7.85888 11.0073 -8.94927
195 1 17.298 7.86112 11.0071 -8.94974
196 1 20.4419 7.86168 11.007 -8.94963
343 1 18.8694 9.43443 18.8693 -8.94961
198 1 1.5722 1.57239 14.152 -8.94964
342 1 15.7248 9.43431 18.8697 -8.94957
200 1 4.71668 1.57224 14.1522 -8.94955
201 1 6.28903 0.000280859 12.5798 -8.94971
202 1 7.86164 1.57214 14.1525 -8.94971
341 1 12.5798 9.43413 18.8702 -8.95019
204 1 11.007 1.57203 14.1525 -8.94955
340 1 9.43421 9.43415 18.87 -8.94996
206 1 14.1524 1.57202 14.1525 -8.94973
207 1 15.7247 0.00015021 12.5796 -8.94963
208 1 17.2971 1.57226 14.152 -8.94964
339 1 6.28919 9.43434 18.8696 -8.94967
210 1 20.4416 1.57237 14.1519 -8.94962
211 1 22.0139 3.14469 12.5794 -8.94962
212 1 1.57215 4.71699 14.152 -8.94973
213 1 3.14441 3.14463 12.5795 -8.94969
214 1 4.71638 4.71649 14.1525 -8.94934
215 1 6.28878 3.14391 12.58 -8.9494
216 1 7.86121 4.71564 14.153 -8.94992
217 1 9.4342 3.14337 12.5801 -8.94986
218 1 11.007 4.71556 14.153 -8.94928
219 1 12.5801 3.1432 12.5802 -8.95003
220 1 14.1531 4.71526 14.1531 -8.94966
221 1 15.7249 3.1442 12.5796 -8.94962
222 1 17.2974 4.71659 14.1522 -8.94968
223 1 18.8694 3.14457 12.5795 -8.94962
224 1 20.4417 4.71696 14.152 -8.94966
225 1 2.70989e-05 6.28937 12.5795 -8.94968
226 1 1.57199 7.8617 14.1522 -8.94967
227 1 3.14427 6.28927 12.5796 -8.95001
228 1 4.71585 7.86119 14.1528 -8.94951
229 1 6.28801 6.2878 12.5808 -8.94859
230 1 7.85914 7.85869 14.1557 -8.94705
231 1 9.43355 6.28551 12.5812 -8.95036
232 1 11.007 7.85953 14.1548 -8.94939
233 1 12.5816 6.28465 12.582 -8.95093
234 1 14.1563 7.85738 14.1565 -8.94377
235 1 15.7256 6.28824 12.58 -8.94968
236 1 17.2983 7.86109 14.1528 -8.95002
237 1 18.8697 6.28913 12.5796 -8.94965
238 1 20.4419 7.86169 14.1522 -8.94973
239 1 22.0139 9.43416 12.5797 -8.94979
240 1 3.14369 9.43393 12.5801 -8.94984
241 1 6.28674 9.43307 12.5816 -8.9504
242 1 9.42617 9.42522 12.5884 -9.02749
243 1 12.5926 9.4207 12.5926 -9.00147
244 1 15.7278 9.43276 12.5811 -8.95251
245 1 18.8704 9.43389 12.58 -8.94984
246 1 22.0138 8.77245e-05 15.7244 -8.94962
247 1 1.57223 1.57237 17.2968 -8.94956
248 1 3.14445 0.00012715 15.7246 -8.94956
249 1 4.7169 1.57229 17.297 -8.94956
338 1 3.1445 9.43442 18.8693 -8.9496
251 1 7.86191 1.57224 17.2971 -8.94958
337 1 22.0139 9.43445 18.8692 -8.94961
253 1 11.007 1.57222 17.2971 -8.94958
336 1 20.4416 7.862 20.4415 -8.94961
255 1 14.152 1.57221 17.2971 -8.94959
335 1 18.8694 6.28944 18.8693 -8.94961
257 1 17.297 1.57225 17.297 -8.94951
258 1 18.8693 7.75192e-05 15.7244 -8.94964
259 1 20.4416 1.57236 17.2968 -8.9496
260 1 -3.59192e-05 3.14469 15.7244 -8.94964
261 1 1.57219 4.71702 17.2969 -8.94959
262 1 3.14441 3.14457 15.7246 -8.94953
263 1 4.71665 4.71673 17.2972 -8.94933
264 1 6.28909 3.14427 15.7249 -8.94963
265 1 7.86174 4.71665 17.2973 -8.94962
266 1 9.43434 3.14419 15.7249 -8.9495
267 1 11.007 4.71661 17.2974 -8.94955
268 1 12.5796 3.14417 15.725 -8.94954
269 1 14.1522 4.71658 17.2974 -8.94968
270 1 15.7249 3.14413 15.7249 -8.94952
271 1 17.2973 4.71664 17.2973 -8.94914
272 1 18.8694 3.14457 15.7245 -8.94964
273 1 20.4417 4.717 17.2969 -8.94958
274 1 22.0139 6.28938 15.7245 -8.94964
275 1 1.57217 7.86191 17.297 -8.94962
276 1 3.1442 6.28921 15.7247 -8.94957
277 1 4.71662 7.86173 17.2973 -8.9496
278 1 6.28836 6.28837 15.7257 -8.94874
279 1 7.86132 7.86125 17.2981 -8.94991
280 1 9.43415 6.28836 15.7257 -8.94941
281 1 11.007 7.86124 17.2982 -8.94937
282 1 12.5799 6.28829 15.7258 -8.94978
283 1 14.1528 7.86107 17.2984 -8.94998
284 1 15.7259 6.288 15.7259 -8.94801
285 1 17.2974 7.86169 17.2973 -8.94957
286 1 18.8698 6.28915 15.7248 -8.94964
287 1 20.4417 7.86191 17.297 -8.94962
288 1 -2.38365e-05 9.43437 15.7246 -8.94964
289 1 3.14421 9.43428 15.7248 -8.94961
290 1 6.28859 9.43399 15.7257 -8.94959
291 1 9.43353 9.43309 15.7277 -8.95021
292 1 12.581 9.43281 15.7284 -8.95154
293 1 15.7257 9.43384 15.7257 -8.94926
294 1 18.8697 9.43429 15.7248 -8.94963
334 1 17.297 7.86189 20.4416 -8.94961
296 1 1.5723 1.57237 20.4415 -8.94953
333 1 15.7248 6.28909 18.8697 -8.94961
298 1 4.7171 1.57233 20.4415 -8.94962
299 1 6.28953 3.05017e-05 18.8693 -8.94964
300 1 7.86201 1.57232 20.4415 -8.94961
332 1 14.1523 7.86165 20.4417 -8.94983
302 1 11.007 1.57232 20.4415 -8.94961
331 1 12.5796 6.28912 18.8697 -8.94956
304 1 14.1519 1.57231 20.4415 -8.94961
305 1 15.7244 1.29391e-05 18.8693 -8.94964
306 1 17.2968 1.57232 20.4415 -8.94962
330 1 11.007 7.86167 20.4416 -8.94965
308 1 20.4416 1.57236 20.4415 -8.9495
309 1 22.0139 3.14471 18.8692 -8.94956
310 1 1.57227 4.7171 20.4415 -8.94959
311 1 3.14456 3.14463 18.8693 -8.94949
312 1 4.71693 4.71696 20.4416 -8.94957
313 1 6.28944 3.14457 18.8693 -8.94963
314 1 7.86191 4.71691 20.4416 -8.9496
315 1 9.43444 3.14454 18.8694 -8.9496
316 1 11.007 4.7169 20.4416 -8.9496
317 1 12.5795 3.14454 18.8694 -8.9496
318 1 14.152 4.71689 20.4416 -8.94961
319 1 15.7245 3.14453 18.8694 -8.94964
320 1 17.297 4.71692 20.4416 -8.94953
321 1 18.8693 3.14461 18.8693 -8.94943
322 1 20.4416 4.71711 20.4415 -8.94959
323 1 -1.8146e-05 6.28953 18.8692 -8.94961
324 1 1.57225 7.86199 20.4415 -8.94961
325 1 3.1445 6.28945 18.8693 -8.94961
326 1 4.71688 7.86189 20.4415 -8.94965
327 1 6.28917 6.28919 18.8696 -8.94964
328 1 7.86171 7.86168 20.4416 -8.94976
329 1 9.43434 6.28914 18.8696 -8.94956
593 1 14.1527 11.0069 17.2982 -8.94962
592 1 11.007 11.0069 17.2994 -8.95211
515 1 11.0337 10.9519 11.0932 -9.37737
517 1 17.2994 11.0058 11.008 -8.94771
518 1 20.4423 11.0066 11.0072 -8.94972
540 1 1.57197 11.0068 14.1523 -8.94962
541 1 4.71598 11.0068 14.1529 -8.94935
542 1 7.86052 11.0065 14.1551 -8.94966
544 1 14.1547 11.0061 14.1554 -8.94814
545 1 17.2981 11.0067 14.1528 -8.94975
546 1 20.4419 11.0068 14.1522 -8.94969
591 1 7.86154 11.0069 17.2979 -8.94982
7 1 9.43451 4.95063e-05 22.0138 -8.94962
9 1 12.5794 4.45104e-05 22.0138 -8.94962
13 1 18.8692 4.22162e-05 22.0138 -8.94958
19 1 6.2895 3.14462 22.0138 -8.94963
25 1 15.7244 3.1446 22.0138 -8.94964
31 1 3.14454 6.28945 22.0137 -8.94961
35 1 9.43439 6.28922 22.0136 -8.94958
37 1 12.5795 6.28922 22.0137 -8.94959
41 1 18.8693 6.28947 22.0138 -8.94963
43 1 22.0139 9.43445 22.0138 -8.94961
15 1 22.0139 3.14473 22.0138 -8.94954
176 1 1.5722 1.5724 11.007 -8.94961
687 2 10.9959 12.5505 10.2039 0.660537
511 1 18.8695 18.8695 9.4345 -8.9496
346 1 7.86169 11.0069 1.57123 -8.94977
347 1 11.007 11.0069 1.5696 -8.95291
348 1 14.1524 11.0069 1.57148 -8.94942
510 1 15.7251 18.8699 9.43445 -8.94952
539 1 20.4416 20.4417 11.007 -8.94961
154 1 18.8693 22.014 9.4345 -8.9496
352 1 1.57214 14.1519 1.5721 -8.94961
353 1 3.1445 12.5794 -0.000205795 -8.94959
354 1 4.71666 14.152 1.57175 -8.94963
538 1 17.2971 20.4419 11.007 -8.94959
356 1 7.86149 14.1524 1.5711 -8.94984
357 1 9.43425 12.5797 -0.000807038 -8.94972
358 1 11.007 14.1523 1.57135 -8.94945
359 1 12.5798 12.5797 -0.000745746 -8.94989
360 1 14.1526 14.1525 1.57133 -8.94956
393 1 1.57189 11.0068 4.7167 -8.9495
362 1 17.2971 14.152 1.57204 -8.94968
363 1 18.8693 12.5794 -0.000115499 -8.9496
364 1 20.4416 14.1519 1.57217 -8.94961
365 1 -5.3762e-05 15.7243 -0.000117893 -8.94961
366 1 1.57215 17.2969 1.57208 -8.94961
149 1 3.14441 22.0141 9.43451 -8.94958
368 1 4.71672 17.2972 1.57171 -8.94964
369 1 6.28926 15.7246 -0.0004684 -8.94973
370 1 7.86189 17.2972 1.57175 -8.94965
109 1 15.7247 22.0141 6.28928 -8.94962
372 1 11.007 17.2972 1.57181 -8.94956
103 1 6.28903 22.0143 6.28905 -8.94973
374 1 14.1521 17.2971 1.5719 -8.94972
375 1 15.7247 15.7247 -0.00031839 -8.94962
376 1 17.2971 17.2971 1.57197 -8.9495
99 1 -6.85816e-05 22.014 6.28957 -8.94961
378 1 20.4416 17.2969 1.57216 -8.94963
394 1 4.71605 11.0067 4.71596 -8.9491
380 1 1.57219 20.4417 1.57214 -8.94943
381 1 3.14457 18.8693 -0.000220598 -8.94958
382 1 4.71701 20.4418 1.57206 -8.94964
62 1 18.8693 22.014 3.14461 -8.94959
384 1 7.862 20.4417 1.57206 -8.94962
385 1 9.4345 18.8694 -0.000230561 -8.94961
386 1 11.007 20.4417 1.57208 -8.94961
387 1 12.5795 18.8693 -0.000215411 -8.94961
388 1 14.152 20.4417 1.5721 -8.94962
58 1 12.5795 22.014 3.14441 -8.9496
390 1 17.2969 20.4417 1.57215 -8.9496
391 1 18.8693 18.8693 -0.000129404 -8.94954
392 1 20.4415 20.4417 1.57222 -8.94953
509 1 12.5805 18.8716 9.43373 -8.94804
508 1 9.43354 18.8734 9.43371 -8.95089
395 1 7.86133 11.0069 4.7142 -8.95229
396 1 11.0074 11.007 4.70472 -8.96552
397 1 14.1524 11.0069 4.71548 -8.9512
507 1 6.28843 18.8708 9.43444 -8.94928
506 1 3.14412 18.8697 9.43451 -8.94955
400 1 -0.000116829 12.5794 3.14446 -8.94959
401 1 1.57181 14.152 4.71667 -8.94957
402 1 3.1442 12.5794 3.1442 -8.94957
403 1 4.71573 14.1525 4.71582 -8.94926
404 1 6.28867 12.5796 3.14338 -8.94975
405 1 7.86035 14.1536 4.71365 -8.95251
406 1 9.43351 12.5805 3.14206 -8.94771
407 1 11.0068 14.1526 4.71513 -8.95054
408 1 12.5807 12.5807 3.14199 -8.94845
409 1 14.1537 14.1536 4.71481 -8.94899
410 1 15.725 12.5795 3.1441 -8.94959
411 1 17.2976 14.1521 4.71653 -8.95013
412 1 18.8694 12.5794 3.14441 -8.9496
413 1 20.4417 14.152 4.71681 -8.94964
414 1 22.0138 15.7244 3.14445 -8.94961
415 1 1.57179 17.2972 4.71665 -8.94961
416 1 3.14415 15.7246 3.14411 -8.94957
417 1 4.71555 17.2983 4.71556 -8.94801
418 1 6.28866 15.7252 3.14313 -8.95002
419 1 7.86147 17.2981 4.71584 -8.94968
420 1 9.43437 15.7252 3.14352 -8.94974
421 1 11.0071 17.2979 4.71608 -8.9489
422 1 12.5797 15.725 3.14379 -8.95007
423 1 14.1526 17.2978 4.7162 -8.94953
424 1 15.7251 15.7251 3.14373 -8.94935
425 1 17.2975 17.2975 4.71643 -8.94904
426 1 18.8695 15.7245 3.14437 -8.94974
427 1 20.4417 17.2971 4.71678 -8.94956
428 1 -0.000123133 18.8694 3.14448 -8.94953
429 1 1.57212 20.4418 4.71699 -8.94964
430 1 3.14421 18.8697 3.14415 -8.94914
431 1 4.71656 20.4422 4.71655 -8.94952
432 1 6.28926 18.8697 3.14407 -8.94968
433 1 7.86184 20.4421 4.71658 -8.94962
434 1 9.43448 18.8697 3.14417 -8.94958
435 1 11.0071 20.4421 4.71662 -8.94954
436 1 12.5796 18.8696 3.14421 -8.94957
437 1 14.1522 20.442 4.71666 -8.94964
438 1 15.7247 18.8696 3.14427 -8.94958
439 1 17.2971 20.4419 4.71687 -8.94959
440 1 18.8694 18.8694 3.14445 -8.94945
441 1 20.4416 20.4417 4.71705 -8.94964
505 1 -0.000118253 18.8694 9.43452 -8.9496
504 1 18.8701 15.7248 9.4345 -8.9494
444 1 7.85172 11.0023 7.85158 -9.01779
503 1 15.7261 15.7252 9.43461 -8.94944
446 1 14.1562 11.0016 7.85817 -9.0333
502 1 12.5812 15.727 9.43239 -9.00199
501 1 9.43117 15.7366 9.43211 -9.01766
449 1 22.0137 12.5794 6.28925 -8.94969
450 1 1.57132 14.1522 7.86171 -8.95019
451 1 3.14327 12.5794 6.2888 -8.94962
452 1 4.71306 14.1535 7.86052 -8.95154
453 1 6.28604 12.5802 6.28682 -8.94814
454 1 7.8489 14.1656 7.84889 -9.00147
455 1 9.43142 12.5824 6.28646 -9.05437
456 1 11.0077 14.1562 7.85734 -9.03997
457 1 12.5833 12.5847 6.28529 -9.0333
458 1 14.1578 14.1578 7.85773 -8.979
459 1 15.726 12.5795 6.28906 -8.9512
460 1 17.2997 14.1532 7.86077 -8.94905
461 1 18.87 12.5794 6.28912 -8.94942
462 1 20.4422 14.1522 7.86171 -8.95001
463 1 -0.000188309 15.7247 6.28922 -8.94983
464 1 1.57182 17.2972 7.86191 -8.94956
465 1 3.14307 15.7253 6.28865 -8.94998
466 1 4.71571 17.298 7.8616 -8.94978
467 1 6.28496 15.7289 6.28516 -8.94377
468 1 7.85948 17.3017 7.85987 -8.95093
469 1 9.43416 15.7274 6.28728 -8.94927
470 1 11.0076 17.2998 7.86109 -8.94862
471 1 12.5804 15.727 6.28755 -8.95024
472 1 14.1532 17.2988 7.8612 -8.95067
473 1 15.7265 15.7263 6.2878 -8.9474
474 1 17.2975 17.2974 7.86182 -8.94991
475 1 18.8701 15.725 6.28892 -8.94946
476 1 20.4417 17.2971 7.86193 -8.94959
477 1 22.0138 18.8694 6.28947 -8.94961
478 1 1.57211 20.4418 7.862 -8.9496
479 1 3.1441 18.8697 6.28926 -8.94968
480 1 4.71652 20.4422 7.86184 -8.94954
481 1 6.28833 18.8711 6.28838 -8.94966
482 1 7.86126 20.4431 7.86135 -8.95003
483 1 9.43441 18.8707 6.28874 -8.94978
484 1 11.0072 20.4427 7.86156 -8.94956
485 1 12.5799 18.8704 6.28877 -8.94983
486 1 14.1526 20.4424 7.86158 -8.94957
487 1 15.725 18.8701 6.28904 -8.94967
488 1 17.2971 20.4419 7.86193 -8.94963
489 1 18.8695 18.8695 6.28941 -8.94971
490 1 20.4416 20.4417 7.86202 -8.94962
491 1 -4.6033e-05 12.5794 9.43451 -8.95052
492 1 3.1421 12.5794 9.43447 -8.95211
493 1 6.27874 12.5792 9.43374 -9.01642
494 1 9.34825 12.6344 9.40776 -9.37737
495 1 12.6352 12.5818 9.41579 -9.23277
496 1 15.7368 12.5793 9.4341 -8.96552
497 1 18.8719 12.5794 9.43444 -8.95291
498 1 22.0137 15.7247 9.43452 -8.94965
499 1 3.14331 15.7251 9.43452 -8.94937
500 1 6.28667 15.7268 9.43451 -8.94939
56 1 9.43449 22.014 3.1444 -8.9496
52 1 3.14447 22.0141 3.14446 -8.94951
516 1 14.155 11.0039 11.0101 -9.05437
519 1 1.57146 14.1522 11.0073 -8.94996
520 1 4.71382 14.1532 11.0079 -8.95021
521 1 7.85304 14.1611 11.0153 -9.02749
529 1 11.0075 17.3084 11.008 -8.96124
398 1 17.2974 11.0068 4.71649 -8.94959
1 1 -4.66326e-05 22.014 -8.33924e-05 -8.9495
5 1 6.28957 22.014 -0.000126936 -8.94962
399 1 20.4417 11.0068 4.7168 -8.94956
530 1 14.1526 17.2984 11.0069 -8.95067
532 1 20.4417 17.2971 11.0071 -8.94958
534 1 4.71655 20.4421 11.0071 -8.9495
11 1 15.7244 22.0139 -0.000105335 -8.94962
686 1 20.4416 20.4416 20.4415 -8.94954
685 1 18.8693 18.8693 18.8693 -8.94952
514 1 7.85801 11.0055 11.0135 -9.03354
684 1 17.2968 20.4416 20.4415 -8.94964
307 1 18.8692 22.0139 18.8692 -8.94953
683 1 15.7244 18.8693 18.8693 -8.94974
682 1 14.1519 20.4416 20.4415 -8.94962
303 1 12.5794 22.0139 18.8693 -8.94961
301 1 9.43449 22.0139 18.8693 -8.94961
297 1 3.14463 22.014 18.8693 -8.94956
522 1 11.0075 14.1965 11.026 -9.25876
523 1 14.1562 14.1552 11.0099 -8.99775
524 1 17.2995 14.1531 11.0079 -8.94833
525 1 20.4422 14.1522 11.0073 -8.94985
526 1 1.57185 17.2972 11.0071 -8.94956
527 1 4.71582 17.298 11.0073 -8.94941
528 1 7.86023 17.3008 11.0079 -8.95036
295 1 -3.86137e-05 22.014 18.8692 -8.94953
639 1 4.71688 11.0069 20.4415 -8.94963
531 1 17.2975 17.2975 11.0071 -8.94954
643 1 17.297 11.0069 20.4416 -8.94959
256 1 15.7247 22.014 15.7248 -8.94954
383 1 6.2895 18.8694 22.0137 -8.94966
535 1 7.86139 20.443 11.0073 -8.94986
536 1 11.0072 20.4442 11.0073 -8.95245
537 1 14.1524 20.4423 11.0071 -8.94951
377 1 18.8693 15.7244 22.0138 -8.94964
389 1 15.7244 18.8693 22.0137 -8.94967
681 1 12.5795 18.8693 18.8693 -8.94962
680 1 11.007 20.4416 20.4415 -8.94961
679 1 9.4345 18.8693 18.8693 -8.94961
543 1 11.0077 11.0071 14.1627 -9.01642
678 1 7.86203 20.4416 20.4415 -8.94962
677 1 6.28948 18.8693 18.8693 -8.94973
676 1 4.71709 20.4416 20.4415 -8.94964
547 1 22.0139 12.5794 12.5797 -8.94971
548 1 1.57191 14.152 14.1523 -8.94967
549 1 3.14353 12.5794 12.5799 -8.94982
550 1 4.71582 14.1523 14.1529 -8.94959
551 1 6.28642 12.5798 12.581 -8.94966
552 1 7.85983 14.1533 14.1547 -8.9504
553 1 9.428 12.5808 12.5835 -9.03354
554 1 11.0066 14.1502 14.1502 -8.99905
555 1 12.5899 12.584 12.5898 -9.01779
556 1 14.1552 14.1541 14.1552 -8.94623
557 1 15.7273 12.5795 12.5801 -8.95229
558 1 17.298 14.1523 14.1527 -8.95025
559 1 18.8702 12.5794 12.5798 -8.94977
560 1 20.4418 14.152 14.1522 -8.94974
561 1 -0.000121451 15.7246 12.5798 -8.94976
562 1 1.57189 17.2971 14.1523 -8.94964
563 1 3.14335 15.7251 12.5802 -8.94991
564 1 4.71575 17.298 14.1531 -8.94874
565 1 6.28576 15.7276 12.5823 -8.94705
566 1 7.8607 17.2985 14.1535 -8.94859
567 1 9.43058 15.7286 12.5822 -8.98109
568 1 11.007 17.2974 14.1521 -8.9496
569 1 12.5838 15.7283 12.5824 -8.98188
570 1 14.1534 17.2985 14.1533 -8.94864
571 1 15.7265 15.7258 12.5806 -8.94942
572 1 17.2976 17.2974 14.1525 -8.94944
573 1 18.8701 15.725 12.58 -8.9495
574 1 20.4418 17.2971 14.1522 -8.94959
575 1 22.0138 18.8694 12.5796 -8.9496
576 1 1.57213 20.4418 14.152 -8.94963
577 1 3.14415 18.8697 12.5797 -8.94962
578 1 4.71657 20.442 14.1524 -8.94963
579 1 6.28845 18.8707 12.5803 -8.94992
580 1 7.86145 20.4424 14.1527 -8.9494
581 1 9.43349 18.8719 12.5808 -8.94853
582 1 11.0071 20.4422 14.1525 -8.94918
583 1 12.5808 18.8717 12.5808 -8.94856
584 1 14.1526 20.4423 14.1527 -8.94944
585 1 15.725 18.8699 12.5797 -8.95002
586 1 17.2971 20.4418 14.1521 -8.94972
587 1 18.8695 18.8695 12.5796 -8.94965
588 1 20.4416 20.4417 14.152 -8.94963
589 1 1.57216 11.0069 17.297 -8.9496
590 1 4.71666 11.0069 17.2973 -8.94955
675 1 3.14457 18.8693 18.8693 -8.94959
674 1 1.57228 20.4416 20.4415 -8.94956
673 1 22.0139 18.8692 18.8692 -8.94959
594 1 17.2973 11.0069 17.2973 -8.94957
595 1 20.4417 11.0069 17.297 -8.94959
596 1 -4.36004e-05 12.5794 15.7246 -8.94963
597 1 1.57216 14.1519 17.297 -8.9496
598 1 3.14418 12.5794 15.7248 -8.94955
599 1 4.71665 14.152 17.2973 -8.94961
600 1 6.28855 12.5796 15.7255 -8.94935
601 1 7.86142 14.1524 17.2978 -8.94984
602 1 9.43351 12.5803 15.7267 -8.9486
603 1 11.0069 14.1522 17.2971 -8.94827
604 1 12.581 12.5805 15.7278 -8.95065
605 1 14.1527 14.1526 17.298 -8.94976
606 1 15.7255 12.5796 15.7254 -8.9491
607 1 17.2973 14.1521 17.2972 -8.94962
608 1 18.8697 12.5795 15.7248 -8.94954
609 1 20.4417 14.1519 17.297 -8.9496
610 1 22.0138 15.7244 15.7246 -8.94965
611 1 1.57217 17.2969 17.297 -8.94961
612 1 3.14419 15.7246 15.7249 -8.9496
613 1 4.71674 17.2971 17.2973 -8.94957
614 1 6.28866 15.7251 15.7256 -8.94951
615 1 7.86192 17.2971 17.2972 -8.95001
616 1 9.43459 15.7246 15.7248 -8.95108
617 1 11.007 17.297 17.297 -8.94943
618 1 12.5793 15.7245 15.7247 -8.95142
619 1 14.152 17.297 17.2972 -8.9501
620 1 15.7254 15.7253 15.7255 -8.9486
621 1 17.2972 17.2971 17.2972 -8.94935
622 1 18.8696 15.7246 15.7248 -8.94969
623 1 20.4416 17.2969 17.2969 -8.94961
624 1 -8.98777e-05 18.8694 15.7245 -8.94957
625 1 1.57219 20.4417 17.2969 -8.94949
626 1 3.14423 18.8696 15.7248 -8.94933
627 1 4.71691 20.4418 17.2971 -8.94953
628 1 6.28902 18.8698 15.7251 -8.94934
629 1 7.86196 20.4417 17.2971 -8.94969
630 1 9.43448 18.8695 15.7248 -8.94981
631 1 11.007 20.4417 17.297 -8.94961
632 1 12.5795 18.8695 15.7248 -8.94981
633 1 14.152 20.4417 17.297 -8.9497
634 1 15.7249 18.8698 15.725 -8.94929
635 1 17.297 20.4417 17.297 -8.9495
636 1 18.8694 18.8694 15.7246 -8.94955
637 1 20.4416 20.4417 17.2969 -8.94957
672 1 20.4416 17.2968 20.4415 -8.94962
671 1 18.8693 15.7244 18.8693 -8.94963
670 1 17.297 17.297 20.4415 -8.94955
669 1 15.7247 15.7247 18.8696 -8.94957
668 1 14.152 17.2969 20.4415 -8.94967
667 1 12.5795 15.7246 18.8693 -8.94957
666 1 11.007 17.297 20.4414 -8.94962
645 1 22.0139 12.5794 18.8692 -8.9496
646 1 1.57224 14.1519 20.4415 -8.94961
647 1 3.14449 12.5794 18.8693 -8.9496
648 1 4.71688 14.152 20.4415 -8.94964
649 1 6.2892 12.5795 18.8695 -8.94962
650 1 7.86175 14.1522 20.4414 -8.94979
651 1 9.43426 12.5797 18.8698 -8.94982
652 1 11.007 14.1522 20.4414 -8.94941
653 1 12.5797 12.5797 18.8699 -8.95017
654 1 14.1522 14.1522 20.4416 -8.94981
655 1 15.7248 12.5795 18.8696 -8.9495
656 1 17.297 14.152 20.4416 -8.94958
657 1 18.8694 12.5794 18.8693 -8.9496
658 1 20.4416 14.1519 20.4415 -8.94961
659 1 -3.62046e-05 15.7243 18.8692 -8.94961
660 1 1.57225 17.2968 20.4415 -8.94961
661 1 3.14451 15.7244 18.8693 -8.94962
662 1 4.71694 17.2969 20.4415 -8.94964
663 1 6.28924 15.7246 18.8695 -8.94967
664 1 7.86197 17.2969 20.4415 -8.94968
665 1 9.43446 15.7246 18.8693 -8.9496
197 1 -6.2399e-05 22.014 12.5795 -8.94961
199 1 3.14442 22.0141 12.5796 -8.94958
203 1 9.43423 22.0144 12.58 -8.94985
205 1 12.5799 22.0144 12.58 -8.94992
209 1 18.8693 22.014 12.5795 -8.94961
250 1 6.28923 22.0141 15.7248 -8.94955
351 1 22.0138 12.5794 22.0138 -8.94961
355 1 6.28924 12.5795 22.0135 -8.94969
367 1 3.14451 15.7244 22.0137 -8.94962
371 1 9.43443 15.7246 22.0135 -8.94963
373 1 12.5795 15.7246 22.0135 -8.94959
361 1 15.7247 12.5795 22.0137 -8.94956
379 1 22.0139 18.8692 22.0138 -8.94959
533 1 1.57211 20.4418 11.007 -8.9496
