ITEM: TIMESTEP
96
ITEM: NUMBER OF ATOMS
688
ITEM: BOX BOUNDS pp pp pp
0.0000000000000000e+00 2.2013900999999997e+01
0.0000000000000000e+00 2.2013900999999997e+01
0.0000000000000000e+00 2.2013900999999997e+01
ITEM: ATOMS id type x y z c_pot
513 1 4.7152 11.0066 11.0076 -8.94856
2 1 1.57219 1.57256 1.5722 -8.94954
175 1 18.8706 9.43379 9.43462 -8.94942
4 1 4.71699 1.57257 1.5721 -8.94964
512 1 1.57207 11.0067 11.0071 -8.94981
6 1 7.86199 1.5725 1.57212 -8.94961
448 1 20.4423 11.0065 7.86171 -8.9499
8 1 11.007 1.57238 1.57218 -8.9496
447 1 17.2995 11.0055 7.86101 -8.94836
10 1 14.152 1.57228 1.57225 -8.94963
174 1 15.7269 9.43334 9.43526 -8.95049
12 1 17.2969 1.57229 1.57231 -8.94959
445 1 11.023 11.0066 7.80865 -9.22538
14 1 20.4415 1.57242 1.57232 -8.94958
151 1 9.43422 0.000816022 9.4342 -8.95044
16 1 1.57222 4.71706 1.57221 -8.94948
17 1 3.14461 3.1447 -7.04572e-05 -8.94956
18 1 4.71692 4.71699 1.57212 -8.94954
443 1 4.71321 11.0065 7.86007 -8.95172
20 1 7.86195 4.71694 1.57217 -8.94967
21 1 9.43451 3.14454 1.05941e-05 -8.94961
22 1 11.007 4.71689 1.57225 -8.94961
23 1 12.5795 3.14446 8.80709e-05 -8.94961
24 1 14.1521 4.7168 1.57233 -8.94971
442 1 1.57146 11.0068 7.86158 -8.95032
26 1 17.2971 4.71684 1.57235 -8.94951
27 1 18.8693 3.14455 0.00010185 -8.94953
28 1 20.4416 4.71701 1.57233 -8.94954
29 1 -4.45127e-06 6.28946 -2.62453e-05 -8.9496
30 1 1.57212 7.86187 1.57206 -8.94961
193 1 11.0102 7.85047 11.0113 -9.01939
32 1 4.71662 7.86171 1.57167 -8.94967
33 1 6.28926 6.2892 -0.00020936 -8.94954
34 1 7.86149 7.86146 1.57133 -8.94942
192 1 7.86143 7.85993 11.0103 -8.98121
36 1 11.007 7.86161 1.57166 -8.94938
191 1 4.71776 7.86242 11.0067 -8.95091
38 1 14.1525 7.86138 1.5718 -8.94943
39 1 15.7248 6.28909 0.000151922 -8.94957
40 1 17.2971 7.86178 1.57231 -8.94976
190 1 1.57287 7.8619 11.007 -8.94951
42 1 20.4416 7.86188 1.57228 -8.94964
349 1 17.297 11.0069 1.57226 -8.94962
44 1 3.14441 9.43438 -0.000366284 -8.94958
345 1 4.7164 11.007 1.57129 -8.94952
688 2 10.2498 11.0599 9.46155 0.638677
47 1 12.5798 9.43411 -0.000418299 -8.94995
48 1 15.7247 9.43429 0.000144808 -8.94967
49 1 18.8694 9.43437 0.000108708 -8.94961
50 1 22.0137 0.000322121 3.14458 -8.9496
51 1 1.57219 1.57275 4.71704 -8.94964
173 1 12.5847 9.43073 9.43542 -9.04282
53 1 4.71677 1.57284 4.71674 -8.94959
54 1 6.28933 0.000590706 3.14422 -8.94964
55 1 7.86191 1.57277 4.71675 -8.94967
172 1 9.41889 9.39775 9.4351 -9.25525
57 1 11.0071 1.57253 4.7168 -8.94961
171 1 6.29308 9.43784 9.43493 -8.99648
59 1 14.1522 1.57228 4.71685 -8.9496
60 1 15.7245 8.71358e-05 3.1445 -8.9496
61 1 17.297 1.57233 4.717 -8.9496
170 1 3.14503 9.4345 9.43445 -8.94785
63 1 20.4416 1.5725 4.7171 -8.94962
64 1 -1.26567e-05 3.14483 3.1447 -8.94965
65 1 1.57237 4.71723 4.71711 -8.94977
66 1 3.14454 3.14488 3.14454 -8.94959
67 1 4.71687 4.71704 4.71679 -8.9496
68 1 6.28945 3.14484 3.14445 -8.94974
69 1 7.86201 4.71701 4.71672 -8.95009
70 1 9.43452 3.14473 3.1445 -8.9496
71 1 11.0071 4.71686 4.71675 -8.94957
72 1 12.5796 3.1446 3.14454 -8.94966
73 1 14.1524 4.71652 4.71677 -8.94966
74 1 15.7246 3.14451 3.1446 -8.9496
75 1 17.2972 4.71676 4.71697 -8.94958
76 1 18.8693 3.14465 3.14469 -8.94959
77 1 20.4417 4.71705 4.71711 -8.94965
78 1 22.0139 6.28938 3.14454 -8.94954
79 1 1.57195 7.86168 4.71666 -8.94959
80 1 3.14431 6.28926 3.14427 -8.94924
81 1 4.71588 7.86112 4.71579 -8.94829
82 1 6.28912 6.28916 3.14401 -8.94936
83 1 7.86106 7.86111 4.71508 -8.949
84 1 9.43447 6.2892 3.14423 -8.94957
85 1 11.0069 7.86176 4.71582 -8.94945
86 1 12.5797 6.28912 3.14434 -8.94991
87 1 14.1533 7.86058 4.71576 -8.94794
88 1 15.7249 6.28899 3.14434 -8.94921
89 1 17.2976 7.86133 4.71663 -8.94934
90 1 18.8695 6.28926 3.14457 -8.94951
91 1 20.4418 7.86165 4.71684 -8.9496
92 1 -0.000223197 9.43433 3.14441 -8.94958
93 1 3.14405 9.43428 3.14393 -8.94958
94 1 6.28852 9.43416 3.14288 -8.95027
95 1 9.43345 9.43358 3.14175 -8.94838
96 1 12.5805 9.43342 3.14228 -8.94867
97 1 15.7248 9.43426 3.1443 -8.95017
98 1 18.8693 9.43432 3.14454 -8.94971
169 1 0.000503201 9.43415 9.43448 -8.94934
100 1 1.57225 1.57278 7.86198 -8.94961
101 1 3.14427 0.000759492 6.28931 -8.94958
102 1 4.71684 1.57301 7.86188 -8.94955
168 1 18.8701 6.28896 9.43453 -8.94955
104 1 7.86163 1.57264 7.8616 -8.94983
105 1 9.43438 0.000749459 6.28903 -8.94963
106 1 11.0072 1.57217 7.86166 -8.94962
107 1 12.5797 0.000300127 6.28912 -8.94965
108 1 14.1524 1.57212 7.8618 -8.94965
167 1 15.7258 6.28812 9.4346 -8.94888
110 1 17.2971 1.5722 7.86195 -8.9496
111 1 18.8692 0.000139254 6.28948 -8.94963
112 1 20.4416 1.57247 7.862 -8.94961
113 1 22.014 3.1449 6.28957 -8.94962
114 1 1.57259 4.71732 7.86204 -8.94962
115 1 3.14467 3.14515 6.28954 -8.94972
116 1 4.71729 4.7176 7.86209 -8.94985
117 1 6.28917 3.14477 6.28908 -8.94949
118 1 7.86135 4.71593 7.8611 -8.94823
119 1 9.43458 3.14464 6.28928 -8.94953
120 1 11.008 4.7155 7.86141 -8.94811
121 1 12.5799 3.1442 6.28915 -8.94956
122 1 14.1528 4.71599 7.86183 -8.94985
123 1 15.7248 3.14435 6.28936 -8.94964
124 1 17.2975 4.71657 7.86195 -8.94954
125 1 18.8694 3.14462 6.28952 -8.94961
126 1 20.4419 4.71699 7.86201 -8.9496
127 1 0.000252356 6.28948 6.28955 -8.94962
128 1 1.57268 7.86197 7.86201 -8.94943
129 1 3.14485 6.28974 6.2896 -8.95011
130 1 4.71775 7.86273 7.86236 -8.95113
131 1 6.2891 6.28896 6.28874 -8.94969
132 1 7.86147 7.86125 7.85914 -8.98206
133 1 9.43489 6.28901 6.28935 -8.95088
134 1 11.0092 7.86075 7.86135 -9.00175
135 1 12.5802 6.28814 6.28887 -8.95057
136 1 14.154 7.8596 7.86168 -8.95041
137 1 15.7253 6.28858 6.28916 -8.94956
138 1 17.2979 7.86115 7.862 -8.95002
139 1 18.8697 6.28916 6.28948 -8.94969
140 1 20.4421 7.86163 7.86197 -8.94953
141 1 22.0138 9.43413 6.28918 -8.94983
142 1 3.14338 9.43396 6.28851 -8.94993
143 1 6.28568 9.43229 6.28531 -8.94528
144 1 9.43169 9.43243 6.28494 -8.99636
145 1 12.5827 9.42995 6.28548 -8.97917
146 1 15.7264 9.43286 6.28826 -8.9488
147 1 18.8701 9.43376 6.28903 -8.94951
148 1 -0.000140673 0.000335357 9.43446 -8.9496
166 1 12.5808 6.2868 9.4345 -8.94869
150 1 6.28897 0.000954261 9.43434 -8.94955
165 1 9.43439 6.28006 9.4345 -8.95959
152 1 12.5798 0.000251884 9.43424 -8.94962
153 1 15.7247 -0.000112297 9.43442 -8.94961
164 1 6.29062 6.2903 9.43448 -8.94984
155 1 0.000207846 3.14484 9.43449 -8.94961
156 1 3.14477 3.1451 9.43447 -8.94963
157 1 6.28943 3.14495 9.43445 -8.94915
158 1 9.43448 3.14281 9.43445 -8.95211
159 1 12.5801 3.14357 9.43446 -8.94953
160 1 15.725 3.144 9.4345 -8.94954
161 1 18.8696 3.14448 9.4345 -8.94961
162 1 22.0144 6.28943 9.4345 -8.94958
163 1 3.14522 6.28977 9.43447 -8.94942
344 1 1.57195 11.0069 1.5719 -8.94959
350 1 20.4415 11.0069 1.5722 -8.94961
181 1 17.2972 1.572 11.007 -8.94961
188 1 17.2977 4.71625 11.0072 -8.94957
177 1 4.71687 1.57282 11.007 -8.94955
184 1 4.71731 4.7174 11.0069 -8.9499
189 1 20.4421 4.71686 11.007 -8.9496
644 1 20.4417 11.0069 20.4417 -8.9496
3 1 3.14457 0.000222973 22.0137 -8.9496
178 1 7.86165 1.57221 11.0072 -8.94979
179 1 11.0073 1.57161 11.0073 -8.95044
180 1 14.1525 1.57167 11.0071 -8.94963
46 1 9.43423 9.43413 22.0131 -8.94989
182 1 20.4417 1.57236 11.007 -8.94961
183 1 1.57268 4.71722 11.0069 -8.94962
252 1 9.43448 -0.000395893 15.7246 -8.94955
185 1 7.86135 4.71526 11.008 -8.94829
186 1 11.0081 4.71311 11.0082 -8.95085
187 1 14.1532 4.71519 11.0074 -8.94981
642 1 14.1524 11.0069 20.442 -8.94974
254 1 12.5796 -0.000592478 15.7246 -8.94955
641 1 11.0071 11.0069 20.4415 -8.95048
640 1 7.86176 11.0069 20.4413 -8.94979
45 1 6.28916 9.43433 22.0133 -8.94978
638 1 1.57222 11.0069 20.4414 -8.94959
194 1 14.1553 7.85818 11.008 -8.94901
195 1 17.2987 7.86064 11.0074 -8.94974
196 1 20.4425 7.86149 11.0071 -8.9496
343 1 18.8697 9.43424 18.8697 -8.9496
198 1 1.57231 1.57251 14.152 -8.94964
342 1 15.7252 9.434 18.8703 -8.94956
200 1 4.7168 1.57239 14.1522 -8.94957
201 1 6.28904 0.000480663 12.5797 -8.94973
202 1 7.86174 1.57194 14.1524 -8.94973
341 1 12.58 9.43382 18.8707 -8.95029
204 1 11.0071 1.57147 14.1525 -8.94955
340 1 9.43436 9.43389 18.8702 -8.95006
206 1 14.1526 1.57135 14.1525 -8.94976
207 1 15.7247 -0.000352711 12.5796 -8.94967
208 1 17.2973 1.57183 14.1522 -8.94964
339 1 6.28923 9.43422 18.8695 -8.94968
210 1 20.4418 1.57225 14.152 -8.94962
211 1 22.0142 3.14472 12.5795 -8.94962
212 1 1.57254 4.71703 14.152 -8.94974
213 1 3.14473 3.14492 12.5795 -8.94972
214 1 4.7168 4.71668 14.1523 -8.94954
215 1 6.28911 3.14424 12.5799 -8.94939
216 1 7.86145 4.71542 14.1532 -8.95002
217 1 9.43444 3.14324 12.5802 -8.94996
218 1 11.0074 4.71491 14.1535 -8.94933
219 1 12.5803 3.14265 12.5804 -8.95014
220 1 14.1536 4.71438 14.1537 -8.94983
221 1 15.7252 3.14364 12.5798 -8.94962
222 1 17.2979 4.71601 14.1526 -8.94967
223 1 18.8697 3.1443 12.5796 -8.94961
224 1 20.4422 4.71674 14.1521 -8.94964
225 1 0.000574039 6.28932 12.5795 -8.94966
226 1 1.57246 7.86166 14.1522 -8.94976
227 1 3.14494 6.28954 12.5794 -8.95001
228 1 4.71621 7.86119 14.1528 -8.94965
229 1 6.28895 6.28845 12.5804 -8.94915
230 1 7.85915 7.85809 14.1564 -8.94604
231 1 9.43408 6.2853 12.5817 -8.95105
232 1 11.0077 7.85842 14.156 -8.94898
233 1 12.5823 6.28379 12.5827 -8.95169
234 1 14.1579 7.85579 14.1581 -8.94272
235 1 15.7264 6.28749 12.5805 -8.94962
236 1 17.2993 7.86036 14.1535 -8.95003
237 1 18.8704 6.28873 12.5798 -8.94962
238 1 20.4426 7.8614 14.1525 -8.94977
239 1 22.0145 9.43408 12.5798 -8.94984
240 1 3.14421 9.43411 12.5799 -8.94999
241 1 6.28718 9.43335 12.5817 -8.95099
242 1 9.42573 9.42354 12.5907 -9.02536
243 1 12.596 9.41789 12.5958 -8.99735
244 1 15.7294 9.43183 12.5822 -8.95282
245 1 18.8712 9.43351 12.5803 -8.94997
246 1 22.0139 0.000108121 15.7244 -8.94962
247 1 1.57229 1.57236 17.2969 -8.94957
248 1 3.14445 0.000226237 15.7246 -8.94956
249 1 4.71692 1.5722 17.297 -8.94956
338 1 3.14457 9.43434 18.8693 -8.9496
251 1 7.86195 1.57194 17.2971 -8.94957
337 1 22.0141 9.43435 18.8693 -8.9496
253 1 11.0071 1.57173 17.2972 -8.94958
336 1 20.4418 7.86186 20.4417 -8.9496
255 1 14.1522 1.57166 17.2972 -8.94958
335 1 18.8697 6.28913 18.8697 -8.94958
257 1 17.2972 1.57184 17.2972 -8.94952
258 1 18.8694 -0.000150022 15.7245 -8.94964
259 1 20.4417 1.5722 17.2969 -8.9496
260 1 0.000200749 3.1446 15.7245 -8.94965
261 1 1.57237 4.7169 17.297 -8.94958
262 1 3.14458 3.14459 15.7246 -8.9496
263 1 4.71672 4.71656 17.2973 -8.94924
264 1 6.28918 3.14408 15.725 -8.94964
265 1 7.86181 4.71628 17.2976 -8.94958
266 1 9.43446 3.14371 15.7251 -8.94948
267 1 11.0072 4.71604 17.2978 -8.94954
268 1 12.5799 3.14347 15.7253 -8.94952
269 1 14.1526 4.71593 17.2979 -8.94963
270 1 15.7253 3.14346 15.7252 -8.94954
271 1 17.2978 4.71609 17.2977 -8.94902
272 1 18.8697 3.14421 15.7247 -8.94963
273 1 20.442 4.71673 17.2971 -8.94956
274 1 22.0143 6.28921 15.7247 -8.94966
275 1 1.57241 7.86179 17.297 -8.94962
276 1 3.14445 6.28913 15.7248 -8.94959
277 1 4.71674 7.86158 17.2973 -8.94959
278 1 6.28847 6.28807 15.7259 -8.94844
279 1 7.86144 7.8609 17.2985 -8.94997
280 1 9.43437 6.28779 15.7262 -8.94928
281 1 11.0073 7.86064 17.2988 -8.94939
282 1 12.5804 6.28745 15.7265 -8.94957
283 1 14.1534 7.86042 17.2992 -8.95011
284 1 15.7267 6.28707 15.7268 -8.94766
285 1 17.298 7.8612 17.2979 -8.9495
286 1 18.8704 6.28868 15.7252 -8.94961
287 1 20.4421 7.86166 17.2973 -8.9496
288 1 0.000401011 9.43422 15.7247 -8.94965
289 1 3.14447 9.43422 15.7248 -8.9496
290 1 6.28878 9.43382 15.7258 -8.94953
291 1 9.43391 9.43254 15.7283 -8.95083
292 1 12.5817 9.43205 15.7295 -8.95228
293 1 15.7266 9.43309 15.7267 -8.949
294 1 18.8704 9.43393 15.7253 -8.9496
334 1 17.2973 7.86168 20.442 -8.9496
296 1 1.57228 1.57237 20.4415 -8.94952
333 1 15.7252 6.28864 18.8703 -8.94962
298 1 4.71706 1.57231 20.4415 -8.94962
299 1 6.28952 -8.84798e-05 18.8692 -8.94964
300 1 7.86201 1.5722 20.4416 -8.9496
332 1 14.1525 7.86141 20.4422 -8.94984
302 1 11.007 1.57209 20.4416 -8.9496
331 1 12.5798 6.28865 18.8702 -8.94953
304 1 14.152 1.57203 20.4417 -8.94961
305 1 15.7244 -0.000325573 18.8693 -8.94964
306 1 17.2969 1.5721 20.4417 -8.9496
330 1 11.0071 7.86144 20.442 -8.94966
308 1 20.4416 1.57227 20.4416 -8.94948
309 1 22.014 3.14459 18.8693 -8.94953
310 1 1.57231 4.71701 20.4416 -8.94957
311 1 3.14459 3.14455 18.8693 -8.94946
312 1 4.71693 4.71685 20.4416 -8.94954
313 1 6.28944 3.14438 18.8694 -8.94961
314 1 7.86192 4.71673 20.4418 -8.94958
315 1 9.4345 3.1442 18.8696 -8.94958
316 1 11.0071 4.71663 20.4419 -8.94958
317 1 12.5796 3.14409 18.8697 -8.94958
318 1 14.1522 4.71658 20.442 -8.94959
319 1 15.7247 3.1441 18.8697 -8.94962
320 1 17.2972 4.71665 20.4419 -8.94952
321 1 18.8695 3.14432 18.8695 -8.94939
322 1 20.4417 4.71694 20.4417 -8.94957
323 1 0.000172821 6.28936 18.8694 -8.9496
324 1 1.57229 7.86189 20.4415 -8.94959
325 1 3.14458 6.28931 18.8694 -8.9496
326 1 4.71687 7.86178 20.4415 -8.94964
327 1 6.28918 6.28895 18.8698 -8.94961
328 1 7.86173 7.86153 20.4417 -8.94977
329 1 9.43444 6.28876 18.87 -8.94952
593 1 14.1532 11.0065 17.2989 -8.94975
592 1 11.0073 11.0065 17.2995 -8.9518
515 1 11.038 10.9485 11.1035 -9.37284
517 1 17.3003 11.0054 11.0084 -8.94808
518 1 20.4428 11.0065 11.0073 -8.94979
540 1 1.57228 11.0068 14.1523 -8.94966
541 1 4.71614 11.0068 14.1529 -8.94925
542 1 7.86067 11.0063 14.1554 -8.94953
544 1 14.1563 11.0052 14.1571 -8.94743
545 1 17.2991 11.0063 14.1535 -8.94975
546 1 20.4425 11.0067 14.1525 -8.94973
591 1 7.86169 11.0067 17.2979 -8.94991
7 1 9.4345 6.14922e-05 22.0137 -8.94961
9 1 12.5795 -4.41779e-05 22.0137 -8.94961
13 1 18.8692 3.08008e-06 22.0139 -8.94958
19 1 6.28949 3.14463 22.0138 -8.94962
25 1 15.7245 3.14444 22.014 -8.94962
31 1 3.14451 6.28938 22.0137 -8.94958
35 1 9.43445 6.28916 22.0139 -8.94956
37 1 12.5796 6.28911 22.014 -8.94959
41 1 18.8694 6.28934 22.014 -8.94963
43 1 22.0138 9.4344 22.0138 -8.9496
15 1 22.0139 3.14471 22.0139 -8.94952
176 1 1.57231 1.57268 11.007 -8.94961
687 2 10.9799 12.5264 10.1917 0.638677
511 1 18.8692 18.8694 9.43444 -8.94961
346 1 7.86144 11.0071 1.57061 -8.94994
347 1 11.007 11.0071 1.56949 -8.95285
348 1 14.1523 11.007 1.57176 -8.94941
510 1 15.7247 18.8695 9.43437 -8.94957
539 1 20.4415 20.4418 11.007 -8.94961
154 1 18.8693 22.0139 9.43446 -8.9496
352 1 1.5718 14.1521 1.57177 -8.9496
353 1 3.14428 12.5795 -0.000548931 -8.94958
354 1 4.71621 14.1524 1.57107 -8.9496
538 1 17.297 20.4416 11.007 -8.9496
356 1 7.86115 14.1528 1.57025 -8.94997
357 1 9.43419 12.5799 -0.00128723 -8.94979
358 1 11.0069 14.1525 1.57091 -8.94942
359 1 12.5798 12.5798 -0.000785518 -8.9499
360 1 14.1524 14.1526 1.57136 -8.94951
393 1 1.57157 11.0069 4.71643 -8.94951
362 1 17.2969 14.152 1.57215 -8.94971
363 1 18.8693 12.5794 8.95151e-06 -8.94961
364 1 20.4414 14.152 1.57212 -8.94961
365 1 -0.000251109 15.7245 -0.000277319 -8.9496
366 1 1.57179 17.2972 1.57175 -8.94958
149 1 3.14432 22.0146 9.43442 -8.94958
368 1 4.71631 17.2976 1.57109 -8.94961
369 1 6.28903 15.7249 -0.00111157 -8.94977
370 1 7.86165 17.2976 1.57113 -8.94962
109 1 15.7246 22.014 6.28931 -8.9496
372 1 11.0069 17.2974 1.5714 -8.94955
103 1 6.28893 22.015 6.28893 -8.94976
374 1 14.152 17.2972 1.57179 -8.94969
375 1 15.7246 15.7247 -0.000319742 -8.9496
376 1 17.2969 17.2971 1.572 -8.94951
99 1 -0.000203159 22.0143 6.28947 -8.94961
378 1 20.4413 17.297 1.57207 -8.94963
394 1 4.71544 11.007 4.71526 -8.94896
380 1 1.57196 20.442 1.57193 -8.94939
381 1 3.14433 18.8696 -0.000538915 -8.94956
382 1 4.71679 20.4421 1.57175 -8.94963
62 1 18.8692 22.014 3.14461 -8.94959
384 1 7.8619 20.442 1.57176 -8.94961
385 1 9.43446 18.8695 -0.000629179 -8.9496
386 1 11.007 20.4418 1.57188 -8.94961
387 1 12.5795 18.8693 -0.000464792 -8.9496
388 1 14.152 20.4417 1.57204 -8.94961
58 1 12.5795 22.0141 3.14439 -8.9496
390 1 17.2968 20.4417 1.57215 -8.94959
391 1 18.8692 18.8693 -0.000143933 -8.94954
392 1 20.4414 20.4418 1.57217 -8.94953
509 1 12.5801 18.8708 9.43352 -8.94811
508 1 9.43326 18.8732 9.43335 -8.95085
395 1 7.86049 11.0073 4.71281 -8.95265
396 1 11.007 11.0076 4.70466 -8.96474
397 1 14.152 11.007 4.71604 -8.95129
507 1 6.28798 18.8714 9.43412 -8.94933
506 1 3.14368 18.8703 9.43432 -8.94954
400 1 -0.000430011 12.5795 3.14429 -8.94959
401 1 1.57122 14.1523 4.71627 -8.94956
402 1 3.1437 12.5797 3.14367 -8.94956
403 1 4.71476 14.1532 4.71486 -8.949
404 1 6.28801 12.58 3.14237 -8.94975
405 1 7.85929 14.1545 4.71205 -8.95282
406 1 9.43311 12.5809 3.14115 -8.94808
407 1 11.0062 14.153 4.71457 -8.95049
408 1 12.5805 12.5809 3.14199 -8.94836
409 1 14.1532 14.1535 4.71511 -8.9488
410 1 15.7247 12.5795 3.14437 -8.94964
411 1 17.2972 14.1521 4.71669 -8.95017
412 1 18.8692 12.5794 3.1445 -8.94962
413 1 20.4413 14.152 4.71673 -8.94967
414 1 22.0134 15.7246 3.14422 -8.9496
415 1 1.57122 17.2977 4.71628 -8.94962
416 1 3.14354 15.7251 3.14352 -8.9495
417 1 4.71471 17.2993 4.71473 -8.94766
418 1 6.28797 15.726 3.14214 -8.95003
419 1 7.86093 17.2988 4.7151 -8.94962
420 1 9.43404 15.7257 3.14278 -8.94974
421 1 11.0069 17.2982 4.71566 -8.94888
422 1 12.5795 15.7252 3.14359 -8.95002
423 1 14.1523 17.2977 4.71622 -8.94956
424 1 15.7248 15.725 3.14388 -8.94934
425 1 17.2971 17.2973 4.71656 -8.94921
426 1 18.8692 15.7245 3.14438 -8.94976
427 1 20.4413 17.2972 4.71668 -8.94957
428 1 -0.0004656 18.8697 3.14428 -8.94952
429 1 1.57181 20.4422 4.71677 -8.94962
430 1 3.14375 18.8702 3.1437 -8.94902
431 1 4.71624 20.4429 4.71622 -8.94954
432 1 6.28891 18.8703 3.14355 -8.94967
433 1 7.86164 20.4427 4.71627 -8.94962
434 1 9.4343 18.8701 3.14376 -8.94957
435 1 11.007 20.4423 4.71645 -8.94954
436 1 12.5795 18.8698 3.14402 -8.94954
437 1 14.1521 20.442 4.71665 -8.94964
438 1 15.7245 18.8696 3.14428 -8.94958
439 1 17.2969 20.4418 4.71688 -8.9496
440 1 18.8691 18.8695 3.14443 -8.94951
441 1 20.4414 20.4419 4.71696 -8.94962
505 1 -0.000427282 18.8697 9.43442 -8.94958
504 1 18.8698 15.7247 9.43446 -8.94938
444 1 7.84881 11.0026 7.84841 -9.01894
503 1 15.7257 15.7246 9.43453 -8.94945
446 1 14.1558 11.0017 7.85908 -9.03354
502 1 12.5801 15.7256 9.43224 -9.00175
501 1 9.43022 15.7358 9.43126 -9.01939
449 1 22.0134 12.5795 6.28908 -8.94974
450 1 1.5708 14.1525 7.86145 -8.95029
451 1 3.14254 12.5798 6.28825 -8.94975
452 1 4.71194 14.1543 7.85983 -8.95228
453 1 6.28442 12.5812 6.28517 -8.94743
454 1 7.84564 14.1684 7.84547 -8.99735
455 1 9.42957 12.5832 6.28423 -9.05574
456 1 11.0061 14.1556 7.85675 -9.04282
457 1 12.5824 12.5846 6.28564 -9.03354
458 1 14.156 14.1564 7.8588 -8.97917
459 1 15.7254 12.5794 6.28951 -8.95129
460 1 17.2992 14.1529 7.86095 -8.94867
461 1 18.8697 12.5793 6.28922 -8.94941
462 1 20.4419 14.1522 7.86165 -8.94995
463 1 -0.000690458 15.7249 6.28901 -8.94984
464 1 1.57127 17.2977 7.86164 -8.94953
465 1 3.14223 15.7259 6.28808 -8.95011
466 1 4.71494 17.2989 7.86107 -8.94957
467 1 6.28337 15.7305 6.28359 -8.94272
468 1 7.85879 17.3025 7.85922 -8.95169
469 1 9.43343 15.7281 6.28622 -8.94901
470 1 11.007 17.2995 7.86063 -8.94869
471 1 12.5798 15.7267 6.28752 -8.95041
472 1 14.1526 17.2982 7.86127 -8.95057
473 1 15.7257 15.7257 6.2882 -8.94794
474 1 17.2971 17.2972 7.86182 -8.94991
475 1 18.8697 15.7249 6.28895 -8.94943
476 1 20.4414 17.2972 7.86183 -8.94959
477 1 22.0134 18.8697 6.28929 -8.94959
478 1 1.57182 20.4422 7.86185 -8.94958
479 1 3.14358 18.8704 6.2889 -8.94963
480 1 4.7162 20.4429 7.86161 -8.94952
481 1 6.28779 18.8719 6.28787 -8.94983
482 1 7.86106 20.4437 7.86114 -8.95014
483 1 9.4341 18.8711 6.28833 -8.94981
484 1 11.007 20.4428 7.86139 -8.94953
485 1 12.5797 18.8703 6.28866 -8.94985
486 1 14.1523 20.4421 7.86156 -8.94956
487 1 15.7247 18.8698 6.2891 -8.94966
488 1 17.2969 20.4417 7.8619 -8.94966
489 1 18.8691 18.8695 6.28937 -8.94971
490 1 20.4414 20.4419 7.86194 -8.94961
491 1 -6.80918e-05 12.5795 9.43442 -8.95048
492 1 3.14193 12.5799 9.43418 -8.9518
493 1 6.27897 12.5802 9.43309 -9.01819
494 1 9.338 12.6378 9.40346 -9.37284
495 1 12.6328 12.5797 9.41845 -9.22538
496 1 15.7368 12.5787 9.43449 -8.96474
497 1 18.872 12.5792 9.43452 -8.95285
498 1 22.0134 15.7249 9.43439 -8.94966
499 1 3.14264 15.7257 9.4342 -8.94939
500 1 6.28545 15.7279 9.43382 -8.94898
56 1 9.43445 22.0143 3.14429 -8.94961
52 1 3.14432 22.0145 3.14429 -8.94952
516 1 14.1573 11.0031 11.0119 -9.05574
519 1 1.57125 14.1524 11.0071 -8.95006
520 1 4.71313 14.1538 11.0076 -8.95083
521 1 7.85073 14.1628 11.0157 -9.02536
529 1 11.007 17.3063 11.0071 -8.95959
398 1 17.2971 11.0068 4.71677 -8.94964
1 1 -0.000138799 22.0141 -0.000119213 -8.94948
5 1 6.2895 22.0141 -0.000286632 -8.94962
399 1 20.4415 11.0068 4.7168 -8.94957
530 1 14.1521 17.2973 11.0066 -8.95088
532 1 20.4415 17.2972 11.007 -8.94956
534 1 4.71633 20.4426 11.007 -8.94948
11 1 15.7244 22.0138 -8.12914e-05 -8.94962
686 1 20.4415 20.4416 20.4415 -8.94952
685 1 18.8693 18.8693 18.8693 -8.94948
514 1 7.85888 11.0064 11.0139 -9.03132
684 1 17.2968 20.4415 20.4415 -8.94965
307 1 18.8693 22.0138 18.8693 -8.94954
683 1 15.7244 18.8691 18.8691 -8.94977
682 1 14.1519 20.4414 20.4414 -8.94962
303 1 12.5795 22.0135 18.8692 -8.94961
301 1 9.43452 22.0136 18.8692 -8.94961
297 1 3.1446 22.014 18.8692 -8.94957
522 1 11.0064 14.1886 11.0226 -9.25525
523 1 14.1565 14.1539 11.0098 -8.99636
524 1 17.2997 14.1527 11.008 -8.94838
525 1 20.4423 14.1522 11.0072 -8.94989
526 1 1.57149 17.2976 11.007 -8.94952
527 1 4.71531 17.2985 11.0071 -8.94928
528 1 7.85977 17.301 11.0074 -8.95105
295 1 -5.68475e-05 22.014 18.8692 -8.94952
639 1 4.71681 11.0069 20.4413 -8.94964
531 1 17.2973 17.2971 11.007 -8.94957
643 1 17.2972 11.0069 20.4419 -8.94959
256 1 15.7247 22.0135 15.7247 -8.94959
383 1 6.28936 18.8696 22.0132 -8.94964
535 1 7.86129 20.4431 11.007 -8.94996
536 1 11.007 20.4435 11.007 -8.95211
537 1 14.1522 20.4417 11.0069 -8.94953
377 1 18.8692 15.7244 22.0138 -8.94964
389 1 15.7244 18.8693 22.0136 -8.94965
681 1 12.5794 18.869 18.8689 -8.94962
680 1 11.007 20.4415 20.4413 -8.94961
679 1 9.43454 18.8691 18.8688 -8.94962
543 1 11.0084 11.0061 14.1625 -9.01819
678 1 7.86202 20.4416 20.4412 -8.94962
677 1 6.2895 18.8693 18.8689 -8.94974
676 1 4.71702 20.4417 20.4413 -8.94965
547 1 22.0141 12.5794 12.5797 -8.94979
548 1 1.57194 14.1521 14.1522 -8.94968
549 1 3.14354 12.5796 12.5798 -8.94991
550 1 4.71568 14.1525 14.1527 -8.94953
551 1 6.28613 12.58 12.5808 -8.94953
552 1 7.85974 14.153 14.1543 -8.95099
553 1 9.42753 12.58 12.5826 -9.03132
554 1 11.0066 14.1485 14.1484 -8.99648
555 1 12.5931 12.5837 12.5927 -9.01894
556 1 14.1562 14.154 14.1558 -8.94528
557 1 15.7287 12.579 12.581 -8.95265
558 1 17.2986 14.1522 14.153 -8.95027
559 1 18.8709 12.5792 12.58 -8.94994
560 1 20.4421 14.152 14.1523 -8.94978
561 1 -0.000229942 15.7248 12.5797 -8.94977
562 1 1.57173 17.2974 14.1523 -8.94961
563 1 3.14302 15.7254 12.58 -8.94997
564 1 4.71555 17.2982 14.153 -8.94844
565 1 6.28508 15.7282 12.5823 -8.94604
566 1 7.86105 17.2979 14.1525 -8.94915
567 1 9.43121 15.7264 12.5801 -8.98121
568 1 11.007 17.296 14.1509 -8.94984
569 1 12.5823 15.7251 12.58 -8.98206
570 1 14.1527 17.2974 14.1524 -8.94969
571 1 15.7264 15.7252 12.5804 -8.949
572 1 17.2975 17.2972 14.1524 -8.94936
573 1 18.8701 15.7249 12.58 -8.94942
574 1 20.4417 17.2971 14.1522 -8.94954
575 1 22.0136 18.8696 12.5796 -8.94958
576 1 1.57203 20.4419 14.152 -8.94961
577 1 3.1439 18.87 12.5797 -8.94958
578 1 4.71649 20.4422 14.1523 -8.94964
579 1 6.28826 18.8709 12.58 -8.95002
580 1 7.86153 20.4421 14.1524 -8.94939
581 1 9.4335 18.8711 12.5801 -8.94829
582 1 11.007 20.4414 14.1521 -8.94915
583 1 12.5804 18.8704 12.5801 -8.94823
584 1 14.1524 20.4415 14.1523 -8.94949
585 1 15.7248 18.8693 12.5795 -8.95009
586 1 17.297 20.4415 14.152 -8.94974
587 1 18.8693 18.8694 12.5795 -8.94967
588 1 20.4415 20.4417 14.152 -8.94962
589 1 1.57235 11.0069 17.297 -8.9496
590 1 4.71675 11.0068 17.2972 -8.94955
675 1 3.14448 18.8694 18.8691 -8.94958
674 1 1.57217 20.4417 20.4414 -8.94953
673 1 22.0138 18.8693 18.8692 -8.94957
594 1 17.2978 11.0067 17.2978 -8.94956
595 1 20.442 11.0068 17.2972 -8.94958
596 1 0.000216713 12.5794 15.7247 -8.94964
597 1 1.57221 14.152 17.2969 -8.9496
598 1 3.14428 12.5795 15.7247 -8.94955
599 1 4.71665 14.1521 17.297 -8.9496
600 1 6.2886 12.5795 15.7253 -8.94925
601 1 7.86156 14.1522 17.2973 -8.94999
602 1 9.43385 12.5797 15.7263 -8.94856
603 1 11.007 14.1518 17.2965 -8.94785
604 1 12.5814 12.5798 15.7283 -8.95172
605 1 14.153 14.1524 17.2981 -8.94993
606 1 15.7262 12.5794 15.726 -8.94896
607 1 17.2976 14.152 17.2974 -8.94958
608 1 18.8702 12.5793 15.7251 -8.94952
609 1 20.4418 14.1519 17.2971 -8.94958
610 1 22.0139 15.7245 15.7246 -8.94964
611 1 1.57212 17.297 17.2969 -8.9496
612 1 3.14414 15.7247 15.7247 -8.94959
613 1 4.71671 17.2972 17.297 -8.94959
614 1 6.28865 15.7251 15.7253 -8.94965
615 1 7.86206 17.2968 17.2965 -8.95001
616 1 9.43481 15.7239 15.7237 -8.95091
617 1 11.007 17.2966 17.2963 -8.94942
618 1 12.5791 15.7236 15.7237 -8.95113
619 1 14.1519 17.2966 17.2966 -8.95011
620 1 15.7257 15.7252 15.7256 -8.94829
621 1 17.2972 17.2971 17.2972 -8.94924
622 1 18.8698 15.7246 15.7249 -8.94967
623 1 20.4417 17.2969 17.297 -8.94958
624 1 -0.000167722 18.8695 15.7246 -8.94954
625 1 1.57214 20.4418 17.2969 -8.94946
626 1 3.14414 18.8698 15.7248 -8.94924
627 1 4.71692 20.4417 17.2969 -8.9496
628 1 6.28916 18.8696 15.7247 -8.94954
629 1 7.86203 20.4414 17.2967 -8.94972
630 1 9.43459 18.8689 15.7242 -8.9499
631 1 11.007 20.4412 17.2967 -8.94963
632 1 12.5794 18.8687 15.7242 -8.94985
633 1 14.1519 20.4412 17.2968 -8.94972
634 1 15.7247 18.8693 15.7246 -8.9496
635 1 17.2969 20.4414 17.2969 -8.94959
636 1 18.8694 18.8693 15.7246 -8.94954
637 1 20.4415 20.4416 17.2969 -8.94956
672 1 20.4415 17.2969 20.4415 -8.9496
671 1 18.8694 15.7245 18.8694 -8.94961
670 1 17.2969 17.2969 20.4415 -8.94954
669 1 15.7248 15.7246 18.8695 -8.94959
668 1 14.1519 17.2968 20.4412 -8.94962
667 1 12.5795 15.7244 18.8688 -8.94943
666 1 11.007 17.2969 20.441 -8.94958
645 1 22.014 12.5794 18.8693 -8.94959
646 1 1.57213 14.152 20.4413 -8.9496
647 1 3.1445 12.5795 18.8691 -8.9496
648 1 4.71675 14.1521 20.4411 -8.94965
649 1 6.28922 12.5795 18.8692 -8.94966
650 1 7.86172 14.1522 20.4409 -8.94984
651 1 9.43441 12.5796 18.8694 -8.94981
652 1 11.007 14.1522 20.441 -8.94934
653 1 12.5799 12.5796 18.87 -8.95032
654 1 14.1523 14.1522 20.4415 -8.94983
655 1 15.7251 12.5795 18.8699 -8.94951
656 1 17.2971 14.152 20.4417 -8.94958
657 1 18.8696 12.5794 18.8695 -8.94959
658 1 20.4416 14.1519 20.4415 -8.9496
659 1 -5.38311e-05 15.7244 18.8692 -8.94959
660 1 1.5721 17.297 20.4413 -8.9496
661 1 3.14445 15.7245 18.8691 -8.94962
662 1 4.71681 17.2971 20.4411 -8.94966
663 1 6.28924 15.7247 18.869 -8.94976
664 1 7.86195 17.297 20.4409 -8.94966
665 1 9.43453 15.7244 18.8686 -8.94951
197 1 -7.42356e-05 22.0141 12.5795 -8.9496
199 1 3.1444 22.0144 12.5795 -8.94957
203 1 9.43428 22.0141 12.5798 -8.94979
205 1 12.5799 22.0137 12.5799 -8.94983
209 1 18.8694 22.0138 12.5795 -8.94961
250 1 6.28928 22.0139 15.7247 -8.94957
351 1 22.0137 12.5794 22.0137 -8.9496
355 1 6.28903 12.5797 22.0129 -8.94973
367 1 3.14423 15.7247 22.0133 -8.9496
371 1 9.43436 15.7248 22.0129 -8.9496
373 1 12.5795 15.7247 22.0132 -8.94953
361 1 15.7247 12.5795 22.0139 -8.94957
379 1 22.0137 18.8694 22.0136 -8.94957
533 1 1.57192 20.4421 11.007 -8.94958
