ITEM: TIMESTEP
77
ITEM: NUMBER OF ATOMS
688
ITEM: BOX BOUNDS pp pp pp
0.0000000000000000e+00 2.2013900999999997e+01
0.0000000000000000e+00 2.2013900999999997e+01
0.0000000000000000e+00 2.2013900999999997e+01
ITEM: ATOMS id type x y z c_pot
513 1 4.71498 11.0063 11.0078 -8.94856
2 1 1.57219 1.57245 1.57219 -8.94953
175 1 18.8704 9.43388 9.43452 -8.94944
4 1 4.71696 1.57242 1.57211 -8.94964
512 1 1.5719 11.0066 11.0072 -8.94982
6 1 7.86196 1.57237 1.57211 -8.94961
448 1 20.4423 11.0065 7.86168 -8.9499
8 1 11.007 1.57232 1.57213 -8.9496
447 1 17.2995 11.0055 7.86084 -8.94839
10 1 14.152 1.57228 1.57216 -8.94962
174 1 15.7267 9.43349 9.43497 -8.95052
12 1 17.2969 1.5723 1.57221 -8.94959
445 1 11.0242 11.0056 7.80754 -9.22891
14 1 20.4416 1.57239 1.57227 -8.94957
151 1 9.43421 0.000743742 9.43426 -8.95049
16 1 1.57219 4.71701 1.57216 -8.94949
17 1 3.14457 3.14466 -9.83203e-05 -8.94956
18 1 4.71685 4.71688 1.57205 -8.94954
443 1 4.71342 11.0061 7.86029 -8.95121
20 1 7.86188 4.71682 1.57205 -8.94966
21 1 9.43446 3.14454 -7.40738e-05 -8.94961
22 1 11.007 4.71681 1.57207 -8.94961
23 1 12.5795 3.14451 -4.84427e-05 -8.94961
24 1 14.1521 4.71677 1.57211 -8.94971
442 1 1.5715 11.0066 7.86166 -8.95025
26 1 17.2971 4.71684 1.57216 -8.94948
27 1 18.8693 3.1446 -1.59797e-05 -8.94952
28 1 20.4416 4.71701 1.57222 -8.94954
29 1 -3.23255e-05 6.28948 -8.77486e-05 -8.94961
30 1 1.57213 7.86185 1.57208 -8.94962
193 1 11.0098 7.85003 11.0108 -9.01861
32 1 4.71664 7.86167 1.57175 -8.94968
33 1 6.28921 6.28918 -0.000251514 -8.94956
34 1 7.86148 7.86136 1.57132 -8.94946
192 1 7.86044 7.85888 11.0106 -8.98122
36 1 11.007 7.86152 1.57149 -8.94939
191 1 4.71725 7.86201 11.0068 -8.95099
38 1 14.1526 7.86133 1.57151 -8.94945
39 1 15.7248 6.28913 -9.18844e-05 -8.94956
40 1 17.2971 7.86178 1.5721 -8.94975
190 1 1.57254 7.86178 11.007 -8.94955
42 1 20.4416 7.86189 1.57218 -8.94964
349 1 17.2971 11.0069 1.5721 -8.94961
44 1 3.14445 9.43436 -0.000280446 -8.94959
345 1 4.71655 11.0069 1.57154 -8.94953
688 2 10.244 11.0487 9.4541 0.649737
47 1 12.5798 9.43412 -0.000606192 -8.94998
48 1 15.7247 9.43433 -8.61577e-05 -8.94966
49 1 18.8694 9.43441 -4.45391e-05 -8.94961
50 1 22.0138 0.00020415 3.14458 -8.9496
51 1 1.57217 1.57255 4.71702 -8.94964
173 1 12.5845 9.43041 9.43462 -9.04149
53 1 4.71669 1.57253 4.7167 -8.94956
54 1 6.28934 0.000349954 3.14428 -8.94964
55 1 7.86186 1.57248 4.7167 -8.94965
172 1 9.41734 9.39411 9.43448 -9.257
57 1 11.0071 1.57235 4.71671 -8.94961
171 1 6.29226 9.43699 9.43488 -8.99771
59 1 14.1522 1.57222 4.71673 -8.94961
60 1 15.7246 9.5714e-05 3.14443 -8.9496
61 1 17.297 1.57233 4.71691 -8.9496
170 1 3.14474 9.43427 9.43451 -8.94805
63 1 20.4416 1.57243 4.71705 -8.94962
64 1 -3.67488e-05 3.14474 3.14464 -8.94964
65 1 1.57225 4.71707 4.71704 -8.94976
66 1 3.14446 3.14469 3.14448 -8.94955
67 1 4.71666 4.71672 4.71665 -8.94946
68 1 6.28936 3.14461 3.14436 -8.94973
69 1 7.86186 4.71665 4.71655 -8.95006
70 1 9.43447 3.14454 3.14437 -8.94959
71 1 11.0071 4.71657 4.71652 -8.94955
72 1 12.5796 3.14449 3.14437 -8.94964
73 1 14.1524 4.71635 4.71653 -8.94967
74 1 15.7246 3.14446 3.14443 -8.94959
75 1 17.2972 4.71672 4.71681 -8.94958
76 1 18.8694 3.14463 3.14459 -8.94959
77 1 20.4417 4.71699 4.71702 -8.94965
78 1 22.0138 6.28933 3.14448 -8.94954
79 1 1.57194 7.86158 4.71667 -8.94958
80 1 3.14427 6.28916 3.14426 -8.94929
81 1 4.7159 7.86098 4.71589 -8.94843
82 1 6.28902 6.28895 3.1439 -8.9494
83 1 7.86095 7.86074 4.71499 -8.9492
84 1 9.4344 6.28896 3.14405 -8.94955
85 1 11.0069 7.86139 4.71553 -8.94945
86 1 12.5797 6.28896 3.14408 -8.94991
87 1 14.1535 7.86029 4.71532 -8.9477
88 1 15.725 6.28888 3.14407 -8.94913
89 1 17.2977 7.86127 4.71642 -8.94934
90 1 18.8695 6.28924 3.14442 -8.9495
91 1 20.4418 7.86162 4.71677 -8.9496
92 1 -0.000143709 9.4343 3.14441 -8.94958
93 1 3.14416 9.43421 3.14406 -8.9496
94 1 6.28866 9.43405 3.14313 -8.95026
95 1 9.43351 9.43338 3.14182 -8.94836
96 1 12.5806 9.43325 3.14198 -8.94885
97 1 15.7249 9.43421 3.14404 -8.95015
98 1 18.8694 9.43431 3.1444 -8.94969
169 1 0.000308239 9.43411 9.43448 -8.94938
100 1 1.57218 1.57257 7.86199 -8.94961
101 1 3.14429 0.000470844 6.28935 -8.94959
102 1 4.71671 1.57267 7.86188 -8.94955
168 1 18.8699 6.28904 9.43445 -8.94955
104 1 7.86151 1.57227 7.86155 -8.94987
105 1 9.4344 0.000527139 6.28904 -8.94962
106 1 11.0072 1.57201 7.86159 -8.94964
107 1 12.5798 0.000264624 6.28908 -8.94966
108 1 14.1524 1.57216 7.86172 -8.94966
167 1 15.7256 6.28822 9.43442 -8.9489
110 1 17.2971 1.57226 7.8619 -8.9496
111 1 18.8693 0.000137533 6.28945 -8.94962
112 1 20.4416 1.57242 7.86199 -8.94961
113 1 22.0139 3.14477 6.28953 -8.94962
114 1 1.57238 4.71712 7.86202 -8.94962
115 1 3.14451 3.14485 6.28948 -8.94971
116 1 4.71695 4.71715 7.86201 -8.94983
117 1 6.28896 3.14433 6.28895 -8.94947
118 1 7.86099 4.71522 7.86088 -8.94836
119 1 9.43448 3.14427 6.28913 -8.94952
120 1 11.0078 4.71508 7.86115 -8.94806
121 1 12.5799 3.14401 6.28897 -8.94956
122 1 14.1528 4.7159 7.86163 -8.94984
123 1 15.7249 3.14432 6.28924 -8.94964
124 1 17.2974 4.71661 7.86185 -8.94956
125 1 18.8694 3.1446 6.28945 -8.94962
126 1 20.4418 4.71696 7.86197 -8.9496
127 1 0.00012795 6.28939 6.2895 -8.94964
128 1 1.57245 7.86181 7.862 -8.94949
129 1 3.14459 6.28945 6.28951 -8.9501
130 1 4.71729 7.86223 7.86226 -8.95125
131 1 6.28866 6.28835 6.28843 -8.94921
132 1 7.86038 7.85971 7.85845 -8.98202
133 1 9.43473 6.28842 6.28907 -8.95079
134 1 11.0092 7.86002 7.86081 -9.00188
135 1 12.5802 6.28777 6.2885 -8.95062
136 1 14.154 7.85944 7.86131 -8.95033
137 1 15.7253 6.28849 6.28893 -8.94954
138 1 17.2978 7.86119 7.86184 -8.95005
139 1 18.8696 6.28915 6.28937 -8.9497
140 1 20.442 7.86163 7.86192 -8.94956
141 1 22.0139 9.43407 6.28919 -8.94982
142 1 3.14343 9.43378 6.28863 -8.94985
143 1 6.28596 9.43216 6.28573 -8.94574
144 1 9.43167 9.4318 6.28507 -8.99702
145 1 12.5832 9.42926 6.28458 -8.9791
146 1 15.7265 9.43277 6.28795 -8.94888
147 1 18.8702 9.43377 6.28892 -8.94953
148 1 -0.00011617 0.000226101 9.4345 -8.9496
166 1 12.5806 6.28658 9.43418 -8.94866
150 1 6.28893 0.000676712 9.43442 -8.94955
165 1 9.43394 6.27894 9.43422 -8.96036
152 1 12.5799 0.000410784 9.43426 -8.94964
153 1 15.7248 6.88223e-05 9.43442 -8.94961
164 1 6.29004 6.28958 9.43445 -8.94975
155 1 6.28458e-05 3.14475 9.43448 -8.94961
156 1 3.14455 3.14483 9.43448 -8.94962
157 1 6.28916 3.14452 9.43444 -8.94916
158 1 9.43431 3.14243 9.43436 -8.95228
159 1 12.58 3.14353 9.43434 -8.94955
160 1 15.725 3.14412 9.43441 -8.94954
161 1 18.8695 3.14453 9.43446 -8.94961
162 1 22.0142 6.28936 9.43448 -8.94959
163 1 3.14486 6.28948 9.43448 -8.94943
344 1 1.57206 11.0069 1.572 -8.9496
350 1 20.4416 11.0069 1.57215 -8.9496
181 1 17.2972 1.57216 11.007 -8.9496
188 1 17.2975 4.71642 11.0071 -8.94957
177 1 4.71672 1.57257 11.0071 -8.94954
184 1 4.71694 4.71705 11.0069 -8.94986
189 1 20.4419 4.7169 11.007 -8.9496
644 1 20.4416 11.0069 20.4416 -8.9496
3 1 3.14458 0.000126048 22.0137 -8.9496
178 1 7.86151 1.57203 11.0073 -8.94981
179 1 11.0072 1.57168 11.0073 -8.95049
180 1 14.1524 1.57189 11.0071 -8.94962
46 1 9.43422 9.43412 22.0131 -8.94988
182 1 20.4417 1.57238 11.007 -8.94961
183 1 1.5724 4.71709 11.007 -8.94962
252 1 9.43442 -0.000148346 15.7248 -8.94954
185 1 7.86099 4.71481 11.008 -8.94839
186 1 11.0079 4.71296 11.0081 -8.95087
187 1 14.153 4.71537 11.0072 -8.9498
642 1 14.1523 11.0069 20.4418 -8.94972
254 1 12.5796 -0.000243685 15.7248 -8.94955
641 1 11.007 11.0069 20.4415 -8.95051
640 1 7.86174 11.007 20.4414 -8.94976
45 1 6.28918 9.43431 22.0134 -8.94976
638 1 1.57222 11.0069 20.4415 -8.9496
194 1 14.1547 7.85847 11.0077 -8.94913
195 1 17.2983 7.86084 11.0073 -8.94974
196 1 20.4422 7.86156 11.0071 -8.94961
343 1 18.8695 9.43435 18.8695 -8.9496
198 1 1.5722 1.57245 14.152 -8.94964
342 1 15.725 9.43418 18.87 -8.94957
200 1 4.71666 1.57231 14.1523 -8.94956
201 1 6.28897 0.000395581 12.5799 -8.94972
202 1 7.86163 1.57203 14.1525 -8.94972
341 1 12.5799 9.43398 18.8704 -8.95024
204 1 11.0071 1.57174 14.1526 -8.94955
340 1 9.43425 9.43401 18.8701 -8.95002
206 1 14.1525 1.5717 14.1525 -8.94975
207 1 15.7248 -5.87196e-05 12.5796 -8.94965
208 1 17.2972 1.57207 14.1521 -8.94964
339 1 6.28917 9.43427 18.8696 -8.94967
210 1 20.4417 1.57233 14.152 -8.94962
211 1 22.014 3.14471 12.5795 -8.94962
212 1 1.57229 4.717 14.152 -8.94974
213 1 3.1445 3.14475 12.5795 -8.94971
214 1 4.71652 4.71655 14.1524 -8.94945
215 1 6.28887 3.14404 12.58 -8.94939
216 1 7.86127 4.71548 14.1532 -8.94998
217 1 9.43428 3.14326 12.5802 -8.94992
218 1 11.0072 4.71518 14.1533 -8.94931
219 1 12.5802 3.14289 12.5804 -8.95009
220 1 14.1534 4.71478 14.1535 -8.94976
221 1 15.7251 3.14391 12.5798 -8.94962
222 1 17.2977 4.71629 14.1524 -8.94967
223 1 18.8696 3.14445 12.5795 -8.94961
224 1 20.4419 4.71685 14.1521 -8.94964
225 1 0.000277697 6.28933 12.5795 -8.94967
226 1 1.57219 7.86166 14.1523 -8.94972
227 1 3.14457 6.28937 12.5795 -8.95001
228 1 4.71599 7.86115 14.1528 -8.94959
229 1 6.28848 6.2881 12.5806 -8.94889
230 1 7.8591 7.85833 14.1561 -8.94651
231 1 9.43379 6.28534 12.5815 -8.95073
232 1 11.0073 7.8589 14.1555 -8.94916
233 1 12.5819 6.28416 12.5824 -8.95134
234 1 14.1571 7.85651 14.1574 -8.94321
235 1 15.726 6.28782 12.5803 -8.94965
236 1 17.2989 7.8607 14.1532 -8.95003
237 1 18.87 6.28891 12.5797 -8.94963
238 1 20.4423 7.86154 14.1523 -8.94975
239 1 22.0142 9.4341 12.5797 -8.94982
240 1 3.14394 9.43398 12.58 -8.94991
241 1 6.28696 9.43318 12.5817 -8.95072
242 1 9.42591 9.4243 12.5897 -9.02643
243 1 12.5944 9.41917 12.5943 -8.99941
244 1 15.7286 9.43226 12.5817 -8.95268
245 1 18.8708 9.43368 12.5802 -8.9499
246 1 22.0138 0.000117071 15.7245 -8.94962
247 1 1.57221 1.57237 17.2969 -8.94956
248 1 3.14438 0.000186265 15.7246 -8.94956
249 1 4.71684 1.57224 17.2971 -8.94956
338 1 3.14449 9.43437 18.8693 -8.9496
251 1 7.86187 1.57208 17.2971 -8.94958
337 1 22.0139 9.4344 18.8693 -8.9496
253 1 11.007 1.57198 17.2972 -8.94958
336 1 20.4417 7.86193 20.4416 -8.9496
255 1 14.1521 1.57195 17.2972 -8.94959
335 1 18.8696 6.28929 18.8695 -8.94959
257 1 17.2971 1.57206 17.2971 -8.94951
258 1 18.8694 -4.30909e-07 15.7245 -8.94964
259 1 20.4417 1.5723 17.2969 -8.9496
260 1 4.66144e-05 3.14465 15.7245 -8.94964
261 1 1.57222 4.71695 17.297 -8.94958
262 1 3.14442 3.14457 15.7246 -8.94957
263 1 4.7166 4.71662 17.2973 -8.94927
264 1 6.28905 3.14415 15.725 -8.94963
265 1 7.8617 4.71643 17.2975 -8.94961
266 1 9.43434 3.14392 15.7251 -8.94949
267 1 11.007 4.71629 17.2976 -8.94955
268 1 12.5798 3.1438 15.7252 -8.94953
269 1 14.1524 4.71624 17.2977 -8.94966
270 1 15.7251 3.1438 15.7251 -8.94953
271 1 17.2976 4.71636 17.2975 -8.94907
272 1 18.8696 3.1444 15.7246 -8.94963
273 1 20.4419 4.71686 17.297 -8.94957
274 1 22.0141 6.28929 15.7246 -8.94965
275 1 1.57225 7.86184 17.297 -8.94962
276 1 3.14426 6.28915 15.7248 -8.94958
277 1 4.71662 7.86164 17.2973 -8.94959
278 1 6.28834 6.28817 15.7259 -8.94857
279 1 7.86132 7.86104 17.2983 -8.94994
280 1 9.43421 6.28802 15.726 -8.94934
281 1 11.0071 7.86091 17.2985 -8.94938
282 1 12.5801 6.28782 15.7262 -8.94967
283 1 14.1531 7.86073 17.2989 -8.95005
284 1 15.7264 6.2875 15.7264 -8.94782
285 1 17.2977 7.86145 17.2976 -8.94953
286 1 18.8701 6.28892 15.725 -8.94962
287 1 20.4419 7.86179 17.2971 -8.9496
288 1 0.000165081 9.43429 15.7247 -8.94965
289 1 3.14431 9.43423 15.7248 -8.94961
290 1 6.28864 9.43388 15.7258 -8.94956
291 1 9.43369 9.43278 15.7281 -8.95054
292 1 12.5813 9.43239 15.729 -8.95193
293 1 15.7262 9.43346 15.7263 -8.94912
294 1 18.8701 9.43412 15.7251 -8.94961
334 1 17.2972 7.86179 20.4418 -8.9496
296 1 1.57225 1.57236 20.4415 -8.94952
333 1 15.725 6.28886 18.87 -8.94961
298 1 4.71702 1.5723 20.4416 -8.94962
299 1 6.28947 -3.29707e-05 18.8693 -8.94964
300 1 7.86196 1.57224 20.4416 -8.9496
332 1 14.1524 7.86153 20.4419 -8.94984
302 1 11.007 1.5722 20.4416 -8.9496
331 1 12.5797 6.28887 18.8699 -8.94955
304 1 14.152 1.57218 20.4416 -8.94961
305 1 15.7245 -0.000127664 18.8693 -8.94964
306 1 17.2969 1.57222 20.4416 -8.9496
330 1 11.007 7.86154 20.4418 -8.94966
308 1 20.4416 1.57232 20.4416 -8.94948
309 1 22.0139 3.14465 18.8693 -8.94954
310 1 1.57225 4.71704 20.4415 -8.94958
311 1 3.14451 3.14458 18.8693 -8.94947
312 1 4.71686 4.71688 20.4416 -8.94955
313 1 6.28936 3.14445 18.8694 -8.94962
314 1 7.86186 4.71679 20.4417 -8.94959
315 1 9.43442 3.14435 18.8695 -8.94959
316 1 11.007 4.71674 20.4418 -8.94959
317 1 12.5796 3.1443 18.8695 -8.94959
318 1 14.1521 4.71673 20.4418 -8.9496
319 1 15.7246 3.14432 18.8695 -8.94962
320 1 17.2971 4.71678 20.4418 -8.94952
321 1 18.8695 3.14447 18.8694 -8.94941
322 1 20.4417 4.71702 20.4416 -8.94958
323 1 5.10015e-05 6.28944 18.8693 -8.9496
324 1 1.57224 7.86192 20.4415 -8.9496
325 1 3.14448 6.28937 18.8693 -8.9496
326 1 4.71682 7.86181 20.4415 -8.94964
327 1 6.2891 6.28904 18.8697 -8.94962
328 1 7.86168 7.86158 20.4417 -8.94977
329 1 9.43434 6.28892 18.8698 -8.94954
593 1 14.153 11.0067 17.2986 -8.94969
592 1 11.0071 11.0067 17.2995 -8.95198
515 1 11.036 10.9501 11.0986 -9.3754
517 1 17.2999 11.0056 11.0082 -8.9479
518 1 20.4425 11.0065 11.0073 -8.94976
540 1 1.57211 11.0068 14.1523 -8.94964
541 1 4.71604 11.0068 14.1529 -8.94931
542 1 7.86059 11.0064 14.1552 -8.94958
544 1 14.1555 11.0056 14.1563 -8.94775
545 1 17.2986 11.0065 14.1532 -8.94976
546 1 20.4422 11.0068 14.1524 -8.94971
591 1 7.86158 11.0068 17.298 -8.94986
7 1 9.43449 4.24062e-05 22.0137 -8.94961
9 1 12.5795 1.30579e-06 22.0138 -8.94961
13 1 18.8692 3.0734e-05 22.0138 -8.94957
19 1 6.28944 3.14459 22.0138 -8.94962
25 1 15.7245 3.14452 22.0139 -8.94963
31 1 3.14448 6.28938 22.0137 -8.9496
35 1 9.43439 6.28915 22.0137 -8.94957
37 1 12.5796 6.28914 22.0138 -8.94959
41 1 18.8694 6.2894 22.0139 -8.94962
43 1 22.0138 9.43441 22.0138 -8.9496
15 1 22.0139 3.14471 22.0138 -8.94952
176 1 1.5722 1.57253 11.007 -8.94961
687 2 10.9874 12.5376 10.1974 0.649737
511 1 18.8694 18.8695 9.43448 -8.94961
346 1 7.86156 11.007 1.5709 -8.94986
347 1 11.007 11.007 1.56951 -8.95289
348 1 14.1523 11.007 1.57157 -8.94942
510 1 15.725 18.8698 9.43441 -8.94955
539 1 20.4416 20.4418 11.007 -8.94961
154 1 18.8694 22.014 9.43447 -8.9496
352 1 1.57198 14.152 1.57193 -8.9496
353 1 3.14439 12.5794 -0.000368489 -8.94958
354 1 4.71643 14.1522 1.5714 -8.94961
538 1 17.2971 20.4418 11.007 -8.94959
356 1 7.86132 14.1526 1.57066 -8.9499
357 1 9.43423 12.5798 -0.00106351 -8.94976
358 1 11.007 14.1524 1.57112 -8.94944
359 1 12.5798 12.5798 -0.000793943 -8.9499
360 1 14.1526 14.1526 1.57132 -8.94953
393 1 1.57175 11.0068 4.71655 -8.94951
362 1 17.2971 14.152 1.57207 -8.94969
363 1 18.8693 12.5794 -8.15115e-05 -8.9496
364 1 20.4415 14.1519 1.57212 -8.94961
365 1 -0.000133459 15.7244 -0.000195534 -8.9496
366 1 1.57197 17.297 1.5719 -8.94959
149 1 3.1443 22.0143 9.43448 -8.94958
368 1 4.7165 17.2974 1.5714 -8.94962
369 1 6.28914 15.7248 -0.000772809 -8.94975
370 1 7.86177 17.2974 1.57144 -8.94963
109 1 15.7247 22.0141 6.28925 -8.94961
372 1 11.007 17.2973 1.57161 -8.94955
103 1 6.28893 22.0146 6.28896 -8.94975
374 1 14.1521 17.2972 1.57183 -8.9497
375 1 15.7247 15.7247 -0.000332904 -8.9496
376 1 17.2971 17.2971 1.57196 -8.9495
99 1 -0.000138067 22.0141 6.28949 -8.94961
378 1 20.4415 17.2969 1.57209 -8.94962
394 1 4.71574 11.0068 4.71559 -8.94903
380 1 1.57206 20.4418 1.57201 -8.94941
381 1 3.14443 18.8695 -0.000372513 -8.94957
382 1 4.71687 20.4419 1.57189 -8.94963
62 1 18.8693 22.014 3.14456 -8.94959
384 1 7.86194 20.4419 1.5719 -8.94961
385 1 9.43449 18.8694 -0.000417057 -8.9496
386 1 11.007 20.4418 1.57197 -8.94961
387 1 12.5795 18.8694 -0.00033969 -8.9496
388 1 14.152 20.4417 1.57204 -8.94962
58 1 12.5796 22.0141 3.14436 -8.9496
390 1 17.2969 20.4417 1.57212 -8.94959
391 1 18.8693 18.8693 -0.000148605 -8.94954
392 1 20.4415 20.4417 1.57216 -8.94952
509 1 12.5803 18.8712 9.43363 -8.94806
508 1 9.4334 18.8734 9.43355 -8.95087
395 1 7.8609 11.0071 4.71344 -8.95249
396 1 11.0072 11.0073 4.70462 -8.96511
397 1 14.1522 11.0069 4.71573 -8.95125
507 1 6.28816 18.8711 9.43431 -8.94931
506 1 3.14386 18.87 9.43446 -8.94955
400 1 -0.000243134 12.5794 3.14436 -8.94959
401 1 1.57153 14.1521 4.71646 -8.94957
402 1 3.14396 12.5795 3.14393 -8.94956
403 1 4.71522 14.1529 4.71533 -8.94912
404 1 6.28833 12.5798 3.14285 -8.94976
405 1 7.85979 14.1541 4.71283 -8.95268
406 1 9.43332 12.5807 3.14157 -8.9479
407 1 11.0065 14.1528 4.71482 -8.95052
408 1 12.5806 12.5808 3.14197 -8.94839
409 1 14.1535 14.1535 4.71496 -8.94888
410 1 15.7249 12.5795 3.14419 -8.94962
411 1 17.2974 14.1521 4.71658 -8.95015
412 1 18.8694 12.5794 3.14442 -8.94961
413 1 20.4416 14.152 4.71674 -8.94966
414 1 22.0136 15.7245 3.14431 -8.9496
415 1 1.5715 17.2975 4.71644 -8.94961
416 1 3.14383 15.7249 3.1438 -8.94953
417 1 4.71509 17.2988 4.71512 -8.94782
418 1 6.2883 15.7256 3.14262 -8.95003
419 1 7.86119 17.2985 4.71546 -8.94965
420 1 9.43423 15.7255 3.14314 -8.94974
421 1 11.0071 17.2981 4.71586 -8.9489
422 1 12.5796 15.7251 3.14368 -8.95005
423 1 14.1525 17.2978 4.71619 -8.94954
424 1 15.7251 15.7251 3.14378 -8.94934
425 1 17.2974 17.2974 4.71647 -8.94913
426 1 18.8694 15.7245 3.14435 -8.94975
427 1 20.4416 17.2972 4.71671 -8.94956
428 1 -0.000277941 18.8695 3.14435 -8.94952
429 1 1.57194 20.442 4.71684 -8.94962
430 1 3.14395 18.87 3.1439 -8.94907
431 1 4.71635 20.4425 4.71636 -8.94953
432 1 6.28906 18.87 3.14379 -8.94967
433 1 7.86172 20.4424 4.7164 -8.94962
434 1 9.43441 18.8699 3.14395 -8.94957
435 1 11.0071 20.4422 4.71651 -8.94954
436 1 12.5796 18.8697 3.1441 -8.94956
437 1 14.1522 20.442 4.71662 -8.94964
438 1 15.7247 18.8696 3.14425 -8.94958
439 1 17.2971 20.4419 4.71683 -8.94959
440 1 18.8693 18.8695 3.1444 -8.94948
441 1 20.4415 20.4418 4.71697 -8.94963
505 1 -0.000271219 18.8696 9.43449 -8.94959
504 1 18.87 15.7248 9.43447 -8.94939
444 1 7.85017 11.0025 7.84988 -9.01846
503 1 15.726 15.7249 9.43456 -8.94945
446 1 14.156 11.0016 7.85859 -9.03344
502 1 12.5807 15.7263 9.43229 -9.00188
501 1 9.43069 15.7363 9.43166 -9.01861
449 1 22.0136 12.5794 6.28915 -8.94972
450 1 1.57105 14.1523 7.86158 -8.95024
451 1 3.14289 12.5796 6.28852 -8.94969
452 1 4.71245 14.1539 7.86017 -8.95193
453 1 6.28518 12.5807 6.28594 -8.94775
454 1 7.84714 14.1672 7.84708 -8.99941
455 1 9.43043 12.5828 6.28525 -9.0551
456 1 11.0069 14.1559 7.85701 -9.04149
457 1 12.5829 12.5847 6.28543 -9.03344
458 1 14.1569 14.1571 7.85828 -8.9791
459 1 15.7257 12.5794 6.28926 -8.95125
460 1 17.2995 14.1531 7.86085 -8.94885
461 1 18.8699 12.5793 6.28913 -8.94942
462 1 20.4421 14.1522 7.86166 -8.94998
463 1 -0.000416937 15.7248 6.2891 -8.94984
464 1 1.57154 17.2975 7.86178 -8.94955
465 1 3.14262 15.7256 6.28836 -8.95005
466 1 4.71528 17.2985 7.86135 -8.94967
467 1 6.28411 15.7298 6.28434 -8.94321
468 1 7.85912 17.3022 7.85956 -8.95134
469 1 9.43379 15.7279 6.28674 -8.94913
470 1 11.0073 17.2997 7.86086 -8.94866
471 1 12.5802 15.7269 6.28753 -8.95033
472 1 14.153 17.2986 7.86123 -8.95062
473 1 15.7262 15.726 6.288 -8.9477
474 1 17.2974 17.2974 7.86181 -8.94991
475 1 18.87 15.725 6.28891 -8.94945
476 1 20.4416 17.2972 7.86187 -8.94959
477 1 22.0136 18.8696 6.28936 -8.9496
478 1 1.57193 20.442 7.86192 -8.94959
479 1 3.14381 18.8701 6.28907 -8.94966
480 1 4.7163 20.4425 7.86173 -8.94953
481 1 6.28802 18.8715 6.28811 -8.94976
482 1 7.86112 20.4434 7.86125 -8.95009
483 1 9.43426 18.871 6.28853 -8.9498
484 1 11.0071 20.4428 7.86148 -8.94955
485 1 12.5799 18.8704 6.2887 -8.94984
486 1 14.1525 20.4423 7.86155 -8.94956
487 1 15.7249 18.87 6.28905 -8.94967
488 1 17.2971 20.4418 7.8619 -8.94964
489 1 18.8694 18.8695 6.28936 -8.94971
490 1 20.4415 20.4418 7.86196 -8.94961
491 1 -4.58622e-05 12.5794 9.43447 -8.95051
492 1 3.14199 12.5796 9.43434 -8.95198
493 1 6.27873 12.5797 9.43342 -9.01735
494 1 9.34292 12.6362 9.40552 -9.3754
495 1 12.6339 12.5807 9.41724 -9.22891
496 1 15.7369 12.579 9.43427 -8.96511
497 1 18.872 12.5793 9.43446 -8.95289
498 1 22.0136 15.7248 9.43447 -8.94966
499 1 3.14295 15.7254 9.43439 -8.94938
500 1 6.286 15.7274 9.43417 -8.94916
56 1 9.43447 22.0142 3.14431 -8.9496
52 1 3.14435 22.0143 3.14434 -8.94951
516 1 14.1562 11.0035 11.011 -9.0551
519 1 1.57134 14.1523 11.0072 -8.95002
520 1 4.71342 14.1535 11.0078 -8.95054
521 1 7.85177 14.162 11.0156 -9.02643
529 1 11.0073 17.3074 11.0075 -8.96036
398 1 17.2973 11.0068 4.71657 -8.94962
1 1 -9.39442e-05 22.014 -0.000110858 -8.94948
5 1 6.28949 22.014 -0.00019941 -8.94962
399 1 20.4416 11.0068 4.71676 -8.94956
530 1 14.1524 17.2979 11.0068 -8.95079
532 1 20.4416 17.2972 11.0071 -8.94957
534 1 4.71638 20.4424 11.0071 -8.94949
11 1 15.7244 22.0139 -0.000111165 -8.94962
686 1 20.4415 20.4416 20.4415 -8.94952
685 1 18.8693 18.8693 18.8693 -8.94949
514 1 7.85848 11.006 11.0137 -9.0324
684 1 17.2968 20.4416 20.4415 -8.94964
307 1 18.8693 22.0139 18.8693 -8.94953
683 1 15.7244 18.8693 18.8692 -8.94976
682 1 14.1519 20.4416 20.4415 -8.94962
303 1 12.5795 22.0138 18.8693 -8.94961
301 1 9.43448 22.0138 18.8693 -8.94961
297 1 3.14456 22.014 18.8693 -8.94956
522 1 11.007 14.1922 11.0241 -9.257
523 1 14.1564 14.1545 11.0098 -8.99702
524 1 17.2997 14.1529 11.008 -8.94836
525 1 20.4423 14.1522 11.0073 -8.94988
526 1 1.57165 17.2974 11.0071 -8.94954
527 1 4.71553 17.2983 11.0073 -8.94934
528 1 7.85997 17.301 11.0077 -8.95073
295 1 -6.00629e-05 22.014 18.8692 -8.94952
639 1 4.71682 11.0069 20.4414 -8.94963
531 1 17.2974 17.2974 11.0071 -8.94955
643 1 17.2971 11.0069 20.4417 -8.94959
256 1 15.7248 22.0138 15.7248 -8.94956
383 1 6.28941 18.8695 22.0135 -8.94964
535 1 7.8613 20.4431 11.0072 -8.94992
536 1 11.0071 20.4439 11.0072 -8.95228
537 1 14.1524 20.442 11.007 -8.94952
377 1 18.8693 15.7244 22.0138 -8.94964
389 1 15.7245 18.8693 22.0137 -8.94965
681 1 12.5795 18.8692 18.8691 -8.94962
680 1 11.007 20.4416 20.4414 -8.94961
679 1 9.43452 18.8692 18.8691 -8.94962
543 1 11.0081 11.0066 14.1628 -9.01735
678 1 7.86201 20.4416 20.4414 -8.94962
677 1 6.28947 18.8693 18.8692 -8.94974
676 1 4.71702 20.4417 20.4414 -8.94964
547 1 22.014 12.5794 12.5797 -8.94976
548 1 1.57191 14.1521 14.1523 -8.94967
549 1 3.14352 12.5795 12.5799 -8.94986
550 1 4.71573 14.1524 14.1528 -8.94956
551 1 6.28626 12.5799 12.5809 -8.94958
552 1 7.85978 14.1531 14.1545 -8.95072
553 1 9.42777 12.5803 12.583 -9.0324
554 1 11.0066 14.1493 14.1492 -8.99771
555 1 12.5916 12.5838 12.5913 -9.01846
556 1 14.1557 14.1542 14.1555 -8.94574
557 1 15.728 12.5793 12.5806 -8.95249
558 1 17.2983 14.1523 14.1528 -8.95026
559 1 18.8706 12.5793 12.5799 -8.94986
560 1 20.442 14.152 14.1523 -8.94976
561 1 -0.000176891 15.7247 12.5798 -8.94977
562 1 1.57178 17.2973 14.1524 -8.94962
563 1 3.14315 15.7253 12.5802 -8.94994
564 1 4.71561 17.2981 14.1531 -8.94857
565 1 6.28539 15.728 12.5824 -8.94651
566 1 7.86089 17.2982 14.153 -8.94889
567 1 9.4309 15.7274 12.581 -8.98122
568 1 11.007 17.2967 14.1514 -8.94975
569 1 12.583 15.7266 12.5811 -8.98202
570 1 14.153 17.298 14.1528 -8.94921
571 1 15.7265 15.7256 12.5805 -8.9492
572 1 17.2976 17.2974 14.1525 -8.9494
573 1 18.8702 15.725 12.58 -8.94946
574 1 20.4417 17.2971 14.1523 -8.94956
575 1 22.0137 18.8695 12.5796 -8.94959
576 1 1.57204 20.4419 14.1521 -8.94962
577 1 3.14398 18.8699 12.5798 -8.94961
578 1 4.71646 20.4422 14.1524 -8.94963
579 1 6.28831 18.8708 12.5802 -8.94998
580 1 7.86145 20.4423 14.1526 -8.94939
581 1 9.43348 18.8715 12.5805 -8.94839
582 1 11.007 20.4418 14.1523 -8.94916
583 1 12.5806 18.8711 12.5805 -8.94836
584 1 14.1525 20.442 14.1525 -8.94947
585 1 15.7249 18.8697 12.5796 -8.95006
586 1 17.2971 20.4417 14.1521 -8.94973
587 1 18.8694 18.8695 12.5796 -8.94966
588 1 20.4416 20.4417 14.152 -8.94962
589 1 1.57223 11.0069 17.297 -8.9496
590 1 4.71667 11.0069 17.2973 -8.94955
675 1 3.1445 18.8694 18.8693 -8.94958
674 1 1.5722 20.4417 20.4415 -8.94954
673 1 22.0138 18.8693 18.8692 -8.94958
594 1 17.2975 11.0068 17.2975 -8.94956
595 1 20.4418 11.0069 17.2971 -8.94958
596 1 7.47833e-05 12.5794 15.7247 -8.94963
597 1 1.57217 14.152 17.297 -8.9496
598 1 3.14421 12.5795 15.7248 -8.94955
599 1 4.71663 14.1521 17.2972 -8.94961
600 1 6.28855 12.5796 15.7254 -8.94931
601 1 7.86147 14.1523 17.2975 -8.94991
602 1 9.43366 12.58 15.7265 -8.94856
603 1 11.007 14.1521 17.2967 -8.94805
604 1 12.5812 12.5802 15.7281 -8.95121
605 1 14.1529 14.1525 17.298 -8.94985
606 1 15.7259 12.5795 15.7257 -8.94903
607 1 17.2974 14.1521 17.2973 -8.9496
608 1 18.8699 12.5794 15.7249 -8.94953
609 1 20.4418 14.152 17.297 -8.94959
610 1 22.0139 15.7245 15.7247 -8.94964
611 1 1.57213 17.297 17.297 -8.9496
612 1 3.14414 15.7247 15.7249 -8.94959
613 1 4.7167 17.2972 17.2972 -8.94958
614 1 6.28864 15.7252 15.7255 -8.94959
615 1 7.86198 17.297 17.2969 -8.95001
616 1 9.4347 15.7243 15.7242 -8.95099
617 1 11.007 17.2968 17.2966 -8.94943
618 1 12.5792 15.7241 15.7242 -8.95125
619 1 14.152 17.2969 17.2969 -8.9501
620 1 15.7256 15.7253 15.7256 -8.94843
621 1 17.2972 17.2972 17.2972 -8.94929
622 1 18.8697 15.7247 15.7248 -8.94968
623 1 20.4417 17.2969 17.297 -8.9496
624 1 -0.000141616 18.8694 15.7246 -8.94955
625 1 1.57213 20.4417 17.297 -8.94947
626 1 3.14415 18.8697 15.7249 -8.94927
627 1 4.71686 20.4418 17.2971 -8.94957
628 1 6.28906 18.8698 15.725 -8.94945
629 1 7.86196 20.4416 17.297 -8.94971
630 1 9.43453 18.8693 15.7245 -8.94986
631 1 11.007 20.4415 17.2969 -8.94962
632 1 12.5795 18.8692 15.7245 -8.94983
633 1 14.152 20.4415 17.297 -8.94971
634 1 15.7248 18.8696 15.7248 -8.94946
635 1 17.297 20.4416 17.297 -8.94955
636 1 18.8694 18.8694 15.7246 -8.94954
637 1 20.4416 20.4417 17.2969 -8.94956
672 1 20.4416 17.2968 20.4415 -8.94961
671 1 18.8694 15.7245 18.8693 -8.94962
670 1 17.297 17.297 20.4415 -8.94954
669 1 15.7248 15.7247 18.8695 -8.94958
668 1 14.152 17.2969 20.4414 -8.94964
667 1 12.5795 15.7245 18.869 -8.94949
666 1 11.007 17.297 20.4412 -8.94959
645 1 22.0139 12.5794 18.8693 -8.9496
646 1 1.57218 14.1519 20.4414 -8.9496
647 1 3.14448 12.5794 18.8692 -8.9496
648 1 4.7168 14.152 20.4413 -8.94965
649 1 6.28919 12.5795 18.8694 -8.94964
650 1 7.86173 14.1522 20.4412 -8.94982
651 1 9.43432 12.5797 18.8696 -8.94982
652 1 11.007 14.1522 20.4412 -8.94938
653 1 12.5798 12.5797 18.87 -8.95025
654 1 14.1523 14.1523 20.4415 -8.94982
655 1 15.7249 12.5796 18.8697 -8.94951
656 1 17.2971 14.152 20.4416 -8.94958
657 1 18.8695 12.5795 18.8694 -8.9496
658 1 20.4416 14.1519 20.4415 -8.9496
659 1 -4.18592e-05 15.7244 18.8692 -8.9496
660 1 1.57217 17.2969 20.4414 -8.9496
661 1 3.14446 15.7245 18.8692 -8.94962
662 1 4.71685 17.297 20.4413 -8.94965
663 1 6.28922 15.7247 18.8693 -8.94972
664 1 7.86196 17.297 20.4412 -8.94967
665 1 9.43449 15.7245 18.8689 -8.94955
197 1 -9.25453e-05 22.0141 12.5795 -8.9496
199 1 3.14434 22.0142 12.5796 -8.94958
203 1 9.43422 22.0143 12.58 -8.94981
205 1 12.5799 22.014 12.58 -8.94987
209 1 18.8694 22.014 12.5795 -8.94961
250 1 6.28919 22.014 15.7248 -8.94956
351 1 22.0138 12.5794 22.0137 -8.9496
355 1 6.28912 12.5796 22.0132 -8.94971
367 1 3.14436 15.7245 22.0135 -8.9496
371 1 9.43441 15.7248 22.0132 -8.94961
373 1 12.5796 15.7247 22.0134 -8.94956
361 1 15.7247 12.5795 22.0137 -8.94956
379 1 22.0138 18.8693 22.0137 -8.94958
533 1 1.57198 20.442 11.0071 -8.94959
