ITEM: TIMESTEP
52
ITEM: NUMBER OF ATOMS
688
ITEM: BOX BOUNDS pp pp pp
0.0000000000000000e+00 2.2013900999999997e+01
0.0000000000000000e+00 2.2013900999999997e+01
0.0000000000000000e+00 2.2013900999999997e+01
ITEM: ATOMS id type x y z c_pot
513 1 4.71657 11.0067 11.0072 -8.94977
2 1 1.57242 1.57242 1.57242 -8.94963
175 1 18.8691 9.43455 9.43453 -8.94977
4 1 4.71726 1.57242 1.57242 -8.94963
512 1 1.57237 11.0069 11.007 -8.94978
6 1 7.86211 1.57242 1.57242 -8.94963
448 1 20.4415 11.0069 7.86209 -8.94963
8 1 11.007 1.57242 1.57242 -8.94963
447 1 17.2968 11.0068 7.86189 -8.94872
10 1 14.1518 1.57242 1.57242 -8.94963
174 1 15.7246 9.43461 9.43463 -8.95148
12 1 17.2966 1.57242 1.57242 -8.94963
445 1 11.0266 11.0032 7.81438 -9.24845
14 1 20.4415 1.57242 1.57242 -8.94963
151 1 9.43452 1.95204e-05 9.43452 -8.9498
16 1 1.57242 4.71726 1.57242 -8.94963
17 1 3.14484 3.14484 1.04176e-08 -8.94963
18 1 4.71726 4.71726 1.57242 -8.94963
443 1 4.71652 11.0067 7.86185 -8.95017
20 1 7.86211 4.71726 1.57242 -8.94964
21 1 9.43453 3.14484 -7.09784e-08 -8.94963
22 1 11.007 4.71726 1.57242 -8.94963
23 1 12.5794 3.14484 -9.28175e-08 -8.94963
24 1 14.1518 4.71727 1.57242 -8.94965
442 1 1.57237 11.0069 7.86211 -8.94981
26 1 17.2966 4.71726 1.57242 -8.94963
27 1 18.8691 3.14484 -3.30138e-08 -8.94963
28 1 20.4415 4.71726 1.57242 -8.94963
29 1 2.20361e-08 6.28969 1.47002e-08 -8.94963
30 1 1.57242 7.86211 1.57242 -8.94964
193 1 11.0082 7.8575 11.0075 -9.01435
32 1 4.71726 7.86211 1.57242 -8.94964
33 1 6.28968 6.28968 -2.12372e-06 -8.94962
34 1 7.86209 7.86209 1.57239 -8.9496
192 1 7.86054 7.86117 11.0093 -8.98321
36 1 11.007 7.86211 1.57243 -8.9496
191 1 4.71729 7.86221 11.0068 -8.95042
38 1 14.1518 7.86209 1.57239 -8.94958
39 1 15.7242 6.28968 -2.3478e-06 -8.94962
40 1 17.2966 7.86211 1.57243 -8.94966
190 1 1.57243 7.86211 11.0069 -8.94964
42 1 20.4415 7.86211 1.57242 -8.94963
349 1 17.2966 11.007 1.57242 -8.94963
44 1 3.14484 9.43453 1.04713e-07 -8.94963
345 1 4.71726 11.007 1.57242 -8.94961
688 2 10.2238 11.0088 9.43284 0.751239
47 1 12.5794 9.43452 -2.29277e-05 -8.94966
48 1 15.7242 9.43453 5.34933e-06 -8.94964
49 1 18.8691 9.43453 -1.87671e-07 -8.94963
50 1 22.0139 8.36378e-10 3.14484 -8.94963
51 1 1.57242 1.57242 4.71726 -8.94963
173 1 12.5842 9.43111 9.43364 -9.03749
53 1 4.71726 1.57242 4.71726 -8.94962
54 1 6.28969 3.88356e-07 3.14484 -8.94963
55 1 7.86211 1.57242 4.71727 -8.94964
172 1 9.41371 9.39248 9.43372 -9.2722
57 1 11.0069 1.57242 4.71727 -8.94964
171 1 6.29056 9.43585 9.43463 -9.00101
59 1 14.1518 1.57242 4.71726 -8.94963
60 1 15.7242 3.91881e-07 3.14484 -8.94963
61 1 17.2966 1.57242 4.71726 -8.94963
170 1 3.14491 9.43452 9.43453 -8.94919
63 1 20.4415 1.57242 4.71726 -8.94963
64 1 1.59592e-07 3.14484 3.14484 -8.94963
65 1 1.57242 4.71727 4.71727 -8.94964
66 1 3.14484 3.14484 3.14484 -8.94963
67 1 4.71726 4.71725 4.71726 -8.94957
68 1 6.28969 3.14484 3.14484 -8.94965
69 1 7.86212 4.71727 4.71727 -8.94977
70 1 9.43453 3.14484 3.14484 -8.94963
71 1 11.0069 4.71727 4.71725 -8.94962
72 1 12.5794 3.14484 3.14484 -8.94964
73 1 14.1518 4.71725 4.71726 -8.94963
74 1 15.7242 3.14484 3.14484 -8.94963
75 1 17.2966 4.71726 4.71726 -8.94961
76 1 18.8691 3.14484 3.14484 -8.94963
77 1 20.4415 4.71726 4.71726 -8.94963
78 1 22.0139 6.28969 3.14484 -8.94963
79 1 1.57241 7.8621 4.71726 -8.94962
80 1 3.14484 6.28968 3.14484 -8.94961
81 1 4.7172 7.86205 4.71722 -8.94937
82 1 6.28968 6.28968 3.14483 -8.94961
83 1 7.86199 7.86201 4.71699 -8.9498
84 1 9.43454 6.28968 3.14485 -8.94965
85 1 11.0069 7.8622 4.7173 -8.95019
86 1 12.5794 6.28969 3.14486 -8.94979
87 1 14.152 7.8619 4.71704 -8.94862
88 1 15.7242 6.28968 3.14483 -8.94954
89 1 17.2966 7.86211 4.71727 -8.94965
90 1 18.8691 6.28969 3.14484 -8.94964
91 1 20.4415 7.86211 4.71726 -8.94963
92 1 1.33582e-07 9.43453 3.14484 -8.94963
93 1 3.14485 9.43453 3.14485 -8.94967
94 1 6.28967 9.43453 3.1448 -8.94984
95 1 9.43432 9.43431 3.14457 -8.94879
96 1 12.5796 9.43431 3.14454 -8.9492
97 1 15.7242 9.43457 3.14488 -8.94984
98 1 18.8691 9.43453 3.14484 -8.94964
169 1 5.16882e-06 9.43453 9.43453 -8.9496
100 1 1.57242 1.57242 7.86211 -8.94963
101 1 3.14484 -3.56104e-08 6.28969 -8.94963
102 1 4.71727 1.57243 7.86211 -8.94964
168 1 18.8691 6.28968 9.43453 -8.94961
104 1 7.86209 1.5724 7.8621 -8.94965
105 1 9.43453 2.98051e-06 6.28969 -8.94964
106 1 11.007 1.5724 7.8621 -8.94964
107 1 12.5794 2.64823e-06 6.28968 -8.94965
108 1 14.1518 1.57242 7.86211 -8.94965
167 1 15.7243 6.28967 9.43454 -8.94948
110 1 17.2966 1.57242 7.86211 -8.94963
111 1 18.8691 -4.20865e-08 6.28969 -8.94963
112 1 20.4415 1.57242 7.86211 -8.94963
113 1 22.0139 3.14484 6.28969 -8.94963
114 1 1.57242 4.71726 7.86211 -8.94963
115 1 3.14484 3.14485 6.28969 -8.94965
116 1 4.71728 4.7173 7.86213 -8.94976
117 1 6.28967 3.14482 6.28967 -8.94958
118 1 7.8619 4.71702 7.8619 -8.94908
119 1 9.43453 3.14485 6.28969 -8.94963
120 1 11.0071 4.71705 7.86193 -8.94882
121 1 12.5794 3.14481 6.28967 -8.94962
122 1 14.1518 4.71718 7.86208 -8.94973
123 1 15.7242 3.14484 6.28968 -8.94963
124 1 17.2966 4.71727 7.86211 -8.94966
125 1 18.8691 3.14484 6.28969 -8.94964
126 1 20.4415 4.71726 7.86211 -8.94963
127 1 2.02848e-06 6.28969 6.28969 -8.94964
128 1 1.57243 7.86211 7.86211 -8.94964
129 1 3.14485 6.2897 6.2897 -8.94973
130 1 4.71729 7.86223 7.86223 -8.95056
131 1 6.28953 6.28951 6.28953 -8.94888
132 1 7.86035 7.86087 7.85962 -8.98316
133 1 9.43461 6.2897 6.28978 -8.95044
134 1 11.0082 7.86175 7.8616 -9.00394
135 1 12.5794 6.28941 6.2896 -8.95019
136 1 14.1524 7.86137 7.86178 -8.94903
137 1 15.7243 6.28964 6.28963 -8.94944
138 1 17.2967 7.86209 7.8621 -8.94985
139 1 18.8691 6.28968 6.28968 -8.94964
140 1 20.4415 7.86211 7.86211 -8.94965
141 1 22.0139 9.43453 6.28968 -8.94965
142 1 3.14475 9.43449 6.28964 -8.94965
143 1 6.28892 9.43409 6.28903 -8.94785
144 1 9.43291 9.43344 6.28902 -9.00088
145 1 12.5815 9.43145 6.28792 -8.98128
146 1 15.7244 9.43446 6.28964 -8.94963
147 1 18.8691 9.43452 6.28967 -8.94959
148 1 1.36107e-08 -5.72485e-09 9.43453 -8.94963
166 1 12.5796 6.28915 9.43436 -8.9499
150 1 6.28969 -1.34147e-06 9.43453 -8.94962
165 1 9.43434 6.28487 9.43436 -8.96033
152 1 12.5794 1.94192e-05 9.43452 -8.94964
153 1 15.7242 -1.68004e-06 9.43453 -8.94964
164 1 6.28993 6.29001 9.43454 -8.95023
155 1 -1.18941e-07 3.14484 9.43453 -8.94963
156 1 3.14484 3.14484 9.43453 -8.94963
157 1 6.28969 3.14487 9.43453 -8.94954
158 1 9.43452 3.1445 9.43452 -8.95096
159 1 12.5794 3.1448 9.43452 -8.94973
160 1 15.7242 3.14484 9.43453 -8.94962
161 1 18.8691 3.14484 9.43453 -8.94963
162 1 22.0139 6.28969 9.43453 -8.94963
163 1 3.14486 6.28968 9.43453 -8.94954
344 1 1.57242 11.007 1.57242 -8.94963
350 1 20.4415 11.007 1.57242 -8.94963
181 1 17.2966 1.57242 11.007 -8.94963
188 1 17.2966 4.71726 11.007 -8.94965
177 1 4.71727 1.57243 11.0069 -8.94963
184 1 4.71728 4.7173 11.0069 -8.94975
189 1 20.4415 4.71726 11.007 -8.94963
644 1 20.4415 11.007 20.4415 -8.94963
3 1 3.14484 -3.23779e-09 22.0139 -8.94963
178 1 7.8621 1.5724 11.007 -8.94964
179 1 11.007 1.5724 11.007 -8.9498
180 1 14.1518 1.57242 11.007 -8.94964
46 1 9.43452 9.43452 22.0139 -8.94964
182 1 20.4415 1.57242 11.007 -8.94963
183 1 1.57242 4.71726 11.007 -8.94963
252 1 9.43453 -3.5925e-06 15.7242 -8.94963
185 1 7.86193 4.71706 11.0071 -8.94908
186 1 11.0071 4.71674 11.0071 -8.95004
187 1 14.1518 4.71721 11.007 -8.94975
642 1 14.1518 11.0069 20.4415 -8.94963
254 1 12.5794 -3.60444e-06 15.7242 -8.94964
641 1 11.007 11.0069 20.4415 -8.9498
640 1 7.86211 11.0069 20.4415 -8.94965
45 1 6.28969 9.43453 22.0139 -8.94965
638 1 1.57242 11.007 20.4415 -8.94963
194 1 14.1523 7.86159 11.0071 -8.94912
195 1 17.2967 7.86207 11.007 -8.94972
196 1 20.4415 7.86211 11.0069 -8.94965
343 1 18.8691 9.43453 18.8691 -8.94963
198 1 1.57242 1.57242 14.1518 -8.94963
342 1 15.7242 9.43453 18.8691 -8.94963
200 1 4.71726 1.57242 14.1518 -8.94963
201 1 6.28969 -2.00145e-06 12.5794 -8.94964
202 1 7.86211 1.57242 14.1518 -8.94964
341 1 12.5794 9.43452 18.8691 -8.94966
204 1 11.0069 1.57242 14.1518 -8.94962
340 1 9.43452 9.43452 18.8691 -8.94963
206 1 14.1518 1.57242 14.1518 -8.94963
207 1 15.7242 -2.00336e-06 12.5794 -8.94964
208 1 17.2966 1.57242 14.1518 -8.94963
339 1 6.28968 9.43453 18.8691 -8.94965
210 1 20.4415 1.57242 14.1518 -8.94963
211 1 22.0139 3.14484 12.5794 -8.94963
212 1 1.57242 4.71727 14.1518 -8.94964
213 1 3.14484 3.14485 12.5794 -8.94965
214 1 4.71726 4.71725 14.1518 -8.94958
215 1 6.28967 3.14482 12.5794 -8.94959
216 1 7.8621 4.71725 14.1518 -8.94973
217 1 9.43452 3.14484 12.5794 -8.94963
218 1 11.0069 4.71729 14.1518 -8.94957
219 1 12.5794 3.1448 12.5794 -8.94963
220 1 14.1518 4.71723 14.1518 -8.9496
221 1 15.7242 3.14484 12.5794 -8.94964
222 1 17.2966 4.71726 14.1518 -8.94963
223 1 18.8691 3.14484 12.5794 -8.94963
224 1 20.4415 4.71726 14.1518 -8.94963
225 1 2.05715e-06 6.28969 12.5794 -8.94964
226 1 1.57241 7.8621 14.1518 -8.94962
227 1 3.14485 6.2897 12.5794 -8.94972
228 1 4.71721 7.86205 14.1518 -8.94944
229 1 6.28955 6.28954 12.5795 -8.94903
230 1 7.86186 7.86186 14.1522 -8.94915
231 1 9.43443 6.28952 12.5794 -8.94986
232 1 11.0068 7.86241 14.1516 -8.95095
233 1 12.5796 6.28921 12.5796 -8.94974
234 1 14.1522 7.86171 14.1522 -8.94774
235 1 15.7243 6.28966 12.5794 -8.94956
236 1 17.2966 7.86211 14.1518 -8.94973
237 1 18.8691 6.28968 12.5794 -8.94963
238 1 20.4415 7.86211 14.1518 -8.94963
239 1 22.0139 9.43453 12.5794 -8.94965
240 1 3.14475 9.43449 12.5794 -8.94967
241 1 6.28886 9.43419 12.5799 -8.94905
242 1 9.43054 9.4327 12.5814 -9.0336
243 1 12.5843 9.43026 12.5829 -9.01092
244 1 15.7245 9.43458 12.5793 -8.95103
245 1 18.8691 9.43452 12.5794 -8.94961
246 1 22.0139 4.91805e-09 15.7242 -8.94963
247 1 1.57242 1.57242 17.2966 -8.94963
248 1 3.14484 -3.47744e-08 15.7242 -8.94963
249 1 4.71726 1.57242 17.2966 -8.94963
338 1 3.14484 9.43453 18.8691 -8.94963
251 1 7.86211 1.57242 17.2966 -8.94963
337 1 22.0139 9.43453 18.8691 -8.94963
253 1 11.007 1.57242 17.2966 -8.94963
336 1 20.4415 7.86211 20.4415 -8.94963
255 1 14.1518 1.57242 17.2966 -8.94963
335 1 18.8691 6.28969 18.8691 -8.94963
257 1 17.2966 1.57242 17.2966 -8.94963
258 1 18.8691 -3.69022e-08 15.7242 -8.94963
259 1 20.4415 1.57242 17.2966 -8.94963
260 1 1.6058e-07 3.14484 15.7242 -8.94963
261 1 1.57242 4.71726 17.2966 -8.94963
262 1 3.14484 3.14484 15.7242 -8.94963
263 1 4.71726 4.71726 17.2966 -8.94963
264 1 6.28969 3.14484 15.7242 -8.94964
265 1 7.86211 4.71727 17.2966 -8.94965
266 1 9.43453 3.14484 15.7242 -8.94963
267 1 11.007 4.71726 17.2966 -8.94963
268 1 12.5794 3.14485 15.7242 -8.94964
269 1 14.1518 4.71727 17.2966 -8.94966
270 1 15.7242 3.14484 15.7242 -8.94963
271 1 17.2966 4.71726 17.2966 -8.94962
272 1 18.8691 3.14484 15.7242 -8.94963
273 1 20.4415 4.71726 17.2966 -8.94963
274 1 22.0139 6.28969 15.7242 -8.94963
275 1 1.57242 7.86211 17.2966 -8.94964
276 1 3.14484 6.28968 15.7242 -8.94961
277 1 4.71726 7.8621 17.2966 -8.94961
278 1 6.28967 6.28967 15.7242 -8.94955
279 1 7.8621 7.8621 17.2967 -8.94969
280 1 9.43456 6.2897 15.7242 -8.94972
281 1 11.0069 7.86211 17.2966 -8.94955
282 1 12.5793 6.28972 15.7242 -8.94987
283 1 14.1518 7.8621 17.2967 -8.94968
284 1 15.7242 6.28966 15.7242 -8.94947
285 1 17.2966 7.86211 17.2966 -8.94963
286 1 18.8691 6.28969 15.7242 -8.94964
287 1 20.4415 7.86211 17.2966 -8.94963
288 1 1.6665e-07 9.43453 15.7242 -8.94963
289 1 3.14484 9.43453 15.7242 -8.94966
290 1 6.28961 9.43446 15.7243 -8.94956
291 1 9.43443 9.43444 15.7244 -8.94948
292 1 12.5795 9.43443 15.7245 -8.94999
293 1 15.7242 9.4345 15.7242 -8.94955
294 1 18.8691 9.43453 15.7242 -8.94963
334 1 17.2966 7.86211 20.4415 -8.94963
296 1 1.57242 1.57242 20.4415 -8.94963
333 1 15.7242 6.28969 18.8691 -8.94963
298 1 4.71726 1.57242 20.4415 -8.94963
299 1 6.28969 -1.94842e-07 18.8691 -8.94963
300 1 7.86211 1.57242 20.4415 -8.94963
332 1 14.1518 7.86211 20.4415 -8.94964
302 1 11.007 1.57242 20.4415 -8.94963
331 1 12.5794 6.28969 18.8691 -8.94963
304 1 14.1518 1.57242 20.4415 -8.94963
305 1 15.7242 -1.95578e-07 18.8691 -8.94963
306 1 17.2966 1.57242 20.4415 -8.94963
330 1 11.007 7.86211 20.4415 -8.94962
308 1 20.4415 1.57242 20.4415 -8.94963
309 1 22.0139 3.14484 18.8691 -8.94963
310 1 1.57242 4.71726 20.4415 -8.94963
311 1 3.14484 3.14484 18.8691 -8.94963
312 1 4.71726 4.71726 20.4415 -8.94963
313 1 6.28969 3.14484 18.8691 -8.94963
314 1 7.86211 4.71726 20.4415 -8.94963
315 1 9.43453 3.14484 18.8691 -8.94963
316 1 11.007 4.71726 20.4415 -8.94963
317 1 12.5794 3.14484 18.8691 -8.94963
318 1 14.1518 4.71726 20.4415 -8.94963
319 1 15.7242 3.14484 18.8691 -8.94963
320 1 17.2966 4.71726 20.4415 -8.94963
321 1 18.8691 3.14484 18.8691 -8.94963
322 1 20.4415 4.71726 20.4415 -8.94963
323 1 2.20771e-08 6.28969 18.8691 -8.94963
324 1 1.57242 7.86211 20.4415 -8.94963
325 1 3.14484 6.28969 18.8691 -8.94963
326 1 4.71726 7.86211 20.4415 -8.94963
327 1 6.28969 6.28969 18.8691 -8.94963
328 1 7.86211 7.86211 20.4415 -8.94963
329 1 9.43453 6.28969 18.8691 -8.94963
593 1 14.1518 11.0069 17.2967 -8.94964
592 1 11.0069 11.0069 17.297 -8.95073
515 1 11.0278 10.9637 11.0733 -9.39993
517 1 17.2968 11.0068 11.0072 -8.94826
518 1 20.4415 11.0069 11.007 -8.94961
540 1 1.57242 11.007 14.1518 -8.94964
541 1 4.71718 11.0069 14.1518 -8.94963
542 1 7.86153 11.0067 14.1528 -8.94976
544 1 14.1521 11.0067 14.1522 -8.94914
545 1 17.2967 11.0069 14.1518 -8.94968
546 1 20.4415 11.007 14.1518 -8.94965
591 1 7.86209 11.0069 17.2967 -8.94982
7 1 9.43453 1.51615e-08 22.0139 -8.94963
9 1 12.5794 1.36537e-08 22.0139 -8.94963
13 1 18.8691 -1.16847e-09 22.0139 -8.94963
19 1 6.28969 3.14484 22.0139 -8.94963
25 1 15.7242 3.14484 22.0139 -8.94963
31 1 3.14484 6.28969 22.0139 -8.94963
35 1 9.43453 6.28969 22.0139 -8.94964
37 1 12.5794 6.28969 22.0139 -8.94964
41 1 18.8691 6.28969 22.0139 -8.94963
43 1 22.0139 9.43453 22.0139 -8.94963
15 1 22.0139 3.14484 22.0139 -8.94963
176 1 1.57242 1.57242 11.007 -8.94963
687 2 11.0086 12.5776 10.2177 0.751239
511 1 18.8691 18.8691 9.43453 -8.94963
346 1 7.86212 11.007 1.57241 -8.94973
347 1 11.0069 11.007 1.57206 -8.95116
348 1 14.1518 11.007 1.57246 -8.94955
510 1 15.7242 18.8691 9.43454 -8.94962
539 1 20.4415 20.4415 11.007 -8.94963
154 1 18.8691 22.0139 9.43453 -8.94963
352 1 1.57242 14.1518 1.57242 -8.94963
353 1 3.14484 12.5794 1.03411e-07 -8.94963
354 1 4.71726 14.1518 1.57242 -8.94963
538 1 17.2966 20.4415 11.007 -8.94963
356 1 7.8621 14.1518 1.5724 -8.94961
357 1 9.43452 12.5794 -1.43593e-05 -8.94961
358 1 11.0069 14.1518 1.57241 -8.94977
359 1 12.5794 12.5794 -1.3848e-05 -8.94963
360 1 14.1518 14.1518 1.57241 -8.94959
393 1 1.57242 11.007 4.71726 -8.94962
362 1 17.2966 14.1518 1.57243 -8.94964
363 1 18.8691 12.5794 -2.67544e-07 -8.94963
364 1 20.4415 14.1518 1.57242 -8.94963
365 1 2.00739e-08 15.7242 -1.41019e-08 -8.94963
366 1 1.57242 17.2966 1.57242 -8.94963
149 1 3.14484 22.0139 9.43453 -8.94963
368 1 4.71727 17.2966 1.57242 -8.94964
369 1 6.28969 15.7242 5.5481e-07 -8.94963
370 1 7.8621 17.2966 1.57242 -8.94963
109 1 15.7242 22.0139 6.28968 -8.94963
372 1 11.007 17.2966 1.57242 -8.94961
103 1 6.28968 22.0139 6.28968 -8.94963
374 1 14.1518 17.2966 1.57242 -8.94964
375 1 15.7242 15.7242 3.49702e-07 -8.94963
376 1 17.2966 17.2966 1.57242 -8.94964
99 1 -2.22477e-08 22.0139 6.28969 -8.94963
378 1 20.4415 17.2966 1.57242 -8.94963
394 1 4.71727 11.007 4.71726 -8.94961
380 1 1.57242 20.4415 1.57242 -8.94963
381 1 3.14484 18.8691 1.66374e-07 -8.94963
382 1 4.71726 20.4415 1.57242 -8.94963
62 1 18.8691 22.0139 3.14484 -8.94963
384 1 7.86211 20.4415 1.57242 -8.94963
385 1 9.43453 18.8691 8.45582e-08 -8.94963
386 1 11.007 20.4415 1.57242 -8.94963
387 1 12.5794 18.8691 2.27994e-08 -8.94963
388 1 14.1518 20.4415 1.57242 -8.94964
58 1 12.5794 22.0139 3.14484 -8.94963
390 1 17.2966 20.4415 1.57242 -8.94963
391 1 18.8691 18.8691 1.39777e-07 -8.94963
392 1 20.4415 20.4415 1.57242 -8.94963
509 1 12.5795 18.8693 9.43435 -8.94882
508 1 9.43434 18.8696 9.43435 -8.95004
395 1 7.86218 11.0071 4.71693 -8.9516
396 1 11.0069 11.0069 4.712 -8.96239
397 1 14.1515 11.0071 4.71755 -8.95101
507 1 6.28968 18.869 9.43454 -8.94957
506 1 3.14484 18.8691 9.43453 -8.94963
400 1 1.37969e-07 12.5794 3.14484 -8.94963
401 1 1.57242 14.1518 4.71726 -8.94963
402 1 3.14484 12.5794 3.14484 -8.94965
403 1 4.71725 14.1518 4.71724 -8.94955
404 1 6.28965 12.5794 3.14479 -8.94968
405 1 7.86217 14.1517 4.71702 -8.95103
406 1 9.43433 12.5796 3.1447 -8.94826
407 1 11.0068 14.1517 4.71685 -8.95148
408 1 12.5796 12.5796 3.14466 -8.94872
409 1 14.1518 14.1519 4.71709 -8.94963
410 1 15.7242 12.5793 3.14489 -8.94967
411 1 17.2966 14.1518 4.71729 -8.94984
412 1 18.8691 12.5794 3.14484 -8.94963
413 1 20.4415 14.1518 4.71727 -8.94964
414 1 22.0139 15.7242 3.14484 -8.94963
415 1 1.57242 17.2966 4.71726 -8.94963
416 1 3.14484 15.7242 3.14484 -8.94963
417 1 4.71724 17.2967 4.71724 -8.94947
418 1 6.28969 15.7242 3.14484 -8.94973
419 1 7.86207 17.2967 4.71722 -8.94956
420 1 9.43452 15.7243 3.14478 -8.94972
421 1 11.0069 17.2966 4.71723 -8.94948
422 1 12.5794 15.7242 3.14479 -8.94985
423 1 14.1519 17.2967 4.71721 -8.94944
424 1 15.7242 15.7242 3.14484 -8.94965
425 1 17.2967 17.2966 4.71725 -8.94954
426 1 18.8691 15.7242 3.14485 -8.94966
427 1 20.4415 17.2966 4.71726 -8.94962
428 1 1.34752e-07 18.8691 3.14484 -8.94963
429 1 1.57242 20.4415 4.71726 -8.94963
430 1 3.14484 18.8691 3.14484 -8.94962
431 1 4.71726 20.4415 4.71726 -8.94963
432 1 6.28968 18.8691 3.14484 -8.94963
433 1 7.86211 20.4415 4.71726 -8.94964
434 1 9.43453 18.8691 3.14484 -8.94965
435 1 11.0069 20.4415 4.71726 -8.94962
436 1 12.5794 18.8691 3.14484 -8.94966
437 1 14.1518 20.4415 4.71726 -8.94963
438 1 15.7242 18.8691 3.14484 -8.94961
439 1 17.2966 20.4415 4.71726 -8.94963
440 1 18.8691 18.8691 3.14484 -8.94963
441 1 20.4415 20.4415 4.71726 -8.94963
505 1 -8.21481e-08 18.8691 9.43453 -8.94963
504 1 18.8691 15.7242 9.43453 -8.9496
444 1 7.85661 11.0048 7.85696 -9.01828
503 1 15.7242 15.7241 9.43462 -8.95019
446 1 14.1522 11.0044 7.86139 -9.03399
502 1 12.5799 15.7246 9.43331 -9.00394
501 1 9.43402 15.7288 9.43332 -9.01435
449 1 22.0139 12.5794 6.28969 -8.94963
450 1 1.57241 14.1518 7.8621 -8.94966
451 1 3.1448 12.5794 6.28967 -8.94964
452 1 4.71699 14.1519 7.862 -8.94999
453 1 6.28929 12.5797 6.28933 -8.94914
454 1 7.85862 14.1561 7.85716 -9.01092
455 1 9.43434 12.5799 6.29049 -9.05339
456 1 11.0078 14.1552 7.85723 -9.03749
457 1 12.5801 12.5819 6.28923 -9.03399
458 1 14.1536 14.1549 7.85996 -8.98128
459 1 15.7239 12.5793 6.29002 -8.95101
460 1 17.2969 14.152 7.86189 -8.9492
461 1 18.869 12.5794 6.2897 -8.94955
462 1 20.4415 14.1518 7.8621 -8.94966
463 1 1.69668e-06 15.7242 6.28968 -8.94964
464 1 1.57242 17.2966 7.86211 -8.94963
465 1 3.14482 15.7242 6.28968 -8.94968
466 1 4.71729 17.2966 7.86214 -8.94987
467 1 6.28929 15.7246 6.2893 -8.94774
468 1 7.86187 17.2971 7.86186 -8.94974
469 1 9.43434 15.7247 6.28914 -8.94912
470 1 11.0071 17.2972 7.86188 -8.9499
471 1 12.5797 15.7249 6.28903 -8.94903
472 1 14.1519 17.2969 7.86204 -8.95019
473 1 15.7244 15.7244 6.28947 -8.94862
474 1 17.2966 17.2966 7.86212 -8.94979
475 1 18.8691 15.7242 6.28966 -8.94958
476 1 20.4415 17.2966 7.86211 -8.94964
477 1 22.0139 18.8691 6.28969 -8.94963
478 1 1.57242 20.4415 7.86211 -8.94963
479 1 3.14485 18.8691 6.28969 -8.94966
480 1 4.71727 20.4415 7.86211 -8.94964
481 1 6.28966 18.8691 6.28966 -8.9496
482 1 7.86208 20.4415 7.86208 -8.94963
483 1 9.43452 18.8691 6.28966 -8.94975
484 1 11.007 20.4415 7.8621 -8.94973
485 1 12.5794 18.8691 6.28964 -8.94973
486 1 14.1518 20.4415 7.86209 -8.94962
487 1 15.7242 18.8691 6.28968 -8.94963
488 1 17.2966 20.4415 7.86211 -8.94964
489 1 18.8691 18.8691 6.28969 -8.94965
490 1 20.4415 20.4415 7.86211 -8.94963
491 1 3.08152e-06 12.5794 9.43453 -8.9498
492 1 3.14453 12.5794 9.43453 -8.95073
493 1 6.28518 12.5782 9.43453 -9.01066
494 1 9.36821 12.6227 9.4137 -9.39993
495 1 12.6271 12.5831 9.41485 -9.24845
496 1 15.7295 12.5794 9.43454 -8.96239
497 1 18.8694 12.5794 9.43453 -8.95116
498 1 22.0139 15.7242 9.43453 -8.94962
499 1 3.14486 15.7242 9.43453 -8.94955
500 1 6.28987 15.7239 9.43464 -8.95095
56 1 9.43453 22.0139 3.14484 -8.94963
52 1 3.14484 22.0139 3.14484 -8.94963
516 1 14.151 11.0064 11.0071 -9.05339
519 1 1.57241 14.1518 11.007 -8.94963
520 1 4.71704 14.1519 11.007 -8.94948
521 1 7.8601 14.1536 11.0109 -9.0336
529 1 11.0071 17.3015 11.0071 -8.96033
398 1 17.2966 11.007 4.71727 -8.94967
1 1 9.50359e-10 22.0139 2.66182e-10 -8.94963
5 1 6.28969 22.0139 1.6777e-08 -8.94963
399 1 20.4415 11.007 4.71727 -8.94963
530 1 14.1517 17.2966 11.0069 -8.95044
532 1 20.4415 17.2966 11.0069 -8.94964
534 1 4.71727 20.4415 11.0069 -8.94963
11 1 15.7242 22.0139 1.86172e-08 -8.94963
686 1 20.4415 20.4415 20.4415 -8.94963
685 1 18.8691 18.8691 18.8691 -8.94963
514 1 7.85771 11.0066 11.0118 -9.03658
684 1 17.2966 20.4415 20.4415 -8.94963
307 1 18.8691 22.0139 18.8691 -8.94963
683 1 15.7242 18.8691 18.8691 -8.94964
682 1 14.1518 20.4415 20.4415 -8.94963
303 1 12.5794 22.0139 18.8691 -8.94963
301 1 9.43453 22.0139 18.8691 -8.94963
297 1 3.14484 22.0139 18.8691 -8.94963
522 1 11.0078 14.1938 11.0278 -9.2722
523 1 14.1525 14.1529 11.0086 -9.00088
524 1 17.2969 14.152 11.0072 -8.94879
525 1 20.4415 14.1518 11.007 -8.94964
526 1 1.57242 17.2966 11.0069 -8.94963
527 1 4.71728 17.2966 11.0069 -8.94972
528 1 7.86205 17.2968 11.0071 -8.94986
295 1 1.36221e-09 22.0139 18.8691 -8.94963
639 1 4.71726 11.007 20.4415 -8.94963
531 1 17.2966 17.2966 11.0069 -8.94965
643 1 17.2966 11.007 20.4415 -8.94963
256 1 15.7242 22.0139 15.7242 -8.94962
383 1 6.28969 18.8691 22.0139 -8.94963
535 1 7.8621 20.4415 11.007 -8.94963
536 1 11.007 20.4418 11.007 -8.95096
537 1 14.1518 20.4415 11.0069 -8.94963
377 1 18.8691 15.7242 22.0139 -8.94963
389 1 15.7242 18.8691 22.0139 -8.94963
681 1 12.5794 18.8691 18.8691 -8.94963
680 1 11.007 20.4415 20.4415 -8.94963
679 1 9.43453 18.8691 18.8691 -8.94963
543 1 11.0069 11.0081 14.1563 -9.01066
678 1 7.86211 20.4415 20.4415 -8.94963
677 1 6.28969 18.8691 18.8691 -8.94964
676 1 4.71726 20.4415 20.4415 -8.94963
547 1 22.0139 12.5794 12.5794 -8.94965
548 1 1.57241 14.1518 14.1518 -8.94965
549 1 3.14475 12.5794 12.5794 -8.94982
550 1 4.71716 14.1519 14.1519 -8.94956
551 1 6.28869 12.5797 12.58 -8.94976
552 1 7.86154 14.1521 14.1526 -8.94905
553 1 9.42963 12.5797 12.5838 -9.03658
554 1 11.0069 14.1505 14.1509 -9.00101
555 1 12.5845 12.5815 12.5849 -9.01828
556 1 14.1525 14.1522 14.1526 -8.94785
557 1 15.7245 12.5793 12.5793 -8.9516
558 1 17.2967 14.1518 14.1518 -8.94984
559 1 18.8691 12.5794 12.5794 -8.94973
560 1 20.4415 14.1518 14.1518 -8.94965
561 1 1.87569e-06 15.7242 12.5794 -8.94963
562 1 1.57242 17.2966 14.1518 -8.94963
563 1 3.14482 15.7242 12.5794 -8.94969
564 1 4.71724 17.2967 14.1518 -8.94955
565 1 6.28929 15.7245 12.5796 -8.94915
566 1 7.86197 17.2968 14.1519 -8.94903
567 1 9.43218 15.7252 12.5809 -8.98321
568 1 11.0069 17.2963 14.1516 -8.95023
569 1 12.5819 15.7255 12.5811 -8.98316
570 1 14.152 17.2968 14.1519 -8.94888
571 1 15.7245 15.7243 12.5795 -8.9498
572 1 17.2967 17.2966 14.1518 -8.94961
573 1 18.8691 15.7242 12.5794 -8.9496
574 1 20.4415 17.2966 14.1518 -8.94962
575 1 22.0139 18.8691 12.5794 -8.94963
576 1 1.57242 20.4415 14.1518 -8.94963
577 1 3.14485 18.8691 12.5794 -8.94965
578 1 4.71726 20.4415 14.1518 -8.94964
579 1 6.28967 18.8691 12.5794 -8.94973
580 1 7.86209 20.4415 14.1518 -8.94959
581 1 9.43434 18.8693 12.5796 -8.94908
582 1 11.0069 20.4414 14.1518 -8.94954
583 1 12.5796 18.8693 12.5796 -8.94908
584 1 14.1518 20.4415 14.1518 -8.94958
585 1 15.7242 18.869 12.5794 -8.94977
586 1 17.2966 20.4415 14.1518 -8.94965
587 1 18.8691 18.8691 12.5794 -8.94964
588 1 20.4415 20.4415 14.1518 -8.94963
589 1 1.57242 11.007 17.2966 -8.94963
590 1 4.71726 11.007 17.2966 -8.94964
675 1 3.14484 18.8691 18.8691 -8.94963
674 1 1.57242 20.4415 20.4415 -8.94963
673 1 22.0139 18.8691 18.8691 -8.94963
594 1 17.2966 11.007 17.2966 -8.94965
595 1 20.4415 11.007 17.2966 -8.94963
596 1 1.44933e-07 12.5794 15.7242 -8.94963
597 1 1.57242 14.1518 17.2966 -8.94963
598 1 3.14484 12.5794 15.7242 -8.94964
599 1 4.71726 14.1518 17.2966 -8.94966
600 1 6.28963 12.5794 15.7243 -8.94963
601 1 7.86206 14.1518 17.2967 -8.94967
602 1 9.43428 12.5796 15.7249 -8.94977
603 1 11.0069 14.1518 17.2966 -8.94919
604 1 12.5796 12.5796 15.725 -8.95017
605 1 14.1518 14.1518 17.2967 -8.94965
606 1 15.7242 12.5794 15.7242 -8.94961
607 1 17.2966 14.1518 17.2966 -8.94967
608 1 18.8691 12.5794 15.7242 -8.94961
609 1 20.4415 14.1518 17.2966 -8.94963
610 1 22.0139 15.7242 15.7242 -8.94963
611 1 1.57242 17.2966 17.2966 -8.94963
612 1 3.14483 15.7242 15.7242 -8.94961
613 1 4.71726 17.2966 17.2966 -8.94961
614 1 6.28964 15.7243 15.7243 -8.94944
615 1 7.86212 17.2966 17.2966 -8.94972
616 1 9.43465 15.7241 15.7242 -8.95042
617 1 11.007 17.2966 17.2966 -8.94954
618 1 12.5793 15.7241 15.7242 -8.95056
619 1 14.1518 17.2966 17.2966 -8.94973
620 1 15.7243 15.7243 15.7243 -8.94937
621 1 17.2966 17.2966 17.2966 -8.94961
622 1 18.8691 15.7242 15.7242 -8.94964
623 1 20.4415 17.2966 17.2966 -8.94963
624 1 1.56212e-07 18.8691 15.7242 -8.94963
625 1 1.57242 20.4415 17.2966 -8.94963
626 1 3.14484 18.8691 15.7242 -8.94963
627 1 4.71726 20.4415 17.2966 -8.94963
628 1 6.28968 18.8691 15.7242 -8.94958
629 1 7.86211 20.4415 17.2966 -8.94965
630 1 9.43455 18.869 15.7242 -8.94975
631 1 11.007 20.4415 17.2966 -8.94963
632 1 12.5793 18.869 15.7242 -8.94976
633 1 14.1518 20.4415 17.2966 -8.94965
634 1 15.7242 18.8691 15.7242 -8.94957
635 1 17.2966 20.4415 17.2966 -8.94963
636 1 18.8691 18.8691 15.7242 -8.94963
637 1 20.4415 20.4415 17.2966 -8.94963
672 1 20.4415 17.2966 20.4415 -8.94963
671 1 18.8691 15.7242 18.8691 -8.94964
670 1 17.2966 17.2966 20.4415 -8.94963
669 1 15.7242 15.7242 18.8691 -8.94962
668 1 14.1518 17.2966 20.4415 -8.94964
667 1 12.5794 15.7242 18.869 -8.94964
666 1 11.007 17.2966 20.4415 -8.94963
645 1 22.0139 12.5794 18.8691 -8.94963
646 1 1.57242 14.1518 20.4415 -8.94963
647 1 3.14484 12.5794 18.8691 -8.94963
648 1 4.71726 14.1518 20.4415 -8.94963
649 1 6.28968 12.5794 18.8691 -8.94964
650 1 7.86211 14.1518 20.4415 -8.94965
651 1 9.43453 12.5794 18.8691 -8.94978
652 1 11.007 14.1518 20.4415 -8.9496
653 1 12.5794 12.5794 18.8691 -8.94981
654 1 14.1518 14.1518 20.4415 -8.94965
655 1 15.7242 12.5794 18.8691 -8.94962
656 1 17.2966 14.1518 20.4415 -8.94963
657 1 18.8691 12.5794 18.8691 -8.94963
658 1 20.4415 14.1518 20.4415 -8.94963
659 1 2.30316e-08 15.7242 18.8691 -8.94963
660 1 1.57242 17.2966 20.4415 -8.94963
661 1 3.14484 15.7242 18.8691 -8.94964
662 1 4.71726 17.2966 20.4415 -8.94963
663 1 6.28968 15.7242 18.8691 -8.94962
664 1 7.86211 17.2966 20.4415 -8.94964
665 1 9.43454 15.7242 18.869 -8.94964
197 1 -2.08213e-08 22.0139 12.5794 -8.94963
199 1 3.14484 22.0139 12.5794 -8.94963
203 1 9.43452 22.0139 12.5794 -8.94964
205 1 12.5794 22.0139 12.5794 -8.94965
209 1 18.8691 22.0139 12.5794 -8.94963
250 1 6.28969 22.0139 15.7242 -8.94963
351 1 22.0139 12.5794 22.0139 -8.94963
355 1 6.28969 12.5794 22.0139 -8.94965
367 1 3.14484 15.7242 22.0139 -8.94963
371 1 9.43453 15.7242 22.0139 -8.94965
373 1 12.5794 15.7242 22.0139 -8.94965
361 1 15.7242 12.5794 22.0139 -8.94963
379 1 22.0139 18.8691 22.0139 -8.94963
533 1 1.57242 20.4415 11.007 -8.94963
