ITEM: TIMESTEP
106
ITEM: NUMBER OF ATOMS
688
ITEM: BOX BOUNDS pp pp pp
0.0000000000000000e+00 2.2013900999999997e+01
0.0000000000000000e+00 2.2013900999999997e+01
0.0000000000000000e+00 2.2013900999999997e+01
ITEM: ATOMS id type x y z c_pot
513 1 4.71529 11.0067 11.0076 -8.94857
2 1 1.57219 1.5726 1.5722 -8.94955
175 1 18.8706 9.43376 9.43466 -8.94941
4 1 4.717 1.57263 1.5721 -8.94964
512 1 1.57212 11.0068 11.007 -8.9498
6 1 7.862 1.57255 1.57212 -8.94962
448 1 20.4423 11.0065 7.86173 -8.9499
8 1 11.007 1.5724 1.57221 -8.94961
447 1 17.2995 11.0054 7.86108 -8.94834
10 1 14.152 1.57228 1.57229 -8.94963
174 1 15.727 9.43329 9.43536 -8.95047
12 1 17.2968 1.57228 1.57235 -8.94959
445 1 11.0226 11.0069 7.80904 -9.22422
14 1 20.4415 1.57243 1.57235 -8.94958
151 1 9.43423 0.000840893 9.43418 -8.95042
16 1 1.57224 4.71708 1.57222 -8.94947
17 1 3.14463 3.14473 -6.61649e-05 -8.94956
18 1 4.71694 4.71704 1.57213 -8.94954
443 1 4.71314 11.0066 7.86001 -8.95189
20 1 7.86198 4.71699 1.5722 -8.94968
21 1 9.43452 3.14455 3.54346e-05 -8.94961
22 1 11.0071 4.71692 1.57231 -8.94961
23 1 12.5795 3.14445 0.000133961 -8.94961
24 1 14.1521 4.71681 1.57241 -8.94971
442 1 1.57144 11.0068 7.86156 -8.95033
26 1 17.297 4.71684 1.57242 -8.94952
27 1 18.8693 3.14453 0.000144365 -8.94953
28 1 20.4416 4.71701 1.57237 -8.94954
29 1 7.75481e-06 6.28945 1.73251e-06 -8.9496
30 1 1.57211 7.86188 1.57207 -8.94961
193 1 11.0104 7.85061 11.0114 -9.01965
32 1 4.71661 7.86174 1.57165 -8.94966
33 1 6.28928 6.28921 -0.000195168 -8.94953
34 1 7.86149 7.8615 1.57134 -8.94941
192 1 7.86173 7.86027 11.0102 -8.98119
36 1 11.007 7.86164 1.57172 -8.94937
191 1 4.71793 7.86255 11.0066 -8.95088
38 1 14.1525 7.86139 1.5719 -8.94942
39 1 15.7248 6.28906 0.00024173 -8.94957
40 1 17.2971 7.86177 1.57239 -8.94976
190 1 1.57297 7.86194 11.0069 -8.9495
42 1 20.4416 7.86188 1.57232 -8.94964
349 1 17.2969 11.0069 1.57233 -8.94962
44 1 3.1444 9.43439 -0.000394388 -8.94958
345 1 4.71635 11.007 1.57122 -8.94951
688 2 10.2516 11.0637 9.46404 0.634823
47 1 12.5798 9.4341 -0.000353657 -8.94994
48 1 15.7247 9.43427 0.000231 -8.94967
49 1 18.8694 9.43435 0.000164563 -8.94961
50 1 22.0137 0.000366171 3.14458 -8.9496
51 1 1.5722 1.57282 4.71704 -8.94964
173 1 12.5848 9.43081 9.43568 -9.04326
53 1 4.71679 1.57295 4.71674 -8.9496
54 1 6.28932 0.000678025 3.1442 -8.94964
55 1 7.86193 1.57288 4.71677 -8.94967
172 1 9.41939 9.39898 9.43532 -9.25465
57 1 11.0071 1.5726 4.71684 -8.94961
171 1 6.29334 9.43813 9.43494 -8.99607
59 1 14.1521 1.5723 4.71689 -8.9496
60 1 15.7244 8.59452e-05 3.14453 -8.9496
61 1 17.297 1.57234 4.71704 -8.9496
170 1 3.14512 9.43458 9.43443 -8.94779
63 1 20.4415 1.57253 4.71712 -8.94962
64 1 -6.66865e-06 3.14487 3.14473 -8.94965
65 1 1.57241 4.7173 4.71714 -8.94977
66 1 3.14457 3.14495 3.14455 -8.94961
67 1 4.71693 4.71715 4.71684 -8.94964
68 1 6.28948 3.14492 3.14447 -8.94974
69 1 7.86205 4.71713 4.71678 -8.9501
70 1 9.43453 3.1448 3.14454 -8.9496
71 1 11.0071 4.71696 4.71684 -8.94958
72 1 12.5796 3.14464 3.1446 -8.94966
73 1 14.1524 4.71658 4.71687 -8.94966
74 1 15.7246 3.14452 3.14466 -8.9496
75 1 17.2972 4.71678 4.71703 -8.94958
76 1 18.8693 3.14466 3.14474 -8.94959
77 1 20.4418 4.71707 4.71715 -8.94965
78 1 22.0139 6.2894 3.14456 -8.94954
79 1 1.57196 7.86171 4.71666 -8.9496
80 1 3.14432 6.2893 3.14427 -8.94922
81 1 4.71587 7.86117 4.71576 -8.94824
82 1 6.28915 6.28924 3.14404 -8.94935
83 1 7.86108 7.86123 4.71512 -8.94894
84 1 9.43449 6.28928 3.14429 -8.94957
85 1 11.007 7.86187 4.71591 -8.94945
86 1 12.5797 6.28917 3.14443 -8.94991
87 1 14.1532 7.86067 4.71592 -8.94802
88 1 15.7249 6.28902 3.14444 -8.94924
89 1 17.2976 7.86135 4.71671 -8.94933
90 1 18.8695 6.28927 3.14463 -8.94951
91 1 20.4418 7.86167 4.71688 -8.9496
92 1 -0.00025241 9.43435 3.14442 -8.94959
93 1 3.14401 9.43432 3.14389 -8.94958
94 1 6.28847 9.4342 3.1428 -8.95027
95 1 9.43343 9.43365 3.14173 -8.94839
96 1 12.5805 9.43347 3.14238 -8.94861
97 1 15.7247 9.43428 3.14439 -8.95017
98 1 18.8693 9.43433 3.14459 -8.94971
169 1 0.0005626 9.43417 9.43448 -8.94934
100 1 1.57227 1.57285 7.86197 -8.94961
101 1 3.14426 0.000859203 6.28929 -8.94958
102 1 4.71688 1.57313 7.86187 -8.94956
168 1 18.8701 6.28893 9.43457 -8.94954
104 1 7.86167 1.57276 7.8616 -8.94981
105 1 9.43437 0.000825691 6.28902 -8.94963
106 1 11.0072 1.57222 7.86169 -8.94962
107 1 12.5797 0.000311476 6.28913 -8.94965
108 1 14.1523 1.57211 7.86183 -8.94965
167 1 15.7259 6.28808 9.43466 -8.94887
110 1 17.2971 1.57218 7.86197 -8.9496
111 1 18.8692 0.000140533 6.28949 -8.94963
112 1 20.4416 1.57248 7.86201 -8.94961
113 1 22.014 3.14494 6.28958 -8.94962
114 1 1.57266 4.71739 7.86205 -8.94962
115 1 3.14472 3.14525 6.28955 -8.94972
116 1 4.71739 4.71775 7.86212 -8.94985
117 1 6.28924 3.14493 6.28912 -8.9495
118 1 7.86147 4.71617 7.86118 -8.94819
119 1 9.43461 3.14477 6.28933 -8.94953
120 1 11.008 4.71564 7.86151 -8.94812
121 1 12.5799 3.14426 6.28921 -8.94956
122 1 14.1528 4.71602 7.8619 -8.94984
123 1 15.7248 3.14436 6.28942 -8.94964
124 1 17.2975 4.71656 7.862 -8.94954
125 1 18.8694 3.14463 6.28956 -8.94961
126 1 20.442 4.71701 7.86204 -8.94959
127 1 0.000291451 6.28952 6.28957 -8.94961
128 1 1.57274 7.86203 7.86202 -8.94941
129 1 3.14493 6.28984 6.28963 -8.95011
130 1 4.71789 7.8629 7.8624 -8.95108
131 1 6.28925 6.28917 6.28884 -8.94984
132 1 7.86182 7.86175 7.85935 -8.98205
133 1 9.43494 6.2892 6.28944 -8.9509
134 1 11.0093 7.861 7.86153 -9.00171
135 1 12.5802 6.28826 6.28899 -8.95055
136 1 14.154 7.85966 7.86181 -8.95043
137 1 15.7253 6.28861 6.28924 -8.94956
138 1 17.2979 7.86114 7.86207 -8.95002
139 1 18.8697 6.28917 6.28952 -8.94969
140 1 20.4422 7.86164 7.862 -8.94952
141 1 22.0138 9.43416 6.28919 -8.94984
142 1 3.14336 9.43403 6.28848 -8.94996
143 1 6.28559 9.43233 6.28518 -8.94514
144 1 9.43169 9.43263 6.28491 -8.99613
145 1 12.5825 9.43018 6.28578 -8.97918
146 1 15.7263 9.43289 6.28837 -8.94877
147 1 18.8701 9.43376 6.28908 -8.94951
148 1 -0.000143777 0.000367371 9.43445 -8.9496
166 1 12.5809 6.28686 9.43462 -8.9487
150 1 6.28899 0.00104323 9.43431 -8.94955
165 1 9.43454 6.28044 9.4346 -8.95932
152 1 12.5798 0.000197322 9.43423 -8.94962
153 1 15.7246 -0.000176124 9.43443 -8.94961
164 1 6.29079 6.29053 9.43449 -8.94986
155 1 0.000255069 3.14487 9.43449 -8.94961
156 1 3.14484 3.1452 9.43447 -8.94963
157 1 6.28951 3.14509 9.43445 -8.94915
158 1 9.43454 3.14294 9.43447 -8.95204
159 1 12.5801 3.14358 9.4345 -8.94953
160 1 15.7251 3.14396 9.43453 -8.94954
161 1 18.8696 3.14445 9.43452 -8.94961
162 1 22.0145 6.28946 9.43451 -8.94958
163 1 3.14533 6.28987 9.43447 -8.94942
344 1 1.57191 11.0069 1.57187 -8.94959
350 1 20.4414 11.0069 1.57222 -8.94961
181 1 17.2972 1.57194 11.007 -8.94961
188 1 17.2978 4.71619 11.0072 -8.94957
177 1 4.71693 1.5729 11.007 -8.94955
184 1 4.71743 4.71751 11.0069 -8.9499
189 1 20.4422 4.71684 11.007 -8.9496
644 1 20.4417 11.0069 20.4417 -8.9496
3 1 3.14457 0.000261115 22.0136 -8.9496
178 1 7.8617 1.57227 11.0072 -8.94978
179 1 11.0073 1.57158 11.0072 -8.95042
180 1 14.1525 1.5716 11.0071 -8.94963
46 1 9.43423 9.43414 22.0131 -8.9499
182 1 20.4417 1.57235 11.007 -8.94961
183 1 1.57277 4.71727 11.0069 -8.94962
252 1 9.43451 -0.000477088 15.7246 -8.94955
185 1 7.86148 4.71541 11.008 -8.94826
186 1 11.0082 4.71317 11.0083 -8.95084
187 1 14.1532 4.71513 11.0074 -8.94981
642 1 14.1524 11.0068 20.442 -8.94974
254 1 12.5796 -0.000710924 15.7246 -8.94956
641 1 11.0071 11.0068 20.4416 -8.95047
640 1 7.86177 11.0069 20.4412 -8.9498
45 1 6.28915 9.43434 22.0132 -8.94978
638 1 1.57222 11.0069 20.4414 -8.94959
194 1 14.1554 7.85808 11.0082 -8.94896
195 1 17.2988 7.86057 11.0075 -8.94974
196 1 20.4426 7.86148 11.0072 -8.9496
343 1 18.8698 9.4342 18.8697 -8.94959
198 1 1.57236 1.57252 14.1519 -8.94964
342 1 15.7253 9.43394 18.8704 -8.94957
200 1 4.71686 1.57241 14.1522 -8.94958
201 1 6.28908 0.000506987 12.5797 -8.94974
202 1 7.86179 1.57191 14.1524 -8.94974
341 1 12.5801 9.43376 18.8708 -8.9503
204 1 11.0072 1.57138 14.1525 -8.94955
340 1 9.4344 9.43385 18.8703 -8.95007
206 1 14.1526 1.57123 14.1525 -8.94977
207 1 15.7247 -0.00045596 12.5796 -8.94967
208 1 17.2973 1.57174 14.1522 -8.94964
339 1 6.28926 9.4342 18.8695 -8.94968
210 1 20.4418 1.57221 14.152 -8.94962
211 1 22.0142 3.14472 12.5795 -8.94962
212 1 1.57263 4.71704 14.152 -8.94975
213 1 3.14481 3.14497 12.5794 -8.94973
214 1 4.7169 4.71671 14.1523 -8.94957
215 1 6.2892 3.14431 12.5799 -8.94939
216 1 7.86152 4.7154 14.1532 -8.95004
217 1 9.4345 3.14323 12.5802 -8.94998
218 1 11.0074 4.71481 14.1536 -8.94934
219 1 12.5804 3.14257 12.5804 -8.95016
220 1 14.1537 4.71425 14.1538 -8.94985
221 1 15.7253 3.14354 12.5799 -8.94962
222 1 17.298 4.71591 14.1526 -8.94967
223 1 18.8698 3.14425 12.5796 -8.94961
224 1 20.4422 4.71669 14.1521 -8.94964
225 1 0.000677419 6.28931 12.5795 -8.94966
226 1 1.57255 7.86166 14.1522 -8.94977
227 1 3.14505 6.2896 12.5794 -8.95001
228 1 4.71628 7.86121 14.1528 -8.94967
229 1 6.28911 6.28856 12.5804 -8.94923
230 1 7.85917 7.85802 14.1565 -8.94588
231 1 9.43417 6.28529 12.5818 -8.95116
232 1 11.0078 7.85826 14.1562 -8.94891
233 1 12.5824 6.28367 12.5828 -8.95181
234 1 14.1581 7.85556 14.1584 -8.94254
235 1 15.7265 6.28738 12.5806 -8.94961
236 1 17.2995 7.86024 14.1536 -8.95003
237 1 18.8705 6.28867 12.5799 -8.94961
238 1 20.4427 7.86136 14.1525 -8.94978
239 1 22.0146 9.43408 12.5798 -8.94985
240 1 3.1443 9.43416 12.5799 -8.95001
241 1 6.28725 9.43339 12.5817 -8.95108
242 1 9.42566 9.42327 12.5911 -9.02497
243 1 12.5966 9.41743 12.5963 -8.99662
244 1 15.7297 9.43168 12.5824 -8.95287
245 1 18.8714 9.43345 12.5804 -8.95
246 1 22.0139 9.6697e-05 15.7244 -8.94962
247 1 1.57232 1.57236 17.2969 -8.94958
248 1 3.14448 0.000237486 15.7245 -8.94956
249 1 4.71696 1.57218 17.297 -8.94956
338 1 3.1446 9.43433 18.8693 -8.9496
251 1 7.86199 1.57189 17.2971 -8.94957
337 1 22.0141 9.43433 18.8694 -8.9496
253 1 11.0071 1.57165 17.2971 -8.94958
336 1 20.4418 7.86183 20.4418 -8.9496
255 1 14.1522 1.57156 17.2972 -8.94958
335 1 18.8698 6.28907 18.8698 -8.94957
257 1 17.2972 1.57176 17.2972 -8.94952
258 1 18.8694 -0.000208197 15.7245 -8.94964
259 1 20.4417 1.57216 17.2969 -8.9496
260 1 0.000258201 3.14457 15.7245 -8.94965
261 1 1.57242 4.71688 17.297 -8.94958
262 1 3.14464 3.1446 15.7245 -8.94961
263 1 4.71677 4.71654 17.2973 -8.94922
264 1 6.28924 3.14407 15.725 -8.94964
265 1 7.86186 4.71624 17.2976 -8.94958
266 1 9.43451 3.14365 15.7252 -8.94948
267 1 11.0072 4.71596 17.2978 -8.94954
268 1 12.5799 3.14336 15.7253 -8.94952
269 1 14.1526 4.71582 17.298 -8.94963
270 1 15.7253 3.14335 15.7253 -8.94954
271 1 17.2979 4.71599 17.2978 -8.94901
272 1 18.8698 3.14414 15.7247 -8.94963
273 1 20.4421 4.71667 17.2972 -8.94956
274 1 22.0144 6.28917 15.7247 -8.94967
275 1 1.57247 7.86177 17.297 -8.94962
276 1 3.14452 6.28912 15.7248 -8.9496
277 1 4.71679 7.86157 17.2973 -8.94959
278 1 6.28852 6.28804 15.726 -8.94839
279 1 7.86148 7.86085 17.2985 -8.94998
280 1 9.43443 6.28771 15.7262 -8.94926
281 1 11.0073 7.86055 17.2989 -8.94939
282 1 12.5805 6.28732 15.7267 -8.94953
283 1 14.1535 7.86031 17.2994 -8.95014
284 1 15.7269 6.28692 15.7269 -8.94761
285 1 17.2981 7.86111 17.298 -8.94948
286 1 18.8705 6.2886 15.7252 -8.94961
287 1 20.4422 7.86162 17.2973 -8.94959
288 1 0.000480331 9.4342 15.7248 -8.94965
289 1 3.14453 9.43421 15.7248 -8.94959
290 1 6.28883 9.43381 15.7258 -8.94952
291 1 9.43399 9.43246 15.7284 -8.95094
292 1 12.5818 9.43194 15.7297 -8.95241
293 1 15.7268 9.43297 15.7269 -8.94896
294 1 18.8705 9.43386 15.7253 -8.9496
334 1 17.2973 7.86163 20.4421 -8.9496
296 1 1.57229 1.57238 20.4415 -8.94952
333 1 15.7253 6.28856 18.8704 -8.94962
298 1 4.71708 1.57232 20.4415 -8.94962
299 1 6.28955 -0.000100049 18.8691 -8.94964
300 1 7.86203 1.57219 20.4415 -8.9496
332 1 14.1525 7.86137 20.4423 -8.94985
302 1 11.007 1.57205 20.4416 -8.9496
331 1 12.5799 6.28858 18.8703 -8.94952
304 1 14.152 1.57199 20.4417 -8.94961
305 1 15.7244 -0.000394926 18.8693 -8.94964
306 1 17.2969 1.57206 20.4417 -8.9496
330 1 11.0071 7.86141 20.442 -8.94966
308 1 20.4416 1.57225 20.4416 -8.94948
309 1 22.014 3.14456 18.8693 -8.94953
310 1 1.57233 4.717 20.4416 -8.94957
311 1 3.14463 3.14454 18.8693 -8.94946
312 1 4.71696 4.71685 20.4417 -8.94953
313 1 6.28947 3.14436 18.8694 -8.94961
314 1 7.86196 4.71672 20.4418 -8.94958
315 1 9.43453 3.14416 18.8696 -8.94958
316 1 11.0071 4.71659 20.442 -8.94958
317 1 12.5797 3.14402 18.8697 -8.94958
318 1 14.1522 4.71653 20.4421 -8.94959
319 1 15.7247 3.14403 18.8697 -8.94961
320 1 17.2972 4.71661 20.442 -8.94952
321 1 18.8696 3.14427 18.8696 -8.94939
322 1 20.4418 4.71691 20.4418 -8.94957
323 1 0.000221713 6.28933 18.8694 -8.94959
324 1 1.57231 7.86188 20.4415 -8.94959
325 1 3.14462 6.2893 18.8694 -8.9496
326 1 4.71688 7.86178 20.4415 -8.94964
327 1 6.28922 6.28893 18.8698 -8.94961
328 1 7.86176 7.86151 20.4417 -8.94977
329 1 9.43448 6.28872 18.87 -8.94952
593 1 14.1533 11.0064 17.299 -8.94977
592 1 11.0074 11.0064 17.2996 -8.95172
515 1 11.0387 10.9479 11.1052 -9.37193
517 1 17.3005 11.0053 11.0084 -8.94813
518 1 20.4428 11.0065 11.0073 -8.9498
540 1 1.57235 11.0068 14.1523 -8.94966
541 1 4.71618 11.0068 14.1529 -8.94924
542 1 7.86071 11.0063 14.1554 -8.94951
544 1 14.1566 11.005 14.1573 -8.94732
545 1 17.2993 11.0062 14.1536 -8.94975
546 1 20.4426 11.0066 14.1525 -8.94974
591 1 7.86172 11.0067 17.2979 -8.94992
7 1 9.43451 7.00002e-05 22.0136 -8.94961
9 1 12.5795 -6.1958e-05 22.0137 -8.94961
13 1 18.8691 -8.4996e-06 22.0139 -8.94958
19 1 6.28952 3.14466 22.0138 -8.94962
25 1 15.7245 3.14442 22.0141 -8.94962
31 1 3.14453 6.28939 22.0137 -8.94958
35 1 9.43447 6.28916 22.0139 -8.94956
37 1 12.5797 6.28909 22.0141 -8.94959
41 1 18.8694 6.28932 22.0141 -8.94963
43 1 22.0138 9.4344 22.0138 -8.9496
15 1 22.0139 3.14471 22.0139 -8.94952
176 1 1.57235 1.57272 11.0069 -8.94961
687 2 10.9774 12.5226 10.1898 0.634823
511 1 18.8692 18.8694 9.43443 -8.94961
346 1 7.8614 11.0071 1.57052 -8.94996
347 1 11.0069 11.0071 1.56949 -8.95283
348 1 14.1522 11.007 1.57182 -8.94941
510 1 15.7246 18.8694 9.43436 -8.94958
539 1 20.4414 20.4418 11.007 -8.94961
154 1 18.8693 22.0139 9.43446 -8.94961
352 1 1.57173 14.1521 1.57171 -8.94959
353 1 3.14425 12.5795 -0.000611681 -8.94958
354 1 4.71613 14.1525 1.57095 -8.9496
538 1 17.2969 20.4415 11.0069 -8.9496
356 1 7.86109 14.1529 1.57011 -8.95
357 1 9.43418 12.5799 -0.00135891 -8.9498
358 1 11.0068 14.1526 1.57085 -8.94941
359 1 12.5798 12.5798 -0.000780344 -8.9499
360 1 14.1524 14.1526 1.57138 -8.94951
393 1 1.57151 11.0069 4.71639 -8.94951
362 1 17.2969 14.152 1.57219 -8.94971
363 1 18.8693 12.5794 3.9747e-05 -8.94961
364 1 20.4413 14.152 1.57212 -8.94961
365 1 -0.000297104 15.7245 -0.000304137 -8.9496
366 1 1.57172 17.2973 1.57169 -8.94957
149 1 3.14433 22.0147 9.4344 -8.94958
368 1 4.71624 17.2977 1.57099 -8.94961
369 1 6.28899 15.725 -0.0012241 -8.94978
370 1 7.8616 17.2976 1.57102 -8.94961
109 1 15.7246 22.014 6.28933 -8.9496
372 1 11.0069 17.2974 1.57133 -8.94954
103 1 6.28894 22.0151 6.28891 -8.94977
374 1 14.152 17.2971 1.57177 -8.94969
375 1 15.7246 15.7247 -0.000309998 -8.9496
376 1 17.2968 17.2971 1.57201 -8.94951
99 1 -0.000224276 22.0143 6.28947 -8.94961
378 1 20.4413 17.297 1.57206 -8.94963
394 1 4.71534 11.007 4.71515 -8.94894
380 1 1.57192 20.4421 1.5719 -8.94939
381 1 3.1443 18.8696 -0.000604023 -8.94956
382 1 4.71677 20.4422 1.57169 -8.94963
62 1 18.8691 22.014 3.14463 -8.94959
384 1 7.86188 20.4421 1.5717 -8.94961
385 1 9.43444 18.8695 -0.000704409 -8.9496
386 1 11.007 20.4419 1.57185 -8.94961
387 1 12.5794 18.8693 -0.000508024 -8.94959
388 1 14.1519 20.4417 1.57203 -8.94961
58 1 12.5795 22.0141 3.14441 -8.9496
390 1 17.2967 20.4417 1.57216 -8.94959
391 1 18.8691 18.8693 -0.000145717 -8.94954
392 1 20.4413 20.4418 1.57216 -8.94953
509 1 12.58 18.8707 9.43349 -8.94812
508 1 9.43322 18.8732 9.43329 -8.95084
395 1 7.86035 11.0074 4.7126 -8.95271
396 1 11.0069 11.0077 4.70468 -8.96462
397 1 14.1519 11.007 4.71615 -8.9513
507 1 6.28792 18.8715 9.43405 -8.94934
506 1 3.14363 18.8704 9.43427 -8.94954
400 1 -0.000496029 12.5795 3.14427 -8.94959
401 1 1.57112 14.1524 4.71621 -8.94957
402 1 3.14362 12.5797 3.14359 -8.94956
403 1 4.71461 14.1533 4.71471 -8.94896
404 1 6.28789 12.5801 3.14221 -8.94975
405 1 7.85911 14.1546 4.71179 -8.95287
406 1 9.43304 12.581 3.14102 -8.94813
407 1 11.0061 14.153 4.7145 -8.95047
408 1 12.5804 12.5809 3.14201 -8.94834
409 1 14.1531 14.1534 4.71517 -8.94877
410 1 15.7246 12.5795 3.14443 -8.94964
411 1 17.2971 14.152 4.71673 -8.95017
412 1 18.8692 12.5794 3.14453 -8.94962
413 1 20.4412 14.1521 4.71673 -8.94967
414 1 22.0133 15.7247 3.14418 -8.9496
415 1 1.57112 17.2978 4.71622 -8.94962
416 1 3.14344 15.7252 3.14342 -8.94948
417 1 4.71458 17.2994 4.71459 -8.94761
418 1 6.28785 15.7261 3.14198 -8.95003
419 1 7.86085 17.2989 4.71497 -8.94961
420 1 9.43397 15.7258 3.14265 -8.94974
421 1 11.0068 17.2982 4.71558 -8.94887
422 1 12.5794 15.7252 3.14356 -8.95002
423 1 14.1522 17.2977 4.71622 -8.94956
424 1 15.7248 15.725 3.14391 -8.94933
425 1 17.297 17.2973 4.71658 -8.94924
426 1 18.8691 15.7245 3.1444 -8.94976
427 1 20.4412 17.2973 4.71668 -8.94957
428 1 -0.000533908 18.8697 3.14426 -8.94952
429 1 1.57176 20.4423 4.71674 -8.94961
430 1 3.14368 18.8703 3.14363 -8.94901
431 1 4.7162 20.443 4.71617 -8.94954
432 1 6.28885 18.8704 3.14346 -8.94967
433 1 7.86161 20.4428 4.71622 -8.94962
434 1 9.43426 18.8701 3.14369 -8.94957
435 1 11.0069 20.4424 4.71642 -8.94954
436 1 12.5795 18.8698 3.144 -8.94954
437 1 14.1521 20.442 4.71666 -8.94964
438 1 15.7245 18.8695 3.14429 -8.94958
439 1 17.2968 20.4418 4.7169 -8.9496
440 1 18.8691 18.8695 3.14444 -8.94952
441 1 20.4413 20.4419 4.71696 -8.94962
505 1 -0.000480091 18.8697 9.43439 -8.94958
504 1 18.8698 15.7247 9.43445 -8.94937
444 1 7.84839 11.0027 7.84793 -9.01907
503 1 15.7256 15.7245 9.43452 -8.94945
446 1 14.1558 11.0017 7.85924 -9.03359
502 1 12.58 15.7253 9.43222 -9.00171
501 1 9.43008 15.7357 9.43113 -9.01965
449 1 22.0133 12.5795 6.28906 -8.94974
450 1 1.57072 14.1526 7.8614 -8.9503
451 1 3.14243 12.5799 6.28816 -8.94977
452 1 4.71178 14.1544 7.85972 -8.95241
453 1 6.28418 12.5813 6.28491 -8.94732
454 1 7.84514 14.1689 7.84491 -8.99662
455 1 9.42929 12.5833 6.28389 -9.05596
456 1 11.0058 14.1555 7.85667 -9.04326
457 1 12.5822 12.5846 6.2857 -9.03359
458 1 14.1557 14.1561 7.85897 -8.97918
459 1 15.7253 12.5793 6.28959 -8.9513
460 1 17.2991 14.1529 7.86099 -8.94861
461 1 18.8697 12.5793 6.28925 -8.94941
462 1 20.4418 14.1522 7.86164 -8.94994
463 1 -0.000784147 15.725 6.28898 -8.94985
464 1 1.57119 17.2977 7.86159 -8.94952
465 1 3.1421 15.726 6.28799 -8.95014
466 1 4.71483 17.299 7.86097 -8.94953
467 1 6.28313 15.7308 6.28334 -8.94254
468 1 7.85869 17.3027 7.85911 -8.95181
469 1 9.43332 15.7282 6.28605 -8.94896
470 1 11.0069 17.2995 7.86056 -8.9487
471 1 12.5797 15.7267 6.28751 -8.95043
472 1 14.1525 17.2981 7.86127 -8.95055
473 1 15.7256 15.7256 6.28827 -8.94802
474 1 17.297 17.2972 7.86182 -8.94991
475 1 18.8696 15.7249 6.28896 -8.94942
476 1 20.4413 17.2972 7.86181 -8.94959
477 1 22.0133 18.8698 6.28926 -8.94959
478 1 1.57179 20.4423 7.86182 -8.94958
479 1 3.1435 18.8705 6.28884 -8.94963
480 1 4.71617 20.443 7.86156 -8.94952
481 1 6.28772 18.8721 6.28778 -8.94985
482 1 7.86103 20.4438 7.8611 -8.95016
483 1 9.43404 18.8712 6.28825 -8.94981
484 1 11.007 20.4427 7.86137 -8.94953
485 1 12.5796 18.8703 6.28864 -8.94984
486 1 14.1523 20.4421 7.86156 -8.94956
487 1 15.7246 18.8697 6.28912 -8.94966
488 1 17.2969 20.4417 7.86191 -8.94966
489 1 18.8691 18.8695 6.28936 -8.94971
490 1 20.4413 20.4419 7.86193 -8.94961
491 1 -7.47033e-05 12.5795 9.4344 -8.95047
492 1 3.14193 12.5799 9.43413 -8.95172
493 1 6.27911 12.5804 9.43299 -9.01849
494 1 9.33631 12.6384 9.40276 -9.37193
495 1 12.6324 12.5794 9.41887 -9.22422
496 1 15.7368 12.5786 9.43456 -8.96462
497 1 18.872 12.5792 9.43454 -8.95283
498 1 22.0133 15.7249 9.43436 -8.94966
499 1 3.14255 15.7258 9.43413 -8.94939
500 1 6.28528 15.7281 9.4337 -8.94891
56 1 9.43445 22.0144 3.14428 -8.94961
52 1 3.1443 22.0146 3.14427 -8.94952
516 1 14.1576 11.003 11.0122 -9.05596
519 1 1.57122 14.1525 11.0071 -8.95007
520 1 4.71305 14.1539 11.0075 -8.95094
521 1 7.85038 14.1631 11.0158 -9.02497
529 1 11.0069 17.3059 11.0069 -8.95932
398 1 17.2971 11.0068 4.71683 -8.94964
1 1 -0.000153238 22.0141 -0.000122647 -8.94948
5 1 6.28951 22.0141 -0.000320482 -8.94962
399 1 20.4415 11.0068 4.71682 -8.94957
530 1 14.152 17.2971 11.0065 -8.9509
532 1 20.4415 17.2972 11.007 -8.94956
534 1 4.71633 20.4427 11.007 -8.94948
11 1 15.7244 22.0138 -6.63422e-05 -8.94962
686 1 20.4415 20.4416 20.4415 -8.94952
685 1 18.8693 18.8692 18.8692 -8.94947
514 1 7.85903 11.0065 11.014 -9.03094
684 1 17.2968 20.4415 20.4415 -8.94965
307 1 18.8693 22.0137 18.8693 -8.94955
683 1 15.7243 18.869 18.8691 -8.94977
682 1 14.1519 20.4414 20.4414 -8.94962
303 1 12.5795 22.0135 18.8692 -8.94961
301 1 9.43453 22.0136 18.8691 -8.94961
297 1 3.14462 22.014 18.8692 -8.94958
522 1 11.0062 14.1873 11.0221 -9.25465
523 1 14.1566 14.1537 11.0098 -8.99613
524 1 17.2997 14.1527 11.008 -8.94839
525 1 20.4423 14.1522 11.0072 -8.9499
526 1 1.57144 17.2976 11.007 -8.94952
527 1 4.71523 17.2986 11.007 -8.94926
528 1 7.8597 17.301 11.0073 -8.95116
295 1 -4.96758e-05 22.0139 18.8692 -8.94952
639 1 4.71681 11.0069 20.4412 -8.94964
531 1 17.2972 17.297 11.007 -8.94957
643 1 17.2972 11.0068 20.442 -8.94959
256 1 15.7247 22.0134 15.7247 -8.9496
383 1 6.28934 18.8696 22.0131 -8.94964
535 1 7.86128 20.4431 11.007 -8.94998
536 1 11.007 20.4434 11.0069 -8.95204
537 1 14.1521 20.4416 11.0069 -8.94953
377 1 18.8692 15.7244 22.0138 -8.94964
389 1 15.7243 18.8692 22.0136 -8.94965
681 1 12.5794 18.8689 18.8688 -8.94962
680 1 11.007 20.4415 20.4412 -8.94961
679 1 9.43455 18.8691 18.8687 -8.94962
543 1 11.0085 11.006 14.1624 -9.01849
678 1 7.86202 20.4416 20.4412 -8.94962
677 1 6.28952 18.8693 18.8689 -8.94975
676 1 4.71702 20.4417 20.4412 -8.94965
547 1 22.0142 12.5794 12.5797 -8.9498
548 1 1.57195 14.1521 14.1522 -8.94968
549 1 3.14355 12.5796 12.5798 -8.94992
550 1 4.71567 14.1525 14.1526 -8.94952
551 1 6.2861 12.58 12.5808 -8.94951
552 1 7.85973 14.1529 14.1542 -8.95108
553 1 9.42745 12.5799 12.5825 -9.03094
554 1 11.0065 14.1482 14.1481 -8.99607
555 1 12.5935 12.5836 12.5931 -9.01907
556 1 14.1563 14.154 14.1559 -8.94514
557 1 15.7289 12.579 12.5811 -8.95271
558 1 17.2987 14.1521 14.153 -8.95027
559 1 18.871 12.5792 12.5801 -8.94996
560 1 20.4421 14.152 14.1523 -8.94978
561 1 -0.000244548 15.7248 12.5797 -8.94977
562 1 1.57171 17.2974 14.1523 -8.94961
563 1 3.14297 15.7255 12.58 -8.94998
564 1 4.71552 17.2983 14.153 -8.94839
565 1 6.28499 15.7283 12.5823 -8.94588
566 1 7.8611 17.2978 14.1524 -8.94923
567 1 9.43131 15.7261 12.5797 -8.98119
568 1 11.007 17.2958 14.1507 -8.94986
569 1 12.5821 15.7246 12.5797 -8.98205
570 1 14.1526 17.2971 14.1522 -8.94984
571 1 15.7264 15.7251 12.5804 -8.94894
572 1 17.2974 17.2971 14.1523 -8.94935
573 1 18.8701 15.7248 12.58 -8.94941
574 1 20.4417 17.2971 14.1522 -8.94953
575 1 22.0136 18.8696 12.5795 -8.94958
576 1 1.57204 20.442 14.152 -8.94961
577 1 3.14388 18.8701 12.5796 -8.94958
578 1 4.71651 20.4423 14.1522 -8.94964
579 1 6.28825 18.8709 12.58 -8.95004
580 1 7.86156 20.442 14.1523 -8.94939
581 1 9.43351 18.8709 12.58 -8.94826
582 1 11.007 20.4412 14.152 -8.94915
583 1 12.5803 18.8702 12.58 -8.94819
584 1 14.1524 20.4414 14.1522 -8.9495
585 1 15.7247 18.8692 12.5794 -8.9501
586 1 17.297 20.4414 14.152 -8.94974
587 1 18.8693 18.8693 12.5795 -8.94968
588 1 20.4415 20.4417 14.152 -8.94962
589 1 1.57239 11.0069 17.297 -8.9496
590 1 4.71678 11.0068 17.2972 -8.94955
675 1 3.14448 18.8694 18.8691 -8.94958
674 1 1.57216 20.4418 20.4414 -8.94953
673 1 22.0138 18.8693 18.8691 -8.94957
594 1 17.2979 11.0066 17.2979 -8.94956
595 1 20.4421 11.0068 17.2972 -8.94958
596 1 0.000262502 12.5794 15.7247 -8.94964
597 1 1.57222 14.152 17.2969 -8.9496
598 1 3.1443 12.5795 15.7247 -8.94955
599 1 4.71666 14.1521 17.297 -8.94959
600 1 6.28862 12.5795 15.7253 -8.94924
601 1 7.86159 14.1522 17.2972 -8.95001
602 1 9.43392 12.5796 15.7262 -8.94857
603 1 11.0071 14.1517 17.2964 -8.94779
604 1 12.5815 12.5797 15.7283 -8.95189
605 1 14.153 14.1523 17.2981 -8.94996
606 1 15.7263 12.5793 15.7261 -8.94894
607 1 17.2976 14.152 17.2975 -8.94958
608 1 18.8703 12.5793 15.7251 -8.94951
609 1 20.4419 14.1519 17.2971 -8.94958
610 1 22.0139 15.7245 15.7246 -8.94964
611 1 1.57212 17.297 17.2969 -8.9496
612 1 3.14414 15.7248 15.7247 -8.94959
613 1 4.71671 17.2972 17.297 -8.9496
614 1 6.28866 15.7251 15.7252 -8.94967
615 1 7.86209 17.2967 17.2964 -8.95001
616 1 9.43484 15.7238 15.7235 -8.95088
617 1 11.007 17.2965 17.2961 -8.94942
618 1 12.5791 15.7234 15.7236 -8.95108
619 1 14.1518 17.2965 17.2966 -8.95011
620 1 15.7257 15.7252 15.7256 -8.94824
621 1 17.2972 17.297 17.2972 -8.94922
622 1 18.8698 15.7246 15.7249 -8.94966
623 1 20.4417 17.2969 17.297 -8.94958
624 1 -0.000175095 18.8695 15.7245 -8.94953
625 1 1.57215 20.4418 17.2969 -8.94946
626 1 3.14415 18.8698 15.7247 -8.94922
627 1 4.71694 20.4417 17.2968 -8.94961
628 1 6.28919 18.8696 15.7246 -8.94957
629 1 7.86205 20.4414 17.2967 -8.94973
630 1 9.43461 18.8688 15.7241 -8.9499
631 1 11.007 20.4411 17.2966 -8.94963
632 1 12.5794 18.8686 15.7241 -8.94985
633 1 14.1519 20.4411 17.2968 -8.94972
634 1 15.7246 18.8692 15.7245 -8.94964
635 1 17.2969 20.4414 17.2969 -8.94961
636 1 18.8693 18.8693 15.7245 -8.94954
637 1 20.4415 20.4416 17.2968 -8.94956
672 1 20.4415 17.2969 20.4415 -8.9496
671 1 18.8694 15.7244 18.8694 -8.94961
670 1 17.2969 17.2969 20.4415 -8.94954
669 1 15.7248 15.7246 18.8695 -8.9496
668 1 14.1519 17.2968 20.4412 -8.94961
667 1 12.5795 15.7243 18.8687 -8.94941
666 1 11.007 17.2969 20.4409 -8.94958
645 1 22.014 12.5794 18.8693 -8.94959
646 1 1.57211 14.152 20.4413 -8.9496
647 1 3.1445 12.5795 18.8691 -8.9496
648 1 4.71673 14.1521 20.441 -8.94965
649 1 6.28923 12.5795 18.8691 -8.94966
650 1 7.86172 14.1522 20.4408 -8.94985
651 1 9.43444 12.5796 18.8694 -8.9498
652 1 11.007 14.1522 20.4409 -8.94934
653 1 12.5799 12.5795 18.87 -8.95033
654 1 14.1523 14.1522 20.4415 -8.94984
655 1 15.7251 12.5794 18.87 -8.94951
656 1 17.2971 14.152 20.4417 -8.94959
657 1 18.8696 12.5794 18.8696 -8.94959
658 1 20.4416 14.1519 20.4416 -8.9496
659 1 -5.93889e-05 15.7244 18.8692 -8.94959
660 1 1.57208 17.297 20.4413 -8.94959
661 1 3.14444 15.7246 18.869 -8.94962
662 1 4.71679 17.2971 20.441 -8.94967
663 1 6.28924 15.7247 18.8689 -8.94977
664 1 7.86194 17.297 20.4408 -8.94966
665 1 9.43453 15.7244 18.8685 -8.9495
197 1 -5.88383e-05 22.0141 12.5794 -8.9496
199 1 3.14442 22.0144 12.5795 -8.94957
203 1 9.4343 22.0141 12.5798 -8.94978
205 1 12.5799 22.0136 12.5798 -8.94981
209 1 18.8694 22.0138 12.5795 -8.94962
250 1 6.28932 22.0139 15.7246 -8.94958
351 1 22.0137 12.5794 22.0137 -8.9496
355 1 6.28899 12.5797 22.0128 -8.94974
367 1 3.14418 15.7247 22.0132 -8.94959
371 1 9.43433 15.7248 22.0128 -8.9496
373 1 12.5795 15.7247 22.0132 -8.94952
361 1 15.7247 12.5795 22.0139 -8.94957
379 1 22.0136 18.8694 22.0136 -8.94957
533 1 1.57191 20.4422 11.007 -8.94958
