ITEM: TIMESTEP
72
ITEM: NUMBER OF ATOMS
688
ITEM: BOX BOUNDS pp pp pp
0.0000000000000000e+00 2.2013900999999997e+01
0.0000000000000000e+00 2.2013900999999997e+01
0.0000000000000000e+00 2.2013900999999997e+01
ITEM: ATOMS id type x y z c_pot
513 1 4.7149 11.0062 11.0079 -8.94857
2 1 1.5722 1.57243 1.57219 -8.94953
175 1 18.8703 9.43393 9.4345 -8.94944
4 1 4.71697 1.57239 1.57211 -8.94964
512 1 1.57184 11.0066 11.0072 -8.94982
6 1 7.86196 1.57234 1.5721 -8.94961
448 1 20.4423 11.0065 7.86168 -8.9499
8 1 11.007 1.57231 1.57211 -8.9496
447 1 17.2995 11.0056 7.8608 -8.94841
10 1 14.152 1.57229 1.57214 -8.94962
174 1 15.7266 9.43355 9.43488 -8.95053
12 1 17.2969 1.57231 1.57219 -8.94959
445 1 11.0247 11.0052 7.80716 -9.2301
14 1 20.4416 1.57238 1.57226 -8.94957
151 1 9.43421 0.00071707 9.43427 -8.95051
16 1 1.57219 4.71701 1.57216 -8.9495
17 1 3.14457 3.14465 -0.000106218 -8.94956
18 1 4.71683 4.71686 1.57203 -8.94954
443 1 4.71351 11.006 7.86036 -8.95103
20 1 7.86187 4.7168 1.57202 -8.94966
21 1 9.43445 3.14455 -9.86892e-05 -8.94961
22 1 11.007 4.71679 1.57202 -8.94961
23 1 12.5795 3.14453 -8.38634e-05 -8.94961
24 1 14.1521 4.71677 1.57206 -8.94971
442 1 1.57151 11.0066 7.86169 -8.95023
26 1 17.2971 4.71684 1.57212 -8.94947
27 1 18.8693 3.14461 -4.29749e-05 -8.94952
28 1 20.4416 4.71701 1.57221 -8.94954
29 1 -3.66842e-05 6.28949 -0.000101444 -8.94961
30 1 1.57214 7.86185 1.57208 -8.94962
193 1 11.0097 7.8499 11.0106 -9.01834
32 1 4.71666 7.86167 1.57178 -8.94968
33 1 6.28921 6.28918 -0.000265248 -8.94957
34 1 7.86147 7.86135 1.57132 -8.94947
192 1 7.8601 7.85852 11.0107 -8.9812
36 1 11.007 7.8615 1.57144 -8.94939
191 1 4.71707 7.86189 11.0068 -8.95101
38 1 14.1526 7.86131 1.57143 -8.94945
39 1 15.7248 6.28915 -0.000158286 -8.94956
40 1 17.2971 7.86178 1.57205 -8.94975
190 1 1.57243 7.86176 11.007 -8.94957
42 1 20.4416 7.86189 1.57216 -8.94963
349 1 17.2971 11.0069 1.57206 -8.9496
44 1 3.14446 9.43437 -0.000250948 -8.94959
345 1 4.7166 11.0069 1.57161 -8.94953
688 2 10.2421 11.0449 9.45151 0.653226
47 1 12.5798 9.43412 -0.000656741 -8.94999
48 1 15.7247 9.43434 -0.000150283 -8.94965
49 1 18.8694 9.43441 -7.88327e-05 -8.94961
50 1 22.0138 0.000171222 3.14459 -8.94961
51 1 1.57217 1.5725 4.71702 -8.94964
173 1 12.5844 9.43031 9.43435 -9.04103
53 1 4.71668 1.57244 4.7167 -8.94956
54 1 6.28936 0.00028047 3.1443 -8.94964
55 1 7.86185 1.5724 4.71669 -8.94964
172 1 9.41679 9.39284 9.4343 -9.25755
57 1 11.0071 1.5723 4.71669 -8.94961
171 1 6.29197 9.4367 9.43486 -8.99812
59 1 14.1522 1.5722 4.71671 -8.94961
60 1 15.7246 9.601e-05 3.14442 -8.9496
61 1 17.2971 1.57233 4.7169 -8.9496
170 1 3.14464 9.4342 9.43453 -8.94812
63 1 20.4416 1.57241 4.71705 -8.94962
64 1 -4.32251e-05 3.14472 3.14463 -8.94964
65 1 1.57222 4.71703 4.71703 -8.94975
66 1 3.14444 3.14464 3.14446 -8.94953
67 1 4.71659 4.71663 4.71661 -8.94941
68 1 6.28934 3.14455 3.14434 -8.94973
69 1 7.86181 4.71655 4.71651 -8.95005
70 1 9.43445 3.14449 3.14434 -8.94959
71 1 11.0071 4.71649 4.71646 -8.94954
72 1 12.5796 3.14446 3.14434 -8.94964
73 1 14.1524 4.71631 4.71647 -8.94967
74 1 15.7247 3.14445 3.1444 -8.94959
75 1 17.2972 4.71671 4.71678 -8.94958
76 1 18.8694 3.14462 3.14457 -8.94959
77 1 20.4417 4.71698 4.71701 -8.94966
78 1 22.0138 6.28933 3.14447 -8.94955
79 1 1.57193 7.86157 4.71668 -8.94958
80 1 3.14426 6.28915 3.14427 -8.9493
81 1 4.7159 7.86096 4.71593 -8.94848
82 1 6.28899 6.2889 3.14388 -8.94941
83 1 7.86092 7.86063 4.71496 -8.94927
84 1 9.43438 6.2889 3.144 -8.94955
85 1 11.0069 7.86128 4.71545 -8.94945
86 1 12.5797 6.28891 3.14401 -8.94991
87 1 14.1536 7.86019 4.71519 -8.94761
88 1 15.725 6.28885 3.144 -8.94911
89 1 17.2977 7.86126 4.71637 -8.94935
90 1 18.8695 6.28923 3.14439 -8.9495
91 1 20.4418 7.86162 4.71676 -8.94961
92 1 -0.000124411 9.4343 3.14442 -8.94958
93 1 3.14419 9.4342 3.14411 -8.9496
94 1 6.28871 9.43404 3.14322 -8.95026
95 1 9.43353 9.43331 3.14185 -8.94835
96 1 12.5807 9.4332 3.14189 -8.94891
97 1 15.7249 9.4342 3.14398 -8.95014
98 1 18.8694 9.43431 3.14437 -8.94969
169 1 0.000241909 9.43411 9.43449 -8.94939
100 1 1.57217 1.57251 7.86199 -8.94961
101 1 3.14431 0.000382347 6.28937 -8.94959
102 1 4.71669 1.57256 7.86187 -8.94954
168 1 18.8698 6.28907 9.43444 -8.94955
104 1 7.86148 1.57216 7.86154 -8.94989
105 1 9.4344 0.000456641 6.28905 -8.94962
106 1 11.0072 1.57196 7.86157 -8.94965
107 1 12.5798 0.000253504 6.28908 -8.94966
108 1 14.1524 1.57217 7.86171 -8.94966
167 1 15.7256 6.28827 9.43438 -8.9489
110 1 17.2971 1.57228 7.8619 -8.9496
111 1 18.8693 0.000135428 6.28946 -8.94962
112 1 20.4416 1.5724 7.86199 -8.94962
113 1 22.0139 3.14474 6.28953 -8.94962
114 1 1.57231 4.71707 7.86201 -8.94962
115 1 3.14447 3.14477 6.28947 -8.94971
116 1 4.71685 4.71702 7.86198 -8.94983
117 1 6.2889 3.1442 6.28891 -8.94946
118 1 7.86086 4.71499 7.86081 -8.94842
119 1 9.43445 3.14416 6.28908 -8.94951
120 1 11.0078 4.71495 7.86108 -8.94805
121 1 12.5799 3.14396 6.28893 -8.94957
122 1 14.1528 4.71588 7.86158 -8.94984
123 1 15.7249 3.14432 6.28921 -8.94964
124 1 17.2974 4.71662 7.86183 -8.94956
125 1 18.8694 3.1446 6.28945 -8.94962
126 1 20.4418 4.71695 7.86197 -8.94961
127 1 8.28355e-05 6.28937 6.28949 -8.94965
128 1 1.57238 7.86177 7.862 -8.94952
129 1 3.1445 6.28937 6.28949 -8.9501
130 1 4.71712 7.86206 7.86223 -8.95129
131 1 6.2885 6.28815 6.28833 -8.94905
132 1 7.86 7.85919 7.85823 -8.982
133 1 9.43467 6.28824 6.28898 -8.95076
134 1 11.0092 7.85978 7.86063 -9.00192
135 1 12.5803 6.28765 6.2884 -8.95064
136 1 14.1539 7.85939 7.86121 -8.95031
137 1 15.7253 6.28847 6.28888 -8.94954
138 1 17.2978 7.86121 7.86181 -8.95006
139 1 18.8696 6.28915 6.28935 -8.94971
140 1 20.442 7.86164 7.86191 -8.94957
141 1 22.0138 9.43407 6.2892 -8.94982
142 1 3.14344 9.43375 6.28866 -8.94982
143 1 6.28605 9.43214 6.28588 -8.9459
144 1 9.43166 9.43159 6.28512 -8.99724
145 1 12.5834 9.42903 6.28429 -8.97907
146 1 15.7266 9.43275 6.28785 -8.94891
147 1 18.8702 9.43378 6.2889 -8.94954
148 1 -0.000105376 0.00018927 9.4345 -8.9496
166 1 12.5806 6.28652 9.43407 -8.94864
150 1 6.28893 0.000586827 9.43443 -8.94955
165 1 9.43379 6.27859 9.43413 -8.96062
152 1 12.5799 0.000457807 9.43427 -8.94965
153 1 15.7248 0.000120141 9.43442 -8.94961
164 1 6.28985 6.28935 9.43443 -8.94971
155 1 2.49955e-05 3.14472 9.43449 -8.94961
156 1 3.14449 3.14475 9.43449 -8.94961
157 1 6.28908 3.14439 9.43443 -8.94917
158 1 9.43426 3.14231 9.43433 -8.95234
159 1 12.58 3.14353 9.43431 -8.94956
160 1 15.7249 3.14416 9.4344 -8.94954
161 1 18.8695 3.14455 9.43446 -8.94961
162 1 22.0141 6.28935 9.43448 -8.9496
163 1 3.14473 6.28939 9.43448 -8.94943
344 1 1.5721 11.0069 1.57203 -8.9496
350 1 20.4416 11.0069 1.57215 -8.9496
181 1 17.2972 1.57221 11.007 -8.9496
188 1 17.2975 4.71648 11.007 -8.94957
177 1 4.71668 1.57249 11.0071 -8.94954
184 1 4.71684 4.71694 11.007 -8.94985
189 1 20.4418 4.71691 11.007 -8.9496
644 1 20.4416 11.0069 20.4416 -8.9496
3 1 3.1446 0.000103558 22.0137 -8.9496
178 1 7.86148 1.57197 11.0073 -8.94982
179 1 11.0072 1.5717 11.0073 -8.95051
180 1 14.1524 1.57196 11.0071 -8.94962
46 1 9.43422 9.43412 22.0131 -8.94987
182 1 20.4416 1.57238 11.007 -8.94961
183 1 1.57232 4.71704 11.007 -8.94962
252 1 9.43441 -6.87949e-05 15.7248 -8.94954
185 1 7.86087 4.71466 11.008 -8.94843
186 1 11.0079 4.71292 11.008 -8.95088
187 1 14.1529 4.71544 11.0072 -8.94979
642 1 14.1523 11.007 20.4417 -8.94971
254 1 12.5796 -0.000135877 15.7248 -8.94954
641 1 11.007 11.0069 20.4415 -8.95051
640 1 7.86174 11.007 20.4414 -8.94974
45 1 6.2892 9.43431 22.0134 -8.94975
638 1 1.57222 11.0069 20.4415 -8.9496
194 1 14.1546 7.85858 11.0076 -8.94918
195 1 17.2982 7.86092 11.0072 -8.94974
196 1 20.4421 7.86159 11.0071 -8.94962
343 1 18.8695 9.43438 18.8694 -8.9496
198 1 1.57218 1.57243 14.152 -8.94964
342 1 15.725 9.43422 18.8699 -8.94957
200 1 4.71663 1.57228 14.1523 -8.94955
201 1 6.28896 0.000365683 12.5799 -8.94972
202 1 7.86161 1.57206 14.1525 -8.94972
341 1 12.5799 9.43403 18.8703 -8.95023
204 1 11.0071 1.57183 14.1525 -8.94955
340 1 9.43423 9.43405 18.8701 -8.95
206 1 14.1525 1.5718 14.1525 -8.94975
207 1 15.7248 2.48499e-05 12.5796 -8.94964
208 1 17.2972 1.57214 14.1521 -8.94964
339 1 6.28916 9.43429 18.8696 -8.94967
210 1 20.4417 1.57235 14.152 -8.94962
211 1 22.0139 3.1447 12.5795 -8.94962
212 1 1.57223 4.71699 14.152 -8.94973
213 1 3.14445 3.14471 12.5795 -8.9497
214 1 4.71645 4.71652 14.1524 -8.94942
215 1 6.28881 3.14398 12.58 -8.94939
216 1 7.86122 4.71551 14.1531 -8.94996
217 1 9.43424 3.14328 12.5802 -8.9499
218 1 11.0071 4.71528 14.1532 -8.9493
219 1 12.5802 3.14297 12.5803 -8.95007
220 1 14.1533 4.71492 14.1534 -8.94973
221 1 15.725 3.144 12.5797 -8.94962
222 1 17.2976 4.71638 14.1524 -8.94968
223 1 18.8695 3.14449 12.5795 -8.94962
224 1 20.4419 4.71688 14.152 -8.94965
225 1 0.00018598 6.28933 12.5795 -8.94967
226 1 1.57211 7.86166 14.1523 -8.9497
227 1 3.14446 6.28932 12.5795 -8.95002
228 1 4.71593 7.86115 14.1528 -8.94957
229 1 6.28832 6.28798 12.5807 -8.9488
230 1 7.85909 7.85841 14.156 -8.94667
231 1 9.4337 6.28535 12.5814 -8.95062
232 1 11.0072 7.85906 14.1553 -8.94923
233 1 12.5818 6.28428 12.5823 -8.95122
234 1 14.1569 7.85676 14.1571 -8.94338
235 1 15.7259 6.28794 12.5802 -8.94966
236 1 17.2987 7.86082 14.1531 -8.95003
237 1 18.8699 6.28897 12.5797 -8.94963
238 1 20.4422 7.86158 14.1523 -8.94974
239 1 22.0141 9.43411 12.5797 -8.94981
240 1 3.14386 9.43395 12.58 -8.94989
241 1 6.28689 9.43313 12.5817 -8.95063
242 1 9.42598 9.42457 12.5893 -9.02678
243 1 12.5939 9.41961 12.5938 -9.00007
244 1 15.7284 9.43241 12.5815 -8.95263
245 1 18.8707 9.43374 12.5801 -8.94988
246 1 22.0138 0.000113748 15.7245 -8.94962
247 1 1.5722 1.57237 17.2969 -8.94956
248 1 3.14438 0.000170245 15.7247 -8.94956
249 1 4.71683 1.57225 17.2971 -8.94956
338 1 3.14448 9.43438 18.8693 -8.9496
251 1 7.86186 1.57213 17.2971 -8.94958
337 1 22.0139 9.43442 18.8693 -8.9496
253 1 11.007 1.57206 17.2972 -8.94958
336 1 20.4417 7.86194 20.4416 -8.9496
255 1 14.1521 1.57204 17.2972 -8.94959
335 1 18.8695 6.28933 18.8695 -8.94959
257 1 17.2971 1.57213 17.2971 -8.94951
258 1 18.8694 3.55065e-05 15.7245 -8.94964
259 1 20.4416 1.57232 17.2969 -8.9496
260 1 1.10502e-05 3.14466 15.7245 -8.94964
261 1 1.57219 4.71697 17.297 -8.94958
262 1 3.14438 3.14456 15.7246 -8.94956
263 1 4.71659 4.71665 17.2973 -8.94929
264 1 6.28903 3.14418 15.725 -8.94963
265 1 7.86169 4.71649 17.2975 -8.94961
266 1 9.43432 3.144 15.7251 -8.94949
267 1 11.007 4.71638 17.2976 -8.94955
268 1 12.5797 3.14391 15.7251 -8.94953
269 1 14.1524 4.71634 17.2976 -8.94966
270 1 15.7251 3.1439 15.7251 -8.94952
271 1 17.2975 4.71645 17.2975 -8.94909
272 1 18.8695 3.14446 15.7246 -8.94964
273 1 20.4418 4.7169 17.297 -8.94957
274 1 22.014 6.28931 15.7246 -8.94965
275 1 1.57221 7.86186 17.297 -8.94962
276 1 3.14422 6.28916 15.7248 -8.94958
277 1 4.7166 7.86166 17.2973 -8.94959
278 1 6.28832 6.28822 15.7258 -8.94862
279 1 7.8613 7.8611 17.2983 -8.94993
280 1 9.43417 6.28811 15.7259 -8.94936
281 1 11.007 7.86101 17.2984 -8.94938
282 1 12.5801 6.28796 15.7261 -8.9497
283 1 14.153 7.86083 17.2987 -8.95003
284 1 15.7262 6.28765 15.7263 -8.94787
285 1 17.2976 7.86152 17.2975 -8.94954
286 1 18.87 6.28899 15.7249 -8.94963
287 1 20.4418 7.86183 17.2971 -8.94961
288 1 9.69659e-05 9.43431 15.7247 -8.94965
289 1 3.14426 9.43424 15.7249 -8.94961
290 1 6.28861 9.4339 15.7257 -8.94957
291 1 9.43362 9.43286 15.7279 -8.95044
292 1 12.5812 9.43252 15.7289 -8.95181
293 1 15.726 9.43357 15.7261 -8.94916
294 1 18.87 9.43417 15.725 -8.94962
334 1 17.2971 7.86182 20.4417 -8.94961
296 1 1.57226 1.57236 20.4415 -8.94952
333 1 15.725 6.28893 18.8699 -8.94961
298 1 4.71702 1.57231 20.4416 -8.94962
299 1 6.28947 -1.21989e-05 18.8693 -8.94964
300 1 7.86196 1.57226 20.4416 -8.94961
332 1 14.1523 7.86156 20.4418 -8.94984
302 1 11.007 1.57223 20.4416 -8.9496
331 1 12.5797 6.28894 18.8699 -8.94955
304 1 14.152 1.57222 20.4416 -8.94961
305 1 15.7245 -7.39161e-05 18.8693 -8.94964
306 1 17.2969 1.57225 20.4416 -8.94961
330 1 11.007 7.86157 20.4417 -8.94965
308 1 20.4416 1.57234 20.4416 -8.94948
309 1 22.0139 3.14466 18.8693 -8.94954
310 1 1.57224 4.71705 20.4415 -8.94958
311 1 3.1445 3.14459 18.8693 -8.94948
312 1 4.71686 4.71689 20.4416 -8.94956
313 1 6.28936 3.14448 18.8694 -8.94962
314 1 7.86185 4.71682 20.4417 -8.94959
315 1 9.43441 3.14441 18.8695 -8.94959
316 1 11.007 4.71678 20.4417 -8.94959
317 1 12.5795 3.14438 18.8695 -8.94959
318 1 14.1521 4.71677 20.4417 -8.9496
319 1 15.7246 3.14439 18.8695 -8.94963
320 1 17.2971 4.71682 20.4417 -8.94952
321 1 18.8694 3.14452 18.8694 -8.94941
322 1 20.4417 4.71704 20.4416 -8.94958
323 1 1.98881e-05 6.28947 18.8693 -8.9496
324 1 1.57223 7.86194 20.4415 -8.9496
325 1 3.14446 6.28938 18.8693 -8.9496
326 1 4.71682 7.86183 20.4415 -8.94964
327 1 6.2891 6.28908 18.8697 -8.94962
328 1 7.86167 7.8616 20.4416 -8.94977
329 1 9.43432 6.28898 18.8698 -8.94954
593 1 14.1529 11.0068 17.2985 -8.94967
592 1 11.0071 11.0067 17.2995 -8.95203
515 1 11.0353 10.9507 11.0969 -9.37613
517 1 17.2998 11.0057 11.0081 -8.94784
518 1 20.4425 11.0065 11.0072 -8.94975
540 1 1.57206 11.0068 14.1523 -8.94964
541 1 4.71601 11.0068 14.1529 -8.94932
542 1 7.86055 11.0064 14.1552 -8.9496
544 1 14.1553 11.0058 14.156 -8.94787
545 1 17.2985 11.0066 14.153 -8.94976
546 1 20.4421 11.0068 14.1523 -8.94971
591 1 7.86155 11.0069 17.298 -8.94985
7 1 9.43449 4.38475e-05 22.0137 -8.94961
9 1 12.5795 1.79438e-05 22.0138 -8.94962
13 1 18.8692 3.84824e-05 22.0138 -8.94957
19 1 6.28944 3.14458 22.0138 -8.94963
25 1 15.7245 3.14454 22.0138 -8.94963
31 1 3.14448 6.28939 22.0137 -8.9496
35 1 9.43438 6.28916 22.0137 -8.94957
37 1 12.5796 6.28915 22.0137 -8.94959
41 1 18.8694 6.28941 22.0138 -8.94963
43 1 22.0138 9.43442 22.0138 -8.9496
15 1 22.0139 3.14471 22.0138 -8.94953
176 1 1.57218 1.57248 11.007 -8.94961
687 2 10.99 12.5414 10.1994 0.653226
511 1 18.8695 18.8695 9.43448 -8.94961
346 1 7.8616 11.007 1.571 -8.94984
347 1 11.007 11.007 1.56953 -8.9529
348 1 14.1524 11.007 1.57152 -8.94942
510 1 15.725 18.8698 9.43442 -8.94954
539 1 20.4416 20.4418 11.007 -8.94961
154 1 18.8694 22.014 9.43448 -8.9496
352 1 1.57204 14.1519 1.57198 -8.9496
353 1 3.14442 12.5794 -0.000310665 -8.94958
354 1 4.71649 14.1522 1.57151 -8.94962
538 1 17.2971 20.4418 11.007 -8.94959
356 1 7.86137 14.1526 1.5708 -8.94988
357 1 9.43423 12.5798 -0.000985205 -8.94975
358 1 11.007 14.1524 1.57119 -8.94944
359 1 12.5798 12.5798 -0.00078642 -8.9499
360 1 14.1526 14.1525 1.57132 -8.94954
393 1 1.5718 11.0068 4.71659 -8.94951
362 1 17.2971 14.152 1.57204 -8.94969
363 1 18.8693 12.5794 -9.98652e-05 -8.9496
364 1 20.4416 14.1519 1.57213 -8.94961
365 1 -0.00010272 15.7244 -0.000174444 -8.9496
366 1 1.57203 17.297 1.57195 -8.94959
149 1 3.14432 22.0143 9.43449 -8.94958
368 1 4.71656 17.2973 1.57149 -8.94963
369 1 6.28917 15.7247 -0.000670772 -8.94974
370 1 7.86181 17.2973 1.57154 -8.94963
109 1 15.7248 22.0141 6.28924 -8.94961
372 1 11.007 17.2973 1.57167 -8.94955
103 1 6.28894 22.0145 6.28897 -8.94975
374 1 14.1521 17.2972 1.57185 -8.94971
375 1 15.7247 15.7247 -0.000335323 -8.94961
376 1 17.2971 17.2971 1.57195 -8.9495
99 1 -0.000118959 22.0141 6.2895 -8.94961
378 1 20.4415 17.2969 1.5721 -8.94963
394 1 4.71583 11.0067 4.7157 -8.94905
380 1 1.5721 20.4418 1.57204 -8.94941
381 1 3.14446 18.8694 -0.000323024 -8.94957
382 1 4.7169 20.4419 1.57193 -8.94964
62 1 18.8693 22.014 3.14456 -8.94959
384 1 7.86195 20.4418 1.57195 -8.94962
385 1 9.4345 18.8694 -0.000350963 -8.9496
386 1 11.007 20.4418 1.572 -8.94961
387 1 12.5795 18.8694 -0.00029723 -8.94961
388 1 14.152 20.4417 1.57205 -8.94962
58 1 12.5796 22.014 3.14436 -8.9496
390 1 17.2969 20.4417 1.57212 -8.94959
391 1 18.8693 18.8693 -0.000147351 -8.94954
392 1 20.4415 20.4417 1.57217 -8.94952
509 1 12.5804 18.8714 9.43366 -8.94805
508 1 9.43344 18.8734 9.43361 -8.95088
395 1 7.86103 11.007 4.71367 -8.95243
396 1 11.0073 11.0072 4.70463 -8.96523
397 1 14.1523 11.0069 4.71564 -8.95124
507 1 6.28823 18.871 9.43436 -8.9493
506 1 3.14392 18.8699 9.43448 -8.94955
400 1 -0.000194408 12.5794 3.14438 -8.94959
401 1 1.57162 14.1521 4.71651 -8.94957
402 1 3.14403 12.5795 3.14401 -8.94956
403 1 4.71538 14.1527 4.71548 -8.94916
404 1 6.28843 12.5797 3.14301 -8.94976
405 1 7.85997 14.1539 4.71309 -8.95263
406 1 9.43338 12.5807 3.14172 -8.94784
407 1 11.0066 14.1528 4.71491 -8.95053
408 1 12.5807 12.5807 3.14196 -8.94841
409 1 14.1536 14.1536 4.7149 -8.94891
410 1 15.725 12.5795 3.14415 -8.94961
411 1 17.2975 14.1521 4.71654 -8.95014
412 1 18.8694 12.5794 3.1444 -8.9496
413 1 20.4416 14.152 4.71675 -8.94965
414 1 22.0137 15.7245 3.14434 -8.94961
415 1 1.57159 17.2974 4.71649 -8.94961
416 1 3.14393 15.7248 3.1439 -8.94954
417 1 4.71523 17.2987 4.71525 -8.94787
418 1 6.2884 15.7255 3.14278 -8.95003
419 1 7.86127 17.2984 4.71558 -8.94966
420 1 9.43428 15.7254 3.14326 -8.94974
421 1 11.0071 17.2981 4.71593 -8.9489
422 1 12.5797 15.7251 3.14371 -8.95006
423 1 14.1526 17.2979 4.71618 -8.94954
424 1 15.7251 15.7251 3.14375 -8.94935
425 1 17.2975 17.2975 4.71645 -8.94911
426 1 18.8694 15.7245 3.14434 -8.94975
427 1 20.4416 17.2972 4.71671 -8.94956
428 1 -0.000223635 18.8695 3.14438 -8.94952
429 1 1.57199 20.4419 4.71687 -8.94963
430 1 3.14402 18.8699 3.14396 -8.94909
431 1 4.7164 20.4424 4.7164 -8.94952
432 1 6.28911 18.8699 3.14387 -8.94968
433 1 7.86175 20.4423 4.71644 -8.94962
434 1 9.43444 18.8698 3.14402 -8.94957
435 1 11.0071 20.4422 4.71654 -8.94954
436 1 12.5796 18.8697 3.14413 -8.94956
437 1 14.1523 20.442 4.71662 -8.94964
438 1 15.7247 18.8696 3.14424 -8.94958
439 1 17.2971 20.4419 4.71682 -8.94959
440 1 18.8694 18.8695 3.1444 -8.94947
441 1 20.4415 20.4418 4.71697 -8.94963
505 1 -0.000219424 18.8695 9.43451 -8.94959
504 1 18.87 15.7248 9.43448 -8.94939
444 1 7.85065 11.0024 7.8504 -9.01827
503 1 15.726 15.725 9.43458 -8.94945
446 1 14.1561 11.0016 7.85843 -9.0334
502 1 12.5809 15.7265 9.43232 -9.00192
501 1 9.43084 15.7364 9.4318 -9.01834
449 1 22.0136 12.5794 6.28917 -8.94971
450 1 1.57114 14.1523 7.86163 -8.95023
451 1 3.14301 12.5796 6.28861 -8.94967
452 1 4.71263 14.1538 7.86028 -8.95181
453 1 6.28545 12.5806 6.28622 -8.94787
454 1 7.84767 14.1667 7.84762 -9.00007
455 1 9.43073 12.5827 6.28561 -9.05488
456 1 11.0071 14.156 7.85711 -9.04103
457 1 12.583 12.5847 6.28538 -9.0334
458 1 14.1572 14.1573 7.85811 -8.97907
459 1 15.7258 12.5794 6.28919 -8.95124
460 1 17.2996 14.1531 7.86081 -8.94891
461 1 18.87 12.5793 6.28912 -8.94942
462 1 20.4421 14.1522 7.86167 -8.94999
463 1 -0.000335911 15.7248 6.28913 -8.94984
464 1 1.57162 17.2974 7.86182 -8.94955
465 1 3.14276 15.7255 6.28844 -8.95003
466 1 4.71541 17.2984 7.86143 -8.9497
467 1 6.28435 15.7296 6.28459 -8.94338
468 1 7.85923 17.302 7.85966 -8.95122
469 1 9.43391 15.7277 6.28691 -8.94918
470 1 11.0074 17.2998 7.86093 -8.94864
471 1 12.5803 15.7269 6.28753 -8.95031
472 1 14.1531 17.2987 7.86122 -8.95064
473 1 15.7263 15.7261 6.28792 -8.94761
474 1 17.2975 17.2974 7.86181 -8.94991
475 1 18.87 15.725 6.2889 -8.94945
476 1 20.4416 17.2972 7.86189 -8.94959
477 1 22.0137 18.8695 6.28938 -8.9496
478 1 1.57198 20.4419 7.86194 -8.94959
479 1 3.14388 18.87 6.28912 -8.94966
480 1 4.71635 20.4424 7.86176 -8.94953
481 1 6.2881 18.8714 6.28819 -8.94973
482 1 7.86116 20.4433 7.86128 -8.95007
483 1 9.43431 18.8709 6.2886 -8.94979
484 1 11.0072 20.4428 7.8615 -8.94956
485 1 12.5799 18.8704 6.28872 -8.94984
486 1 14.1525 20.4424 7.86156 -8.94957
487 1 15.725 18.87 6.28904 -8.94967
488 1 17.2971 20.4419 7.8619 -8.94964
489 1 18.8694 18.8696 6.28936 -8.94971
490 1 20.4416 20.4418 7.86197 -8.94961
491 1 -4.33764e-05 12.5794 9.43448 -8.95051
492 1 3.14201 12.5796 9.43439 -8.95203
493 1 6.2787 12.5795 9.43352 -9.01707
494 1 9.34458 12.6356 9.40622 -9.37613
495 1 12.6343 12.5811 9.4168 -9.2301
496 1 15.7368 12.5791 9.4342 -8.96523
497 1 18.872 12.5793 9.43445 -8.9529
498 1 22.0136 15.7248 9.43449 -8.94965
499 1 3.14306 15.7253 9.43444 -8.94938
500 1 6.28619 15.7273 9.43428 -8.94923
56 1 9.43448 22.0141 3.14433 -8.9496
52 1 3.14438 22.0142 3.14436 -8.94951
516 1 14.1559 11.0036 11.0107 -9.05488
519 1 1.57138 14.1523 11.0073 -8.95
520 1 4.71353 14.1535 11.0079 -8.95044
521 1 7.85215 14.1618 11.0155 -9.02678
529 1 11.0073 17.3077 11.0077 -8.96062
398 1 17.2973 11.0068 4.71653 -8.94961
1 1 -7.95586e-05 22.014 -0.0001083 -8.94948
5 1 6.2895 22.014 -0.000178428 -8.94962
399 1 20.4417 11.0068 4.71676 -8.94956
530 1 14.1525 17.2981 11.0068 -8.95076
532 1 20.4417 17.2972 11.0071 -8.94957
534 1 4.7164 20.4423 11.0072 -8.94949
11 1 15.7244 22.0139 -0.000116295 -8.94962
686 1 20.4416 20.4416 20.4415 -8.94953
685 1 18.8693 18.8693 18.8693 -8.9495
514 1 7.85834 11.0059 11.0136 -9.03276
684 1 17.2968 20.4416 20.4415 -8.94964
307 1 18.8693 22.0139 18.8693 -8.94953
683 1 15.7245 18.8693 18.8693 -8.94975
682 1 14.152 20.4416 20.4415 -8.94962
303 1 12.5795 22.0138 18.8693 -8.94961
301 1 9.43447 22.0138 18.8693 -8.94961
297 1 3.14457 22.014 18.8693 -8.94956
522 1 11.0072 14.1935 11.0247 -9.25755
523 1 14.1564 14.1547 11.0098 -8.99724
524 1 17.2996 14.153 11.008 -8.94835
525 1 20.4423 14.1522 11.0073 -8.94987
526 1 1.57171 17.2973 11.0072 -8.94954
527 1 4.71561 17.2982 11.0073 -8.94936
528 1 7.86004 17.301 11.0078 -8.95062
295 1 -5.7223e-05 22.014 18.8692 -8.94952
639 1 4.71683 11.0069 20.4414 -8.94963
531 1 17.2975 17.2974 11.0071 -8.94955
643 1 17.2971 11.0069 20.4417 -8.94959
256 1 15.7248 22.0139 15.7248 -8.94956
383 1 6.28943 18.8694 22.0135 -8.94965
535 1 7.86132 20.443 11.0072 -8.9499
536 1 11.0071 20.444 11.0072 -8.95234
537 1 14.1524 20.4422 11.007 -8.94951
377 1 18.8693 15.7244 22.0138 -8.94963
389 1 15.7245 18.8693 22.0137 -8.94966
681 1 12.5795 18.8693 18.8692 -8.94962
680 1 11.007 20.4416 20.4415 -8.94961
679 1 9.43451 18.8693 18.8692 -8.94962
543 1 11.008 11.0068 14.1628 -9.01707
678 1 7.862 20.4416 20.4414 -8.94962
677 1 6.28946 18.8693 18.8693 -8.94973
676 1 4.71703 20.4417 20.4415 -8.94964
547 1 22.0139 12.5794 12.5797 -8.94974
548 1 1.5719 14.152 14.1523 -8.94967
549 1 3.14352 12.5794 12.5799 -8.94985
550 1 4.71574 14.1524 14.1529 -8.94957
551 1 6.28631 12.5799 12.5809 -8.9496
552 1 7.8598 14.1532 14.1546 -8.95063
553 1 9.42784 12.5805 12.5831 -9.03276
554 1 11.0066 14.1496 14.1495 -8.99812
555 1 12.5911 12.5839 12.5908 -9.01827
556 1 14.1556 14.1542 14.1554 -8.9459
557 1 15.7278 12.5793 12.5804 -8.95243
558 1 17.2983 14.1523 14.1528 -8.95026
559 1 18.8705 12.5794 12.5799 -8.94984
560 1 20.4419 14.152 14.1523 -8.94975
561 1 -0.000160385 15.7247 12.5798 -8.94977
562 1 1.57181 17.2972 14.1524 -8.94962
563 1 3.1432 15.7252 12.5802 -8.94993
564 1 4.71564 17.2981 14.1532 -8.94862
565 1 6.28549 15.7279 12.5824 -8.94667
566 1 7.86083 17.2983 14.1532 -8.9488
567 1 9.43081 15.7278 12.5814 -8.9812
568 1 11.007 17.297 14.1516 -8.94971
569 1 12.5833 15.7271 12.5815 -8.982
570 1 14.1531 17.2982 14.153 -8.94905
571 1 15.7265 15.7257 12.5806 -8.94927
572 1 17.2976 17.2974 14.1525 -8.94941
573 1 18.8702 15.725 12.58 -8.94947
574 1 20.4417 17.2971 14.1523 -8.94957
575 1 22.0137 18.8695 12.5796 -8.94959
576 1 1.57205 20.4418 14.1521 -8.94962
577 1 3.14401 18.8698 12.5798 -8.94961
578 1 4.71647 20.4421 14.1524 -8.94963
579 1 6.28833 18.8708 12.5803 -8.94996
580 1 7.86144 20.4423 14.1527 -8.94939
581 1 9.43348 18.8717 12.5806 -8.94843
582 1 11.007 20.4419 14.1524 -8.94917
583 1 12.5807 18.8713 12.5806 -8.94842
584 1 14.1526 20.4421 14.1526 -8.94946
585 1 15.725 18.8698 12.5797 -8.95005
586 1 17.2971 20.4418 14.1521 -8.94973
587 1 18.8695 18.8695 12.5796 -8.94966
588 1 20.4416 20.4417 14.152 -8.94963
589 1 1.5722 11.0069 17.297 -8.9496
590 1 4.71665 11.0069 17.2973 -8.94955
675 1 3.14451 18.8694 18.8693 -8.94958
674 1 1.57222 20.4417 20.4415 -8.94954
673 1 22.0138 18.8693 18.8692 -8.94958
594 1 17.2975 11.0069 17.2974 -8.94956
595 1 20.4418 11.0069 17.2971 -8.94958
596 1 3.20522e-05 12.5794 15.7247 -8.94963
597 1 1.57216 14.1519 17.297 -8.9496
598 1 3.14419 12.5794 15.7248 -8.94955
599 1 4.71662 14.1521 17.2972 -8.94961
600 1 6.28854 12.5796 15.7255 -8.94932
601 1 7.86145 14.1524 17.2976 -8.94989
602 1 9.4336 12.5801 15.7266 -8.94857
603 1 11.007 14.1521 17.2968 -8.94812
604 1 12.5811 12.5803 15.728 -8.95103
605 1 14.1528 14.1526 17.298 -8.94982
606 1 15.7258 12.5796 15.7257 -8.94905
607 1 17.2974 14.1521 17.2973 -8.9496
608 1 18.8699 12.5795 15.7249 -8.94953
609 1 20.4417 14.152 17.297 -8.94959
610 1 22.0138 15.7245 15.7247 -8.94964
611 1 1.57214 17.2969 17.297 -8.9496
612 1 3.14415 15.7247 15.7249 -8.94959
613 1 4.71669 17.2972 17.2973 -8.94958
614 1 6.28863 15.7252 15.7256 -8.94957
615 1 7.86195 17.297 17.297 -8.95002
616 1 9.43467 15.7244 15.7244 -8.95101
617 1 11.007 17.2969 17.2968 -8.94943
618 1 12.5793 15.7243 15.7244 -8.95129
619 1 14.152 17.297 17.297 -8.9501
620 1 15.7256 15.7254 15.7256 -8.94848
621 1 17.2972 17.2972 17.2972 -8.9493
622 1 18.8697 15.7247 15.7248 -8.94968
623 1 20.4417 17.2969 17.297 -8.9496
624 1 -0.000127351 18.8694 15.7246 -8.94956
625 1 1.57214 20.4417 17.297 -8.94948
626 1 3.14416 18.8697 15.7249 -8.94929
627 1 4.71686 20.4418 17.2971 -8.94956
628 1 6.28904 18.8698 15.725 -8.94942
629 1 7.86195 20.4416 17.297 -8.9497
630 1 9.43451 18.8694 15.7246 -8.94985
631 1 11.007 20.4416 17.297 -8.94961
632 1 12.5795 18.8693 15.7246 -8.94983
633 1 14.152 20.4416 17.297 -8.94971
634 1 15.7249 18.8697 15.7249 -8.94941
635 1 17.297 20.4417 17.297 -8.94953
636 1 18.8694 18.8695 15.7246 -8.94954
637 1 20.4416 20.4417 17.2969 -8.94956
672 1 20.4416 17.2968 20.4415 -8.94961
671 1 18.8694 15.7245 18.8693 -8.94962
670 1 17.297 17.297 20.4415 -8.94955
669 1 15.7248 15.7247 18.8695 -8.94958
668 1 14.152 17.297 20.4414 -8.94965
667 1 12.5795 15.7246 18.8691 -8.94952
666 1 11.007 17.297 20.4413 -8.9496
645 1 22.0139 12.5794 18.8693 -8.9496
646 1 1.5722 14.1519 20.4415 -8.9496
647 1 3.14447 12.5794 18.8693 -8.9496
648 1 4.71682 14.152 20.4414 -8.94965
649 1 6.28918 12.5795 18.8694 -8.94964
650 1 7.86173 14.1522 20.4413 -8.94981
651 1 9.4343 12.5797 18.8696 -8.94982
652 1 11.007 14.1522 20.4412 -8.94939
653 1 12.5798 12.5797 18.87 -8.95023
654 1 14.1523 14.1523 20.4415 -8.94982
655 1 15.7249 12.5796 18.8697 -8.94951
656 1 17.2971 14.152 20.4416 -8.94958
657 1 18.8694 12.5795 18.8694 -8.9496
658 1 20.4416 14.1519 20.4415 -8.9496
659 1 -4.13565e-05 15.7244 18.8693 -8.9496
660 1 1.57219 17.2969 20.4415 -8.9496
661 1 3.14447 15.7245 18.8693 -8.94962
662 1 4.71687 17.297 20.4414 -8.94965
663 1 6.28922 15.7247 18.8694 -8.9497
664 1 7.86196 17.297 20.4413 -8.94967
665 1 9.43448 15.7246 18.869 -8.94957
197 1 -9.14715e-05 22.0141 12.5795 -8.94961
199 1 3.14434 22.0142 12.5796 -8.94958
203 1 9.43422 22.0143 12.58 -8.94982
205 1 12.5799 22.0142 12.58 -8.94989
209 1 18.8694 22.014 12.5795 -8.94961
250 1 6.28918 22.014 15.7248 -8.94955
351 1 22.0138 12.5794 22.0138 -8.9496
355 1 6.28915 12.5795 22.0133 -8.94971
367 1 3.1444 15.7245 22.0135 -8.94961
371 1 9.43442 15.7247 22.0133 -8.94962
373 1 12.5796 15.7247 22.0134 -8.94957
361 1 15.7247 12.5795 22.0137 -8.94956
379 1 22.0138 18.8693 22.0137 -8.94958
533 1 1.57201 20.4419 11.0071 -8.94959
