ITEM: TIMESTEP
56
ITEM: NUMBER OF ATOMS
688
ITEM: BOX BOUNDS pp pp pp
0.0000000000000000e+00 2.2013900999999997e+01
0.0000000000000000e+00 2.2013900999999997e+01
0.0000000000000000e+00 2.2013900999999997e+01
ITEM: ATOMS id type x y z c_pot
513 1 4.7158 11.0064 11.0076 -8.94901
2 1 1.57242 1.57242 1.57242 -8.94963
175 1 18.8692 9.43453 9.43454 -8.94973
4 1 4.71726 1.57242 1.57242 -8.94964
512 1 1.57222 11.0069 11.007 -8.94985
6 1 7.86211 1.57242 1.57242 -8.94963
448 1 20.4416 11.0069 7.86205 -8.94973
8 1 11.007 1.57242 1.57242 -8.94963
447 1 17.2975 11.0064 7.86156 -8.94859
10 1 14.1518 1.57242 1.57242 -8.94964
174 1 15.7251 9.43449 9.43475 -8.95101
12 1 17.2966 1.57242 1.57242 -8.94963
445 1 11.0277 11.003 7.80811 -9.2411
14 1 20.4415 1.57242 1.57242 -8.94963
151 1 9.43448 9.65544e-05 9.43449 -8.9501
16 1 1.57242 4.71726 1.57242 -8.94962
17 1 3.14484 3.14484 -8.04577e-07 -8.94963
18 1 4.71726 4.71726 1.57241 -8.94962
443 1 4.71561 11.0064 7.86141 -8.94988
20 1 7.86211 4.71726 1.57242 -8.94965
21 1 9.43453 3.14484 -6.08883e-07 -8.94963
22 1 11.007 4.71726 1.57241 -8.94963
23 1 12.5794 3.14484 -8.43933e-07 -8.94963
24 1 14.1518 4.71726 1.57242 -8.94969
442 1 1.57222 11.0069 7.86207 -8.94994
26 1 17.2966 4.71726 1.57241 -8.94959
27 1 18.8691 3.14484 -6.5393e-07 -8.94963
28 1 20.4415 4.71726 1.57242 -8.94963
29 1 -1.44474e-07 6.28969 1.52834e-07 -8.94964
30 1 1.57242 7.86211 1.57242 -8.94965
193 1 11.0088 7.85401 11.0084 -9.01558
32 1 4.71725 7.8621 1.5724 -8.94967
33 1 6.28967 6.28967 -2.01603e-05 -8.94961
34 1 7.86202 7.862 1.57225 -8.94957
192 1 7.85887 7.8592 11.0108 -8.98122
36 1 11.0069 7.86208 1.57236 -8.94952
191 1 4.71701 7.86217 11.0068 -8.95088
38 1 14.1519 7.86199 1.57225 -8.94953
39 1 15.7242 6.28967 -2.0723e-05 -8.9496
40 1 17.2966 7.86212 1.57243 -8.9497
190 1 1.57241 7.8621 11.0069 -8.94968
42 1 20.4415 7.86211 1.57242 -8.94964
349 1 17.2966 11.007 1.57242 -8.94963
44 1 3.14484 9.43453 -1.42762e-06 -8.94963
345 1 4.71724 11.007 1.57239 -8.94959
688 2 10.2262 11.0125 9.43385 0.698604
47 1 12.5794 9.43448 -0.000124018 -8.94978
48 1 15.7242 9.43454 1.17013e-05 -8.94964
49 1 18.8691 9.43453 1.22844e-07 -8.94963
50 1 22.0139 1.68738e-08 3.14484 -8.94964
51 1 1.57242 1.57242 4.71727 -8.94964
173 1 12.5841 9.43079 9.43327 -9.03708
53 1 4.71725 1.57241 4.71725 -8.9496
54 1 6.28969 2.77063e-06 3.14484 -8.94964
55 1 7.86211 1.57242 4.71726 -8.94965
172 1 9.412 9.38683 9.43334 -9.26519
57 1 11.0069 1.57242 4.71726 -8.94964
171 1 6.29021 9.43598 9.43475 -9.00147
59 1 14.1518 1.57241 4.71725 -8.94963
60 1 15.7242 2.61187e-06 3.14484 -8.94963
61 1 17.2966 1.57242 4.71726 -8.94963
170 1 3.14479 9.43449 9.43454 -8.94899
63 1 20.4415 1.57242 4.71726 -8.94963
64 1 4.39042e-07 3.14484 3.14484 -8.94964
65 1 1.57242 4.71727 4.71727 -8.94966
66 1 3.14484 3.14483 3.14484 -8.9496
67 1 4.71718 4.71717 4.71719 -8.94936
68 1 6.28969 3.14484 3.14484 -8.94968
69 1 7.86213 4.71724 4.71722 -8.9499
70 1 9.43453 3.14483 3.14483 -8.94962
71 1 11.0069 4.71721 4.71718 -8.94956
72 1 12.5794 3.14484 3.14484 -8.94964
73 1 14.1519 4.71713 4.71719 -8.94964
74 1 15.7242 3.14483 3.14483 -8.94962
75 1 17.2967 4.71724 4.71724 -8.94959
76 1 18.8691 3.14484 3.14484 -8.94963
77 1 20.4415 4.71726 4.71726 -8.94964
78 1 22.0139 6.28968 3.14484 -8.94962
79 1 1.57237 7.86208 4.71723 -8.94959
80 1 3.14482 6.28966 3.14482 -8.94956
81 1 4.71702 7.86191 4.71707 -8.94908
82 1 6.28961 6.28961 3.14472 -8.94957
83 1 7.86168 7.86169 4.71641 -8.94987
84 1 9.43454 6.2896 3.1448 -8.94961
85 1 11.0067 7.86203 4.71694 -8.94986
86 1 12.5793 6.28965 3.14483 -8.9499
87 1 14.1526 7.86131 4.71646 -8.94762
88 1 15.7243 6.28959 3.14473 -8.9493
89 1 17.2968 7.86204 4.71719 -8.94953
90 1 18.8691 6.28968 3.14484 -8.94962
91 1 20.4415 7.86209 4.71725 -8.94962
92 1 -2.17783e-06 9.43453 3.14484 -8.94963
93 1 3.14484 9.43453 3.14483 -8.94969
94 1 6.28957 9.43452 3.14464 -8.95004
95 1 9.43402 9.43398 3.14398 -8.94836
96 1 12.5799 9.43393 3.14379 -8.94921
97 1 15.7242 9.43459 3.14485 -8.94998
98 1 18.869 9.43454 3.14485 -8.94967
169 1 7.09162e-07 9.43452 9.43453 -8.94959
100 1 1.57242 1.57242 7.86211 -8.94963
101 1 3.14484 1.95389e-07 6.28969 -8.94964
102 1 4.71727 1.57243 7.86212 -8.94963
168 1 18.8691 6.28966 9.43453 -8.9496
104 1 7.86204 1.57232 7.86205 -8.94975
105 1 9.43453 1.92022e-05 6.28967 -8.94965
106 1 11.007 1.57233 7.86205 -8.94965
107 1 12.5794 1.63685e-05 6.28966 -8.94969
108 1 14.1518 1.57241 7.86209 -8.94969
167 1 15.7245 6.2895 9.43453 -8.94915
110 1 17.2966 1.57242 7.86211 -8.94963
111 1 18.8691 -2.02716e-07 6.28969 -8.94964
112 1 20.4415 1.57242 7.86211 -8.94963
113 1 22.0139 3.14484 6.28969 -8.94963
114 1 1.57242 4.71726 7.86211 -8.94962
115 1 3.14485 3.14486 6.2897 -8.94968
116 1 4.71726 4.71733 7.86217 -8.94982
117 1 6.28958 3.14469 6.28958 -8.94952
118 1 7.86152 4.71633 7.86154 -8.94899
119 1 9.43454 3.1448 6.28966 -8.94959
120 1 11.0074 4.71654 7.86165 -8.94831
121 1 12.5794 3.14469 6.2896 -8.94963
122 1 14.152 4.71696 7.86202 -8.94981
123 1 15.7242 3.1448 6.28966 -8.94963
124 1 17.2967 4.71725 7.8621 -8.94965
125 1 18.8691 3.14484 6.28969 -8.94964
126 1 20.4415 4.71726 7.86211 -8.94963
127 1 3.68809e-06 6.28969 6.28969 -8.94965
128 1 1.57241 7.86211 7.86213 -8.94968
129 1 3.14481 6.28969 6.2897 -8.94987
130 1 4.71704 7.86221 7.86226 -8.95116
131 1 6.28903 6.28899 6.28902 -8.9481
132 1 7.85853 7.85871 7.85785 -8.98154
133 1 9.43471 6.28936 6.28967 -8.9505
134 1 11.0088 7.86088 7.8609 -9.00296
135 1 12.5797 6.28881 6.28931 -8.95058
136 1 14.1531 7.86058 7.86163 -8.94955
137 1 15.7244 6.28946 6.28951 -8.94938
138 1 17.2968 7.86201 7.8621 -8.95001
139 1 18.8691 6.28967 6.28968 -8.94967
140 1 20.4415 7.8621 7.86211 -8.94967
141 1 22.0139 9.43451 6.28966 -8.9497
142 1 3.1445 9.43438 6.2895 -8.94965
143 1 6.28798 9.43363 6.2882 -8.94714
144 1 9.43209 9.43227 6.28779 -8.99954
145 1 12.5833 9.42934 6.28549 -8.97926
146 1 15.7251 9.43396 6.28915 -8.94928
147 1 18.8692 9.43444 6.28958 -8.94959
148 1 8.9396e-08 -2.62304e-08 9.43453 -8.94963
166 1 12.5799 6.28847 9.4341 -8.94926
150 1 6.28967 4.22293e-06 9.43453 -8.94959
165 1 9.43391 6.28137 9.43412 -8.96195
152 1 12.5794 9.59974e-05 9.43449 -8.94965
153 1 15.7242 5.43253e-07 9.43453 -8.94964
164 1 6.28981 6.2899 9.43455 -8.94971
155 1 -9.00673e-08 3.14484 9.43453 -8.94963
156 1 3.14484 3.14484 9.43453 -8.94964
157 1 6.28966 3.14485 9.43453 -8.9494
158 1 9.43449 3.14385 9.43449 -8.95186
159 1 12.5794 3.14465 9.43449 -8.9497
160 1 15.7242 3.14481 9.43453 -8.9496
161 1 18.8691 3.14484 9.43453 -8.94964
162 1 22.0139 6.28968 9.43453 -8.94964
163 1 3.14484 6.28966 9.43453 -8.94946
344 1 1.57242 11.007 1.57242 -8.94964
350 1 20.4415 11.0069 1.57242 -8.94963
181 1 17.2966 1.57242 11.007 -8.94963
188 1 17.2967 4.71724 11.007 -8.94964
177 1 4.71726 1.57243 11.0069 -8.94963
184 1 4.71726 4.71732 11.0069 -8.9498
189 1 20.4415 4.71726 11.007 -8.94963
644 1 20.4415 11.007 20.4415 -8.94963
3 1 3.14484 3.83137e-09 22.0139 -8.94963
178 1 7.86205 1.57232 11.007 -8.9497
179 1 11.007 1.57232 11.007 -8.9501
180 1 14.1518 1.5724 11.007 -8.94965
46 1 9.43448 9.43447 22.0138 -8.94969
182 1 20.4415 1.57242 11.007 -8.94963
183 1 1.57242 4.71726 11.0069 -8.94962
252 1 9.43454 -1.02444e-05 15.7242 -8.94963
185 1 7.86158 4.71643 11.0074 -8.94895
186 1 11.0074 4.71575 11.0074 -8.95038
187 1 14.1519 4.71704 11.007 -8.94979
642 1 14.1518 11.0069 20.4415 -8.94963
254 1 12.5794 -1.01333e-05 15.7242 -8.94963
641 1 11.0069 11.0069 20.4415 -8.95012
640 1 7.8621 11.0069 20.4415 -8.94968
45 1 6.28968 9.43453 22.0139 -8.94969
638 1 1.57242 11.007 20.4415 -8.94963
194 1 14.1529 7.86092 11.007 -8.94913
195 1 17.2969 7.86195 11.007 -8.94977
196 1 20.4415 7.8621 11.0069 -8.94968
343 1 18.8691 9.43453 18.8691 -8.94964
198 1 1.57242 1.57242 14.1518 -8.94964
342 1 15.7242 9.43452 18.8691 -8.94961
200 1 4.71725 1.57241 14.1518 -8.94961
201 1 6.28967 -2.47424e-06 12.5794 -8.94965
202 1 7.8621 1.57242 14.1518 -8.94965
341 1 12.5794 9.43448 18.8692 -8.94981
204 1 11.0069 1.57242 14.1518 -8.94959
340 1 9.43449 9.43447 18.8692 -8.9497
206 1 14.1518 1.5724 14.1518 -8.94964
207 1 15.7242 -3.17207e-06 12.5794 -8.94965
208 1 17.2966 1.57242 14.1518 -8.94964
339 1 6.28966 9.43451 18.8691 -8.94966
210 1 20.4415 1.57242 14.1518 -8.94963
211 1 22.0139 3.14484 12.5794 -8.94963
212 1 1.57242 4.71726 14.1518 -8.94966
213 1 3.14485 3.14485 12.5794 -8.94968
214 1 4.71719 4.71718 14.1519 -8.94942
215 1 6.28959 3.14471 12.5795 -8.94954
216 1 7.86205 4.71713 14.1519 -8.94981
217 1 9.43449 3.14471 12.5794 -8.94965
218 1 11.0069 4.71721 14.1519 -8.94943
219 1 12.5795 3.14459 12.5795 -8.94972
220 1 14.1519 4.717 14.152 -8.94959
221 1 15.7242 3.14482 12.5794 -8.94964
222 1 17.2967 4.71725 14.1518 -8.94964
223 1 18.8691 3.14484 12.5794 -8.94964
224 1 20.4415 4.71726 14.1518 -8.94963
225 1 4.05826e-06 6.28969 12.5794 -8.94965
226 1 1.57237 7.86208 14.1518 -8.9496
227 1 3.14481 6.28969 12.5794 -8.94983
228 1 4.717 7.86192 14.152 -8.94935
229 1 6.28906 6.28909 12.58 -8.94835
230 1 7.86111 7.86113 14.1532 -8.94847
231 1 9.43422 6.28869 12.5798 -8.94984
232 1 11.0067 7.86211 14.1521 -8.95031
233 1 12.5801 6.28806 12.5801 -8.95015
234 1 14.1533 7.8606 14.1533 -8.94576
235 1 15.7244 6.28955 12.5795 -8.94956
236 1 17.2968 7.86206 14.1518 -8.94985
237 1 18.8691 6.28966 12.5794 -8.94963
238 1 20.4415 7.8621 14.1518 -8.94963
239 1 22.0139 9.43451 12.5794 -8.94969
240 1 3.14449 9.43439 12.5795 -8.9497
241 1 6.28787 9.43398 12.5805 -8.94944
242 1 9.42802 9.42994 12.584 -9.03039
243 1 12.5882 9.42621 12.5869 -9.00615
244 1 15.7253 9.43434 12.5796 -8.95184
245 1 18.8692 9.43446 12.5794 -8.94966
246 1 22.0139 4.68167e-09 15.7242 -8.94964
247 1 1.57242 1.57242 17.2966 -8.94963
248 1 3.14484 1.4784e-11 15.7242 -8.94963
249 1 4.71726 1.57242 17.2966 -8.94963
338 1 3.14484 9.43453 18.8691 -8.94964
251 1 7.86211 1.57242 17.2966 -8.94963
337 1 22.0139 9.43453 18.8691 -8.94963
253 1 11.007 1.57242 17.2966 -8.94964
336 1 20.4415 7.86211 20.4415 -8.94963
255 1 14.1518 1.57242 17.2966 -8.94964
335 1 18.8691 6.28969 18.8691 -8.94964
257 1 17.2966 1.57242 17.2966 -8.94962
258 1 18.8691 -9.18019e-08 15.7242 -8.94964
259 1 20.4415 1.57242 17.2966 -8.94963
260 1 4.60735e-07 3.14484 15.7242 -8.94963
261 1 1.57242 4.71726 17.2966 -8.94963
262 1 3.14484 3.14484 15.7242 -8.94961
263 1 4.71725 4.71725 17.2967 -8.94958
264 1 6.28968 3.14483 15.7242 -8.94966
265 1 7.86212 4.71727 17.2966 -8.94968
266 1 9.43453 3.14484 15.7242 -8.94962
267 1 11.007 4.71725 17.2966 -8.94964
268 1 12.5794 3.14485 15.7242 -8.94964
269 1 14.1518 4.71727 17.2966 -8.94972
270 1 15.7242 3.14481 15.7242 -8.9496
271 1 17.2967 4.71725 17.2967 -8.94955
272 1 18.8691 3.14484 15.7242 -8.94964
273 1 20.4415 4.71726 17.2966 -8.94963
274 1 22.0139 6.28968 15.7242 -8.94962
275 1 1.57242 7.8621 17.2966 -8.94964
276 1 3.14481 6.28966 15.7242 -8.94958
277 1 4.71723 7.86208 17.2967 -8.9496
278 1 6.28954 6.28953 15.7244 -8.94932
279 1 7.86204 7.86202 17.2968 -8.94976
280 1 9.43458 6.28964 15.7243 -8.94968
281 1 11.0069 7.86206 17.2967 -8.94943
282 1 12.5793 6.28969 15.7242 -8.94998
283 1 14.1519 7.862 17.2968 -8.94975
284 1 15.7244 6.28948 15.7244 -8.94898
285 1 17.2966 7.8621 17.2966 -8.94963
286 1 18.8691 6.28968 15.7242 -8.94965
287 1 20.4415 7.86211 17.2966 -8.94963
288 1 -1.83118e-06 9.43453 15.7242 -8.94964
289 1 3.1448 9.43451 15.7242 -8.94966
290 1 6.28943 9.43437 15.7246 -8.94954
291 1 9.43414 9.43414 15.7252 -8.94952
292 1 12.5798 9.43409 15.7255 -8.95057
293 1 15.7244 9.43445 15.7243 -8.94947
294 1 18.8691 9.43452 15.7242 -8.94963
334 1 17.2966 7.86211 20.4415 -8.94963
296 1 1.57242 1.57242 20.4415 -8.94963
333 1 15.7242 6.28967 18.8691 -8.94963
298 1 4.71726 1.57242 20.4415 -8.94964
299 1 6.28969 -1.45847e-06 18.8691 -8.94964
300 1 7.86211 1.57242 20.4415 -8.94963
332 1 14.1518 7.86209 20.4415 -8.94967
302 1 11.007 1.57242 20.4415 -8.94963
331 1 12.5794 6.28968 18.8691 -8.94962
304 1 14.1518 1.57242 20.4415 -8.94963
305 1 15.7242 -1.4185e-06 18.8691 -8.94964
306 1 17.2966 1.57242 20.4415 -8.94964
330 1 11.007 7.8621 20.4415 -8.94961
308 1 20.4415 1.57242 20.4415 -8.94963
309 1 22.0139 3.14484 18.8691 -8.94963
310 1 1.57242 4.71726 20.4415 -8.94963
311 1 3.14484 3.14484 18.8691 -8.94963
312 1 4.71726 4.71726 20.4415 -8.94963
313 1 6.28969 3.14484 18.8691 -8.94964
314 1 7.86211 4.71727 20.4415 -8.94964
315 1 9.43453 3.14484 18.8691 -8.94963
316 1 11.007 4.71726 20.4415 -8.94964
317 1 12.5794 3.14484 18.8691 -8.94963
318 1 14.1518 4.71727 20.4415 -8.94964
319 1 15.7242 3.14484 18.8691 -8.94965
320 1 17.2966 4.71726 20.4415 -8.94962
321 1 18.8691 3.14484 18.8691 -8.94962
322 1 20.4415 4.71726 20.4415 -8.94963
323 1 -1.43491e-07 6.28969 18.8691 -8.94963
324 1 1.57242 7.86211 20.4415 -8.94963
325 1 3.14484 6.28968 18.8691 -8.94963
326 1 4.71726 7.8621 20.4415 -8.94964
327 1 6.28968 6.28967 18.8691 -8.94964
328 1 7.86209 7.86209 20.4415 -8.94966
329 1 9.43453 6.28968 18.8691 -8.94963
593 1 14.1519 11.0069 17.2969 -8.94957
592 1 11.0069 11.0069 17.2977 -8.95155
515 1 11.03 10.9582 11.082 -9.38535
517 1 17.2973 11.0065 11.0074 -8.9477
518 1 20.4416 11.0069 11.007 -8.94964
540 1 1.57237 11.007 14.1518 -8.94965
541 1 4.71692 11.0069 14.1521 -8.94949
542 1 7.86107 11.0067 14.1536 -8.94974
544 1 14.1527 11.0067 14.1529 -8.9487
545 1 17.2968 11.0069 14.1519 -8.94972
546 1 20.4415 11.007 14.1518 -8.94968
591 1 7.86202 11.0069 17.2969 -8.94986
7 1 9.43453 4.28418e-08 22.0139 -8.94963
9 1 12.5794 3.03848e-08 22.0139 -8.94963
13 1 18.8691 3.04995e-08 22.0139 -8.94963
19 1 6.28969 3.14484 22.0139 -8.94964
25 1 15.7242 3.14484 22.0139 -8.94964
31 1 3.14484 6.28968 22.0139 -8.94963
35 1 9.43453 6.28968 22.0139 -8.94963
37 1 12.5794 6.28968 22.0139 -8.94963
41 1 18.8691 6.28969 22.0139 -8.94964
43 1 22.0139 9.43453 22.0139 -8.94963
15 1 22.0139 3.14484 22.0139 -8.94963
176 1 1.57242 1.57242 11.007 -8.94963
687 2 11.0076 12.5738 10.2153 0.698604
511 1 18.8691 18.8691 9.43453 -8.94963
346 1 7.8621 11.007 1.57231 -8.94975
347 1 11.0069 11.007 1.5714 -8.95214
348 1 14.1518 11.007 1.57241 -8.94947
510 1 15.7243 18.8691 9.43455 -8.94956
539 1 20.4415 20.4415 11.007 -8.94963
154 1 18.8691 22.0139 9.43453 -8.94963
352 1 1.57242 14.1518 1.57242 -8.94964
353 1 3.14484 12.5794 -1.53076e-06 -8.94963
354 1 4.71724 14.1518 1.57239 -8.94963
538 1 17.2966 20.4415 11.007 -8.94962
356 1 7.86203 14.1519 1.57226 -8.94966
357 1 9.43448 12.5794 -9.85724e-05 -8.94964
358 1 11.0069 14.1518 1.5723 -8.94973
359 1 12.5794 12.5794 -0.000105707 -8.94973
360 1 14.1519 14.1519 1.57227 -8.94959
393 1 1.5724 11.007 4.71725 -8.9496
362 1 17.2966 14.1518 1.57243 -8.94967
363 1 18.8691 12.5794 -5.31856e-07 -8.94963
364 1 20.4415 14.1518 1.57242 -8.94963
365 1 -1.23501e-07 15.7242 -8.35994e-08 -8.94963
366 1 1.57242 17.2966 1.57242 -8.94964
149 1 3.14484 22.0139 9.43453 -8.94964
368 1 4.71726 17.2966 1.57241 -8.94965
369 1 6.28967 15.7242 -1.42447e-05 -8.94963
370 1 7.86209 17.2967 1.57239 -8.94963
109 1 15.7242 22.0139 6.28967 -8.94963
372 1 11.007 17.2967 1.57238 -8.9496
103 1 6.28966 22.0139 6.28966 -8.94964
374 1 14.1518 17.2967 1.57239 -8.94967
375 1 15.7242 15.7242 -1.36381e-05 -8.94962
376 1 17.2966 17.2966 1.57241 -8.94962
99 1 -6.33181e-08 22.0139 6.28969 -8.94963
378 1 20.4415 17.2966 1.57242 -8.94964
394 1 4.71714 11.007 4.71709 -8.94938
380 1 1.57242 20.4415 1.57242 -8.94962
381 1 3.14484 18.8691 -6.27996e-07 -8.94963
382 1 4.71726 20.4415 1.57242 -8.94964
62 1 18.8691 22.0139 3.14484 -8.94963
384 1 7.86211 20.4415 1.57242 -8.94964
385 1 9.43453 18.8691 -2.65391e-06 -8.94963
386 1 11.007 20.4415 1.57242 -8.94964
387 1 12.5794 18.8691 -3.25345e-06 -8.94963
388 1 14.1518 20.4415 1.57242 -8.94964
58 1 12.5794 22.0139 3.14484 -8.94963
390 1 17.2966 20.4415 1.57242 -8.94963
391 1 18.8691 18.8691 -1.48172e-07 -8.94963
392 1 20.4415 20.4415 1.57242 -8.94963
509 1 12.5798 18.8698 9.43409 -8.94831
508 1 9.43409 18.8706 9.4341 -8.95038
395 1 7.86214 11.0071 4.71638 -8.95194
396 1 11.0071 11.0068 4.70843 -8.96463
397 1 14.1515 11.0071 4.71715 -8.95103
507 1 6.28959 18.8691 9.43456 -8.94943
506 1 3.14483 18.8691 9.43453 -8.94964
400 1 -1.92002e-06 12.5794 3.14484 -8.94964
401 1 1.5724 14.1518 4.71725 -8.94961
402 1 3.14483 12.5794 3.14483 -8.94965
403 1 4.71714 14.1519 4.71712 -8.94947
404 1 6.28954 12.5794 3.14464 -8.94972
405 1 7.86193 14.152 4.71618 -8.95184
406 1 9.43405 12.5798 3.14414 -8.9477
407 1 11.0067 14.1518 4.71638 -8.95101
408 1 12.5799 12.5799 3.14395 -8.94859
409 1 14.1523 14.1524 4.71634 -8.94928
410 1 15.7242 12.5793 3.14489 -8.94963
411 1 17.2966 14.1517 4.71726 -8.94998
412 1 18.8691 12.5794 3.14484 -8.94963
413 1 20.4415 14.1518 4.71726 -8.94964
414 1 22.0139 15.7242 3.14484 -8.94963
415 1 1.5724 17.2967 4.71725 -8.94963
416 1 3.14483 15.7242 3.14483 -8.94963
417 1 4.71706 17.2968 4.71708 -8.94898
418 1 6.28963 15.7243 3.14467 -8.94985
419 1 7.86201 17.2968 4.71707 -8.94956
420 1 9.43451 15.7244 3.1446 -8.94977
421 1 11.0069 17.2968 4.71702 -8.94915
422 1 12.5794 15.7243 3.14465 -8.95001
423 1 14.152 17.2969 4.71705 -8.94938
424 1 15.7243 15.7243 3.14471 -8.94953
425 1 17.2968 17.2967 4.71716 -8.9493
426 1 18.869 15.7242 3.14485 -8.9497
427 1 20.4415 17.2967 4.71725 -8.9496
428 1 1.56415e-09 18.8691 3.14484 -8.94962
429 1 1.57242 20.4415 4.71727 -8.94965
430 1 3.14482 18.8691 3.14483 -8.94955
431 1 4.71724 20.4415 4.71724 -8.9496
432 1 6.28967 18.8691 3.14482 -8.94964
433 1 7.8621 20.4415 4.71724 -8.94964
434 1 9.43452 18.8691 3.14482 -8.94964
435 1 11.0069 20.4415 4.71724 -8.9496
436 1 12.5794 18.8691 3.14482 -8.94965
437 1 14.1518 20.4415 4.71723 -8.94963
438 1 15.7242 18.8691 3.14482 -8.94959
439 1 17.2966 20.4415 4.71726 -8.94962
440 1 18.8691 18.8691 3.14483 -8.94959
441 1 20.4415 20.4415 4.71727 -8.94964
505 1 -9.20713e-08 18.8691 9.43453 -8.94964
504 1 18.8691 15.7242 9.43454 -8.94952
444 1 7.85512 11.0033 7.85516 -9.01669
503 1 15.7245 15.7243 9.43474 -8.94986
446 1 14.1544 11.0027 7.85959 -9.03317
502 1 12.5806 15.7254 9.43268 -9.00296
501 1 9.43311 15.7323 9.43269 -9.01558
449 1 22.0139 12.5794 6.28967 -8.94963
450 1 1.57228 14.1518 7.86206 -8.94981
451 1 3.14462 12.5794 6.28958 -8.94957
452 1 4.71602 14.1522 7.86165 -8.95057
453 1 6.28857 12.5796 6.28878 -8.9487
454 1 7.85455 14.1601 7.85328 -9.00615
455 1 9.43355 12.5807 6.28939 -9.05336
456 1 11.0082 14.1555 7.85739 -9.03708
457 1 12.5819 12.5837 6.28707 -9.03317
458 1 14.156 14.157 7.85815 -8.97926
459 1 15.7243 12.5793 6.28993 -8.95103
460 1 17.2977 14.1524 7.86154 -8.94921
461 1 18.8691 12.5794 6.28966 -8.94947
462 1 20.4416 14.1518 7.86205 -8.94978
463 1 3.72137e-07 15.7242 6.28967 -8.94967
464 1 1.57242 17.2966 7.86211 -8.94962
465 1 3.14464 15.7243 6.28959 -8.94975
466 1 4.71724 17.2966 7.86218 -8.94998
467 1 6.2882 15.7257 6.28818 -8.94576
468 1 7.86134 17.2983 7.86134 -8.95015
469 1 9.4345 15.7254 6.28854 -8.94913
470 1 11.0074 17.2978 7.8616 -8.94926
471 1 12.5799 15.7257 6.28838 -8.94955
472 1 14.1522 17.2975 7.86182 -8.95058
473 1 15.725 15.725 6.2889 -8.94762
474 1 17.2967 17.2967 7.86214 -8.9499
475 1 18.8692 15.7243 6.28957 -8.94953
476 1 20.4415 17.2966 7.86211 -8.94963
477 1 22.0139 18.8691 6.28969 -8.94964
478 1 1.57242 20.4415 7.86211 -8.94963
479 1 3.14485 18.8691 6.2897 -8.94972
480 1 4.71726 20.4415 7.86212 -8.94964
481 1 6.28953 18.8693 6.28953 -8.94959
482 1 7.86198 20.4417 7.86199 -8.94972
483 1 9.43453 18.8693 6.28955 -8.94979
484 1 11.007 20.4417 7.86205 -8.9497
485 1 12.5795 18.8694 6.28949 -8.94981
486 1 14.1519 20.4416 7.86204 -8.94963
487 1 15.7243 18.8692 6.28962 -8.94964
488 1 17.2966 20.4415 7.86211 -8.94964
489 1 18.8691 18.8691 6.28969 -8.94969
490 1 20.4415 20.4415 7.86211 -8.94963
491 1 -8.41567e-06 12.5794 9.43453 -8.95012
492 1 3.1438 12.5794 9.43454 -8.95155
493 1 6.28177 12.5782 9.43438 -9.01351
494 1 9.35944 12.6282 9.41143 -9.38535
495 1 12.6334 12.5833 9.41378 -9.2411
496 1 15.7331 12.5795 9.43438 -8.96463
497 1 18.8701 12.5794 9.43454 -8.95214
498 1 22.0139 15.7242 9.43453 -8.94961
499 1 3.14477 15.7243 9.43454 -8.94943
500 1 6.28939 15.7242 9.43477 -8.95031
56 1 9.43453 22.0139 3.14484 -8.94963
52 1 3.14484 22.0139 3.14484 -8.94962
516 1 14.1521 11.0056 11.0079 -9.05336
519 1 1.5723 14.1519 11.007 -8.9497
520 1 4.71627 14.1522 11.0073 -8.94952
521 1 7.85749 14.1564 11.0135 -9.03039
529 1 11.0074 17.3049 11.0076 -8.96195
398 1 17.2966 11.007 4.71724 -8.94963
1 1 -4.65639e-08 22.0139 -9.24419e-08 -8.94963
5 1 6.28969 22.0139 -2.03821e-07 -8.94963
399 1 20.4415 11.007 4.71726 -8.94962
530 1 14.1518 17.297 11.0068 -8.9505
532 1 20.4415 17.2966 11.0069 -8.94963
534 1 4.71726 20.4415 11.0069 -8.94962
11 1 15.7242 22.0139 -1.33167e-07 -8.94963
686 1 20.4415 20.4415 20.4415 -8.94963
685 1 18.8691 18.8691 18.8691 -8.94962
514 1 7.85756 11.006 11.0127 -9.03531
684 1 17.2966 20.4415 20.4415 -8.94964
307 1 18.8691 22.0139 18.8691 -8.94963
683 1 15.7242 18.8691 18.8691 -8.94966
682 1 14.1518 20.4415 20.4415 -8.94963
303 1 12.5794 22.0139 18.8691 -8.94963
301 1 9.43453 22.0139 18.8691 -8.94963
297 1 3.14484 22.0139 18.8691 -8.94963
522 1 11.0081 14.1995 11.0295 -9.26519
523 1 14.1537 14.1541 11.0094 -8.99954
524 1 17.2975 14.1523 11.0075 -8.94836
525 1 20.4416 14.1519 11.007 -8.94969
526 1 1.57242 17.2966 11.0069 -8.94963
527 1 4.71721 17.2967 11.0069 -8.94968
528 1 7.86171 17.2976 11.0073 -8.94984
295 1 -3.61354e-08 22.0139 18.8691 -8.94963
639 1 4.71726 11.007 20.4415 -8.94964
531 1 17.2967 17.2967 11.0069 -8.94961
643 1 17.2966 11.007 20.4415 -8.94964
256 1 15.7242 22.0139 15.7242 -8.9496
383 1 6.28968 18.8691 22.0139 -8.94963
535 1 7.86204 20.4416 11.007 -8.94965
536 1 11.007 20.4425 11.007 -8.95186
537 1 14.1518 20.4415 11.0069 -8.94959
377 1 18.8691 15.7242 22.0139 -8.94964
389 1 15.7242 18.8691 22.0139 -8.94964
681 1 12.5794 18.8691 18.8691 -8.94962
680 1 11.007 20.4415 20.4415 -8.94963
679 1 9.43453 18.8691 18.8691 -8.94962
543 1 11.0071 11.0082 14.1597 -9.01351
678 1 7.86211 20.4415 20.4415 -8.94963
677 1 6.28969 18.8691 18.8691 -8.94966
676 1 4.71726 20.4415 20.4415 -8.94963
547 1 22.0139 12.5794 12.5794 -8.94968
548 1 1.57237 14.1518 14.1518 -8.94966
549 1 3.14453 12.5794 12.5795 -8.94986
550 1 4.71693 14.1519 14.152 -8.94954
551 1 6.28783 12.5797 12.5804 -8.94974
552 1 7.86095 14.1523 14.1536 -8.94944
553 1 9.42878 12.5803 12.5839 -9.03531
554 1 11.0067 14.1503 14.1513 -9.00147
555 1 12.5863 12.583 12.5864 -9.01669
556 1 14.1533 14.1527 14.1535 -8.94714
557 1 15.7251 12.5793 12.5793 -8.95194
558 1 17.2968 14.1518 14.1519 -8.95004
559 1 18.8692 12.5794 12.5794 -8.94975
560 1 20.4415 14.1518 14.1518 -8.94969
561 1 1.8669e-06 15.7242 12.5794 -8.94966
562 1 1.5724 17.2966 14.1518 -8.94964
563 1 3.14465 15.7243 12.5794 -8.94976
564 1 4.71707 17.2968 14.1519 -8.94932
565 1 6.2883 15.7252 12.5804 -8.94847
566 1 7.86152 17.2972 14.1524 -8.94835
567 1 9.43068 15.7271 12.5826 -8.98122
568 1 11.0069 17.2964 14.1517 -8.94971
569 1 12.5836 15.7276 12.5829 -8.98154
570 1 14.1525 17.2973 14.1525 -8.9481
571 1 15.7251 15.7246 12.5798 -8.94987
572 1 17.2968 17.2967 14.1519 -8.94957
573 1 18.8692 15.7243 12.5795 -8.94957
574 1 20.4415 17.2967 14.1518 -8.94961
575 1 22.0139 18.8691 12.5794 -8.94964
576 1 1.57242 20.4415 14.1518 -8.94964
577 1 3.14484 18.8691 12.5794 -8.94968
578 1 4.71725 20.4415 14.1518 -8.94966
579 1 6.28957 18.8692 12.5794 -8.94981
580 1 7.86202 20.4416 14.1519 -8.94954
581 1 9.43404 18.8699 12.5799 -8.94895
582 1 11.0069 20.4415 14.1518 -8.9494
583 1 12.5799 18.87 12.58 -8.94899
584 1 14.1519 20.4416 14.1519 -8.94952
585 1 15.7243 18.8691 12.5794 -8.9499
586 1 17.2966 20.4415 14.1518 -8.94968
587 1 18.8691 18.8691 12.5794 -8.94965
588 1 20.4415 20.4415 14.1518 -8.94964
589 1 1.57242 11.007 17.2966 -8.94963
590 1 4.71723 11.0069 17.2967 -8.94961
675 1 3.14484 18.8691 18.8691 -8.94963
674 1 1.57242 20.4415 20.4415 -8.94963
673 1 22.0139 18.8691 18.8691 -8.94963
594 1 17.2967 11.0069 17.2967 -8.94965
595 1 20.4415 11.007 17.2966 -8.94963
596 1 -1.78961e-06 12.5794 15.7242 -8.94964
597 1 1.57242 14.1518 17.2966 -8.94964
598 1 3.1448 12.5794 15.7242 -8.94961
599 1 4.71723 14.1518 17.2967 -8.94966
600 1 6.28941 12.5794 15.7246 -8.94949
601 1 7.86194 14.1519 17.297 -8.9497
602 1 9.43389 12.5799 15.7257 -8.94901
603 1 11.0069 14.1518 17.2967 -8.94899
604 1 12.5801 12.5799 15.7259 -8.94988
605 1 14.152 14.1519 17.297 -8.94965
606 1 15.7244 12.5793 15.7243 -8.94938
607 1 17.2966 14.1518 17.2966 -8.94969
608 1 18.8691 12.5794 15.7242 -8.94959
609 1 20.4415 14.1518 17.2966 -8.94963
610 1 22.0139 15.7242 15.7242 -8.94964
611 1 1.57242 17.2966 17.2966 -8.94963
612 1 3.1448 15.7242 15.7242 -8.9496
613 1 4.71724 17.2967 17.2967 -8.94958
614 1 6.28951 15.7244 15.7245 -8.94935
615 1 7.86213 17.2966 17.2967 -8.94983
616 1 9.43467 15.7242 15.7245 -8.95088
617 1 11.007 17.2967 17.2966 -8.94946
618 1 12.5792 15.7241 15.7244 -8.95116
619 1 14.1518 17.2966 17.2967 -8.94987
620 1 15.7244 15.7244 15.7245 -8.94908
621 1 17.2967 17.2967 17.2967 -8.94956
622 1 18.8691 15.7242 15.7242 -8.94967
623 1 20.4415 17.2966 17.2966 -8.94963
624 1 3.09076e-07 18.8691 15.7242 -8.94963
625 1 1.57242 20.4415 17.2966 -8.94963
626 1 3.14482 18.8691 15.7242 -8.94958
627 1 4.71726 20.4415 17.2966 -8.94961
628 1 6.28962 18.8691 15.7243 -8.94942
629 1 7.86212 20.4415 17.2966 -8.94968
630 1 9.43459 18.869 15.7242 -8.9498
631 1 11.007 20.4415 17.2966 -8.94964
632 1 12.5793 18.869 15.7242 -8.94982
633 1 14.1518 20.4415 17.2966 -8.94968
634 1 15.7243 18.8692 15.7243 -8.94936
635 1 17.2966 20.4415 17.2966 -8.9496
636 1 18.8691 18.8691 15.7242 -8.94962
637 1 20.4415 20.4415 17.2966 -8.94963
672 1 20.4415 17.2966 20.4415 -8.94964
671 1 18.8691 15.7242 18.8691 -8.94965
670 1 17.2966 17.2966 20.4415 -8.94962
669 1 15.7242 15.7242 18.8691 -8.94959
668 1 14.1518 17.2966 20.4415 -8.94965
667 1 12.5794 15.7242 18.8691 -8.94968
666 1 11.007 17.2966 20.4415 -8.94964
645 1 22.0139 12.5794 18.8691 -8.94963
646 1 1.57242 14.1518 20.4415 -8.94963
647 1 3.14484 12.5794 18.8691 -8.94963
648 1 4.71726 14.1518 20.4415 -8.94964
649 1 6.28967 12.5794 18.8691 -8.94965
650 1 7.86209 14.1518 20.4415 -8.94969
651 1 9.4345 12.5794 18.8693 -8.94985
652 1 11.007 14.1518 20.4415 -8.94959
653 1 12.5794 12.5794 18.8693 -8.94994
654 1 14.1518 14.1518 20.4415 -8.9497
655 1 15.7242 12.5794 18.8691 -8.9496
656 1 17.2966 14.1518 20.4415 -8.94963
657 1 18.8691 12.5794 18.8691 -8.94964
658 1 20.4415 14.1518 20.4415 -8.94963
659 1 -9.34846e-08 15.7242 18.8691 -8.94963
660 1 1.57242 17.2966 20.4415 -8.94963
661 1 3.14484 15.7242 18.8691 -8.94964
662 1 4.71726 17.2966 20.4415 -8.94962
663 1 6.28966 15.7242 18.8691 -8.9496
664 1 7.86211 17.2966 20.4415 -8.94965
665 1 9.43455 15.7242 18.8691 -8.94968
197 1 -5.77746e-08 22.0139 12.5794 -8.94963
199 1 3.14484 22.0139 12.5794 -8.94963
203 1 9.43448 22.014 12.5794 -8.9497
205 1 12.5794 22.014 12.5794 -8.94975
209 1 18.8691 22.0139 12.5794 -8.94963
250 1 6.28968 22.0139 15.7242 -8.94961
351 1 22.0139 12.5794 22.0139 -8.94963
355 1 6.28968 12.5794 22.0139 -8.94968
367 1 3.14484 15.7242 22.0139 -8.94963
371 1 9.43453 15.7242 22.0139 -8.94968
373 1 12.5794 15.7242 22.0139 -8.94967
361 1 15.7242 12.5794 22.0139 -8.94962
379 1 22.0139 18.8691 22.0139 -8.94963
533 1 1.57242 20.4415 11.007 -8.94963
