ITEM: TIMESTEP
19
ITEM: NUMBER OF ATOMS
688
ITEM: BOX BOUNDS pp pp pp
0.0000000000000000e+00 2.2013900999999997e+01
0.0000000000000000e+00 2.2013900999999997e+01
0.0000000000000000e+00 2.2013900999999997e+01
ITEM: ATOMS id type x y z c_pot
1 1 2.7663e-14 -2.22881e-14 4.94401e-14 -8.94963
2 1 1.57242 1.57242 1.57242 -8.94963
175 1 18.8691 9.43453 9.43453 -8.94964
4 1 4.71726 1.57242 1.57242 -8.94963
5 1 6.28969 -8.76059e-13 4.37661e-12 -8.94963
6 1 7.86211 1.57242 1.57242 -8.94963
448 1 20.4415 11.007 7.86211 -8.94963
8 1 11.007 1.57242 1.57242 -8.94963
447 1 17.2966 11.0069 7.86211 -8.94944
10 1 14.1518 1.57242 1.57242 -8.94963
174 1 15.7242 9.43453 9.43453 -8.95016
12 1 17.2966 1.57242 1.57242 -8.94963
445 1 11.0109 11.0062 7.85311 -9.28312
14 1 20.4415 1.57242 1.57242 -8.94963
15 1 22.0139 3.14484 -5.54743e-14 -8.94963
16 1 1.57242 4.71726 1.57242 -8.94963
17 1 3.14484 3.14484 6.97113e-12 -8.94963
18 1 4.71726 4.71726 1.57242 -8.94963
443 1 4.71726 11.0069 7.86211 -8.9499
20 1 7.86211 4.71726 1.57242 -8.94963
21 1 9.43453 3.14484 8.65369e-11 -8.94963
22 1 11.007 4.71726 1.57242 -8.94963
23 1 12.5794 3.14484 1.57488e-10 -8.94963
24 1 14.1518 4.71726 1.57242 -8.94963
442 1 1.57242 11.007 7.86211 -8.94964
26 1 17.2966 4.71726 1.57242 -8.94963
27 1 18.8691 3.14484 1.47175e-12 -8.94963
28 1 20.4415 4.71726 1.57242 -8.94963
29 1 1.99043e-12 6.28969 6.54917e-13 -8.94963
30 1 1.57242 7.86211 1.57242 -8.94963
399 1 20.4415 11.007 4.71726 -8.94963
32 1 4.71726 7.86211 1.57242 -8.94963
33 1 6.28969 6.28969 4.43307e-10 -8.94963
34 1 7.86211 7.86211 1.57242 -8.94963
398 1 17.2966 11.007 4.71726 -8.94962
36 1 11.007 7.86211 1.57242 -8.94963
394 1 4.71727 11.007 4.71727 -8.94965
38 1 14.1518 7.86211 1.57242 -8.94963
39 1 15.7242 6.28969 5.77943e-10 -8.94963
40 1 17.2966 7.86211 1.57242 -8.94963
393 1 1.57242 11.007 4.71726 -8.94963
42 1 20.4415 7.86211 1.57242 -8.94963
349 1 17.2966 11.007 1.57242 -8.94963
44 1 3.14484 9.43453 9.18185e-11 -8.94963
345 1 4.71726 11.007 1.57242 -8.94963
688 2 10.2209 11.0066 9.43396 1.1251
47 1 12.5794 9.43453 1.04209e-08 -8.94963
48 1 15.7242 9.43453 9.76575e-10 -8.94963
49 1 18.8691 9.43453 1.24607e-10 -8.94963
50 1 -2.36847e-13 2.41238e-13 3.14484 -8.94963
51 1 1.57242 1.57242 4.71726 -8.94963
173 1 12.5805 9.43389 9.43452 -9.04203
53 1 4.71726 1.57242 4.71726 -8.94963
54 1 6.28969 6.27545e-11 3.14484 -8.94963
55 1 7.86211 1.57242 4.71726 -8.94963
172 1 9.43067 9.42685 9.43453 -9.30348
57 1 11.007 1.57242 4.71726 -8.94963
171 1 6.29004 9.43474 9.43453 -8.99651
59 1 14.1518 1.57242 4.71726 -8.94963
60 1 15.7242 6.20648e-11 3.14484 -8.94963
61 1 17.2966 1.57242 4.71726 -8.94963
170 1 3.14485 9.43453 9.43453 -8.94953
63 1 20.4415 1.57242 4.71726 -8.94963
64 1 1.03162e-11 3.14484 3.14484 -8.94963
65 1 1.57242 4.71726 4.71726 -8.94963
66 1 3.14484 3.14484 3.14484 -8.94963
67 1 4.71726 4.71726 4.71726 -8.94963
68 1 6.28969 3.14484 3.14484 -8.94963
69 1 7.86211 4.71726 4.71726 -8.94963
70 1 9.43453 3.14484 3.14484 -8.94963
71 1 11.007 4.71726 4.71726 -8.94963
72 1 12.5794 3.14484 3.14484 -8.94963
73 1 14.1518 4.71726 4.71726 -8.94963
74 1 15.7242 3.14484 3.14484 -8.94963
75 1 17.2966 4.71726 4.71726 -8.94963
76 1 18.8691 3.14484 3.14484 -8.94963
77 1 20.4415 4.71726 4.71726 -8.94963
78 1 22.0139 6.28969 3.14484 -8.94963
79 1 1.57242 7.86211 4.71726 -8.94963
80 1 3.14484 6.28969 3.14484 -8.94963
81 1 4.71726 7.86211 4.71726 -8.94962
82 1 6.28969 6.28969 3.14484 -8.94963
83 1 7.86211 7.86211 4.71727 -8.94964
84 1 9.43453 6.28969 3.14484 -8.94963
85 1 11.007 7.86211 4.71726 -8.94981
86 1 12.5794 6.28969 3.14484 -8.94963
87 1 14.1518 7.86211 4.71727 -8.9497
88 1 15.7242 6.28969 3.14484 -8.94963
89 1 17.2966 7.86211 4.71726 -8.94963
90 1 18.8691 6.28969 3.14484 -8.94963
91 1 20.4415 7.86211 4.71726 -8.94963
92 1 2.49589e-10 9.43453 3.14484 -8.94963
93 1 3.14484 9.43453 3.14484 -8.94963
94 1 6.28969 9.43453 3.14484 -8.94963
95 1 9.43453 9.43453 3.14484 -8.94957
96 1 12.5794 9.43453 3.14484 -8.94953
97 1 15.7242 9.43453 3.14484 -8.94963
98 1 18.8691 9.43453 3.14484 -8.94963
169 1 2.94393e-08 9.43453 9.43453 -8.94963
100 1 1.57242 1.57242 7.86211 -8.94963
101 1 3.14484 4.60756e-11 6.28969 -8.94963
102 1 4.71726 1.57242 7.86211 -8.94963
168 1 18.8691 6.28969 9.43453 -8.94963
104 1 7.86211 1.57242 7.86211 -8.94963
105 1 9.43453 2.20991e-09 6.28969 -8.94963
106 1 11.007 1.57242 7.86211 -8.94963
107 1 12.5794 2.19067e-09 6.28969 -8.94963
108 1 14.1518 1.57242 7.86211 -8.94963
167 1 15.7242 6.28969 9.43453 -8.94965
110 1 17.2966 1.57242 7.86211 -8.94963
111 1 18.8691 4.54963e-11 6.28969 -8.94963
112 1 20.4415 1.57242 7.86211 -8.94963
113 1 22.0139 3.14484 6.28969 -8.94963
114 1 1.57242 4.71726 7.86211 -8.94963
115 1 3.14484 3.14484 6.28969 -8.94963
116 1 4.71726 4.71726 7.86211 -8.94963
117 1 6.28969 3.14484 6.28969 -8.94963
118 1 7.86211 4.71727 7.86211 -8.94953
119 1 9.43453 3.14484 6.28969 -8.94963
120 1 11.007 4.71726 7.86211 -8.94958
121 1 12.5794 3.14484 6.28969 -8.94963
122 1 14.1518 4.71726 7.86211 -8.94963
123 1 15.7242 3.14484 6.28969 -8.94963
124 1 17.2966 4.71726 7.86211 -8.94963
125 1 18.8691 3.14484 6.28969 -8.94963
126 1 20.4415 4.71726 7.86211 -8.94963
127 1 1.22426e-09 6.28969 6.28969 -8.94963
128 1 1.57242 7.86211 7.86211 -8.94963
129 1 3.14484 6.28969 6.28969 -8.94963
130 1 4.71727 7.86211 7.86211 -8.94969
131 1 6.28969 6.28969 6.28969 -8.94971
132 1 7.86228 7.86239 7.86217 -8.99357
133 1 9.43453 6.28969 6.28968 -8.94979
134 1 11.007 7.86221 7.86217 -9.00635
135 1 12.5794 6.28969 6.28969 -8.94965
136 1 14.1518 7.86209 7.8621 -8.94941
137 1 15.7242 6.28969 6.28969 -8.94962
138 1 17.2966 7.86211 7.86211 -8.94963
139 1 18.8691 6.28969 6.28969 -8.94963
140 1 20.4415 7.86211 7.86211 -8.94963
141 1 22.0139 9.43453 6.28969 -8.94963
142 1 3.14484 9.43453 6.28969 -8.94963
143 1 6.28967 9.43452 6.28967 -8.94947
144 1 9.43449 9.43459 6.28978 -9.0058
145 1 12.5792 9.43457 6.28995 -8.99328
146 1 15.7242 9.43453 6.28969 -8.94977
147 1 18.8691 9.43453 6.28969 -8.94963
148 1 22.0139 2.31228e-12 9.43453 -8.94963
166 1 12.5794 6.28967 9.43453 -8.94985
150 1 6.28969 3.4676e-10 9.43453 -8.94963
165 1 9.43455 6.28956 9.43453 -8.95187
152 1 12.5794 4.31688e-09 9.43453 -8.94963
153 1 15.7242 4.06418e-10 9.43453 -8.94963
164 1 6.28969 6.28969 9.43453 -8.94987
155 1 1.96721e-10 3.14484 9.43453 -8.94963
156 1 3.14484 3.14484 9.43453 -8.94963
157 1 6.28969 3.14484 9.43453 -8.94963
158 1 9.43453 3.14484 9.43453 -8.94967
159 1 12.5794 3.14484 9.43453 -8.94964
160 1 15.7242 3.14484 9.43453 -8.94963
161 1 18.8691 3.14484 9.43453 -8.94963
162 1 -7.29457e-10 6.28969 9.43453 -8.94963
163 1 3.14484 6.28969 9.43453 -8.94962
344 1 1.57242 11.007 1.57242 -8.94963
176 1 1.57242 1.57242 11.007 -8.94963
181 1 17.2966 1.57242 11.007 -8.94963
188 1 17.2966 4.71726 11.007 -8.94963
190 1 1.57242 7.86211 11.007 -8.94963
191 1 4.71727 7.86211 11.0069 -8.94969
192 1 7.86228 7.86239 11.0069 -8.99368
193 1 11.007 7.86212 11.0069 -9.00851
512 1 1.57242 11.007 11.007 -8.94964
513 1 4.71725 11.0069 11.007 -8.94993
644 1 20.4415 11.007 20.4415 -8.94963
177 1 4.71726 1.57242 11.007 -8.94963
178 1 7.86211 1.57242 11.007 -8.94963
179 1 11.007 1.57242 11.007 -8.94963
180 1 14.1518 1.57242 11.007 -8.94963
643 1 17.2966 11.007 20.4415 -8.94963
182 1 20.4415 1.57242 11.007 -8.94963
183 1 1.57242 4.71726 11.007 -8.94963
184 1 4.71726 4.71726 11.007 -8.94963
185 1 7.86211 4.71727 11.007 -8.94954
186 1 11.007 4.71726 11.007 -8.9496
187 1 14.1518 4.71726 11.007 -8.94963
642 1 14.1518 11.007 20.4415 -8.94963
189 1 20.4415 4.71726 11.007 -8.94963
641 1 11.007 11.007 20.4415 -8.94963
640 1 7.86211 11.007 20.4415 -8.94963
639 1 4.71726 11.007 20.4415 -8.94963
638 1 1.57242 11.007 20.4415 -8.94963
194 1 14.1518 7.86209 11.007 -8.94956
195 1 17.2966 7.86211 11.007 -8.94963
196 1 20.4415 7.86211 11.007 -8.94963
343 1 18.8691 9.43453 18.8691 -8.94963
198 1 1.57242 1.57242 14.1518 -8.94963
342 1 15.7242 9.43453 18.8691 -8.94963
200 1 4.71726 1.57242 14.1518 -8.94963
201 1 6.28969 6.25713e-10 12.5794 -8.94963
202 1 7.86211 1.57242 14.1518 -8.94963
341 1 12.5794 9.43453 18.8691 -8.94963
204 1 11.007 1.57242 14.1518 -8.94963
340 1 9.43453 9.43453 18.8691 -8.94963
206 1 14.1518 1.57242 14.1518 -8.94963
207 1 15.7242 6.99432e-10 12.5794 -8.94963
208 1 17.2966 1.57242 14.1518 -8.94963
339 1 6.28969 9.43453 18.8691 -8.94963
210 1 20.4415 1.57242 14.1518 -8.94963
211 1 22.0139 3.14484 12.5794 -8.94963
212 1 1.57242 4.71726 14.1518 -8.94963
213 1 3.14484 3.14484 12.5794 -8.94963
214 1 4.71726 4.71726 14.1518 -8.94963
215 1 6.28969 3.14484 12.5794 -8.94963
216 1 7.86211 4.71726 14.1518 -8.94963
217 1 9.43453 3.14484 12.5794 -8.94963
218 1 11.007 4.71726 14.1518 -8.94963
219 1 12.5794 3.14484 12.5794 -8.94963
220 1 14.1518 4.71726 14.1518 -8.94963
221 1 15.7242 3.14484 12.5794 -8.94963
222 1 17.2966 4.71726 14.1518 -8.94963
223 1 18.8691 3.14484 12.5794 -8.94963
224 1 20.4415 4.71726 14.1518 -8.94963
225 1 1.2244e-09 6.28969 12.5794 -8.94963
226 1 1.57242 7.86211 14.1518 -8.94963
227 1 3.14484 6.28969 12.5794 -8.94963
228 1 4.71726 7.86211 14.1518 -8.94962
229 1 6.28969 6.28969 12.5794 -8.94971
230 1 7.86211 7.86211 14.1518 -8.94973
231 1 9.43453 6.28969 12.5794 -8.94969
232 1 11.007 7.86211 14.1518 -8.95007
233 1 12.5794 6.28969 12.5794 -8.94955
234 1 14.1518 7.86211 14.1518 -8.9498
235 1 15.7242 6.28969 12.5794 -8.94962
236 1 17.2966 7.86211 14.1518 -8.94963
237 1 18.8691 6.28969 12.5794 -8.94963
238 1 20.4415 7.86211 14.1518 -8.94963
239 1 22.0139 9.43453 12.5794 -8.94963
240 1 3.14484 9.43453 12.5794 -8.94963
241 1 6.28967 9.43452 12.5794 -8.94941
242 1 9.43457 9.4349 12.5791 -9.04958
243 1 12.5791 9.43488 12.5789 -9.03685
244 1 15.7242 9.43453 12.5794 -8.94971
245 1 18.8691 9.43453 12.5794 -8.94963
246 1 -2.35539e-13 7.82873e-13 15.7242 -8.94963
247 1 1.57242 1.57242 17.2966 -8.94963
248 1 3.14484 2.06634e-11 15.7242 -8.94963
249 1 4.71726 1.57242 17.2966 -8.94963
338 1 3.14484 9.43453 18.8691 -8.94963
251 1 7.86211 1.57242 17.2966 -8.94963
337 1 22.0139 9.43453 18.8691 -8.94963
253 1 11.007 1.57242 17.2966 -8.94963
336 1 20.4415 7.86211 20.4415 -8.94963
255 1 14.1518 1.57242 17.2966 -8.94963
335 1 18.8691 6.28969 18.8691 -8.94963
257 1 17.2966 1.57242 17.2966 -8.94963
258 1 18.8691 2.12743e-11 15.7242 -8.94963
259 1 20.4415 1.57242 17.2966 -8.94963
260 1 1.03275e-11 3.14484 15.7242 -8.94963
261 1 1.57242 4.71726 17.2966 -8.94963
262 1 3.14484 3.14484 15.7242 -8.94963
263 1 4.71726 4.71726 17.2966 -8.94963
264 1 6.28969 3.14484 15.7242 -8.94963
265 1 7.86211 4.71726 17.2966 -8.94963
266 1 9.43453 3.14484 15.7242 -8.94963
267 1 11.007 4.71726 17.2966 -8.94963
268 1 12.5794 3.14484 15.7242 -8.94963
269 1 14.1518 4.71726 17.2966 -8.94963
270 1 15.7242 3.14484 15.7242 -8.94963
271 1 17.2966 4.71726 17.2966 -8.94963
272 1 18.8691 3.14484 15.7242 -8.94963
273 1 20.4415 4.71726 17.2966 -8.94963
274 1 22.0139 6.28969 15.7242 -8.94963
275 1 1.57242 7.86211 17.2966 -8.94963
276 1 3.14484 6.28969 15.7242 -8.94963
277 1 4.71726 7.86211 17.2966 -8.94963
278 1 6.28969 6.28969 15.7242 -8.94963
279 1 7.86211 7.86211 17.2966 -8.94963
280 1 9.43453 6.28969 15.7242 -8.94962
281 1 11.007 7.86211 17.2966 -8.94963
282 1 12.5794 6.28969 15.7242 -8.94962
283 1 14.1518 7.86211 17.2966 -8.94963
284 1 15.7242 6.28969 15.7242 -8.94963
285 1 17.2966 7.86211 17.2966 -8.94963
286 1 18.8691 6.28969 15.7242 -8.94963
287 1 20.4415 7.86211 17.2966 -8.94963
288 1 2.48272e-10 9.43453 15.7242 -8.94963
289 1 3.14484 9.43453 15.7242 -8.94963
290 1 6.28969 9.43453 15.7242 -8.94962
291 1 9.43453 9.43453 15.7242 -8.94963
292 1 12.5794 9.43453 15.7242 -8.94959
293 1 15.7242 9.43453 15.7242 -8.94962
294 1 18.8691 9.43453 15.7242 -8.94963
334 1 17.2966 7.86211 20.4415 -8.94963
296 1 1.57242 1.57242 20.4415 -8.94963
333 1 15.7242 6.28969 18.8691 -8.94963
298 1 4.71726 1.57242 20.4415 -8.94963
299 1 6.28969 1.77693e-11 18.8691 -8.94963
300 1 7.86211 1.57242 20.4415 -8.94963
332 1 14.1518 7.86211 20.4415 -8.94963
302 1 11.007 1.57242 20.4415 -8.94963
331 1 12.5794 6.28969 18.8691 -8.94963
304 1 14.1518 1.57242 20.4415 -8.94963
305 1 15.7242 1.77237e-11 18.8691 -8.94963
306 1 17.2966 1.57242 20.4415 -8.94963
330 1 11.007 7.86211 20.4415 -8.94963
308 1 20.4415 1.57242 20.4415 -8.94963
309 1 22.0139 3.14484 18.8691 -8.94963
310 1 1.57242 4.71726 20.4415 -8.94963
311 1 3.14484 3.14484 18.8691 -8.94963
312 1 4.71726 4.71726 20.4415 -8.94963
313 1 6.28969 3.14484 18.8691 -8.94963
314 1 7.86211 4.71726 20.4415 -8.94963
315 1 9.43453 3.14484 18.8691 -8.94963
316 1 11.007 4.71726 20.4415 -8.94963
317 1 12.5794 3.14484 18.8691 -8.94963
318 1 14.1518 4.71726 20.4415 -8.94963
319 1 15.7242 3.14484 18.8691 -8.94963
320 1 17.2966 4.71726 20.4415 -8.94963
321 1 18.8691 3.14484 18.8691 -8.94963
322 1 20.4415 4.71726 20.4415 -8.94963
323 1 1.99106e-12 6.28969 18.8691 -8.94963
324 1 1.57242 7.86211 20.4415 -8.94963
325 1 3.14484 6.28969 18.8691 -8.94963
326 1 4.71726 7.86211 20.4415 -8.94963
327 1 6.28969 6.28969 18.8691 -8.94963
328 1 7.86211 7.86211 20.4415 -8.94963
329 1 9.43453 6.28969 18.8691 -8.94963
593 1 14.1518 11.007 17.2966 -8.94963
592 1 11.007 11.007 17.2966 -8.94956
515 1 11.0112 10.9984 11.0199 -9.47095
517 1 17.2966 11.0069 11.007 -8.94947
518 1 20.4415 11.007 11.007 -8.94963
540 1 1.57242 11.007 14.1518 -8.94963
541 1 4.71726 11.007 14.1518 -8.94965
542 1 7.86209 11.0069 14.1518 -8.94968
544 1 14.1518 11.0069 14.1518 -8.94965
545 1 17.2966 11.007 14.1518 -8.94962
546 1 20.4415 11.007 14.1518 -8.94963
591 1 7.86211 11.007 17.2966 -8.94963
7 1 9.43453 4.4598e-12 22.0139 -8.94963
9 1 12.5794 5.54991e-12 22.0139 -8.94963
13 1 18.8691 8.23162e-14 22.0139 -8.94963
19 1 6.28969 3.14484 22.0139 -8.94963
25 1 15.7242 3.14484 22.0139 -8.94963
31 1 3.14484 6.28969 22.0139 -8.94963
35 1 9.43453 6.28969 22.0139 -8.94963
37 1 12.5794 6.28969 22.0139 -8.94963
41 1 18.8691 6.28969 22.0139 -8.94963
43 1 22.0139 9.43453 22.0139 -8.94963
45 1 6.28969 9.43453 22.0139 -8.94963
46 1 9.43453 9.43453 22.0139 -8.94963
687 2 11.0075 12.5797 10.2205 1.1251
511 1 18.8691 18.8691 9.43453 -8.94963
346 1 7.86211 11.007 1.57242 -8.94964
347 1 11.007 11.007 1.57242 -8.94967
348 1 14.1518 11.007 1.57242 -8.94963
510 1 15.7242 18.8691 9.43453 -8.94963
350 1 20.4415 11.007 1.57242 -8.94963
154 1 18.8691 22.0139 9.43453 -8.94963
352 1 1.57242 14.1518 1.57242 -8.94963
353 1 3.14484 12.5794 3.5649e-10 -8.94963
354 1 4.71726 14.1518 1.57242 -8.94963
151 1 9.43453 22.0139 9.43453 -8.94963
356 1 7.86211 14.1518 1.57242 -8.94963
357 1 9.43453 12.5794 2.79667e-08 -8.94963
358 1 11.007 14.1518 1.57242 -8.94964
359 1 12.5794 12.5794 4.28139e-08 -8.94963
360 1 14.1518 14.1518 1.57242 -8.94963
361 1 15.7242 12.5794 -1.08706e-09 -8.94963
362 1 17.2966 14.1518 1.57242 -8.94963
363 1 18.8691 12.5794 3.92718e-10 -8.94963
364 1 20.4415 14.1518 1.57242 -8.94963
365 1 1.98531e-12 15.7242 3.47005e-12 -8.94963
366 1 1.57242 17.2966 1.57242 -8.94963
149 1 3.14484 22.0139 9.43453 -8.94963
368 1 4.71726 17.2966 1.57242 -8.94963
369 1 6.28969 15.7242 1.83313e-09 -8.94963
370 1 7.86211 17.2966 1.57242 -8.94963
109 1 15.7242 22.0139 6.28969 -8.94963
372 1 11.007 17.2966 1.57242 -8.94963
103 1 6.28969 22.0139 6.28969 -8.94963
374 1 14.1518 17.2966 1.57242 -8.94963
375 1 15.7242 15.7242 1.89706e-09 -8.94963
376 1 17.2966 17.2966 1.57242 -8.94963
99 1 2.58941e-12 22.0139 6.28969 -8.94963
378 1 20.4415 17.2966 1.57242 -8.94963
379 1 22.0139 18.8691 -3.192e-13 -8.94963
380 1 1.57242 20.4415 1.57242 -8.94963
381 1 3.14484 18.8691 1.81161e-11 -8.94963
382 1 4.71726 20.4415 1.57242 -8.94963
62 1 18.8691 22.0139 3.14484 -8.94963
384 1 7.86211 20.4415 1.57242 -8.94963
385 1 9.43453 18.8691 3.47896e-10 -8.94963
386 1 11.007 20.4415 1.57242 -8.94963
387 1 12.5794 18.8691 4.18444e-10 -8.94963
388 1 14.1518 20.4415 1.57242 -8.94963
58 1 12.5794 22.0139 3.14484 -8.94963
390 1 17.2966 20.4415 1.57242 -8.94963
391 1 18.8691 18.8691 1.20149e-11 -8.94963
392 1 20.4415 20.4415 1.57242 -8.94963
509 1 12.5794 18.8691 9.43453 -8.94958
508 1 9.43453 18.8691 9.43453 -8.9496
395 1 7.86211 11.007 4.71726 -8.94997
396 1 11.0069 11.007 4.71713 -8.95228
397 1 14.1518 11.007 4.71727 -8.94993
507 1 6.28969 18.8691 9.43453 -8.94963
506 1 3.14484 18.8691 9.43453 -8.94963
400 1 2.53224e-10 12.5794 3.14484 -8.94963
401 1 1.57242 14.1518 4.71726 -8.94963
402 1 3.14484 12.5794 3.14484 -8.94963
403 1 4.71726 14.1518 4.71726 -8.94962
404 1 6.28969 12.5794 3.14484 -8.94962
405 1 7.86211 14.1518 4.71727 -8.94971
406 1 9.43453 12.5794 3.14485 -8.94947
407 1 11.007 14.1518 4.71725 -8.95016
408 1 12.5794 12.5794 3.14485 -8.94944
409 1 14.1518 14.1518 4.71727 -8.94977
410 1 15.7242 12.5794 3.14484 -8.94962
411 1 17.2966 14.1518 4.71726 -8.94963
412 1 18.8691 12.5794 3.14484 -8.94963
413 1 20.4415 14.1518 4.71726 -8.94963
414 1 22.0139 15.7242 3.14484 -8.94963
415 1 1.57242 17.2966 4.71726 -8.94963
416 1 3.14484 15.7242 3.14484 -8.94963
417 1 4.71726 17.2966 4.71726 -8.94963
418 1 6.28969 15.7242 3.14484 -8.94963
419 1 7.86211 17.2966 4.71726 -8.94962
420 1 9.43453 15.7242 3.14484 -8.94963
421 1 11.007 17.2966 4.71727 -8.94965
422 1 12.5794 15.7242 3.14484 -8.94963
423 1 14.1518 17.2966 4.71726 -8.94962
424 1 15.7242 15.7242 3.14484 -8.94963
425 1 17.2966 17.2966 4.71726 -8.94963
426 1 18.8691 15.7242 3.14484 -8.94963
427 1 20.4415 17.2966 4.71726 -8.94963
428 1 1.08952e-11 18.8691 3.14484 -8.94963
429 1 1.57242 20.4415 4.71726 -8.94963
430 1 3.14484 18.8691 3.14484 -8.94963
431 1 4.71726 20.4415 4.71726 -8.94963
432 1 6.28969 18.8691 3.14484 -8.94963
433 1 7.86211 20.4415 4.71726 -8.94963
434 1 9.43453 18.8691 3.14484 -8.94963
435 1 11.007 20.4415 4.71726 -8.94963
436 1 12.5794 18.8691 3.14484 -8.94963
437 1 14.1518 20.4415 4.71726 -8.94963
438 1 15.7242 18.8691 3.14484 -8.94963
439 1 17.2966 20.4415 4.71726 -8.94963
440 1 18.8691 18.8691 3.14484 -8.94963
441 1 20.4415 20.4415 4.71726 -8.94963
505 1 1.97292e-10 18.8691 9.43453 -8.94963
504 1 18.8691 15.7242 9.43453 -8.94963
444 1 7.86123 11.007 7.86153 -9.02937
503 1 15.7242 15.7242 9.43453 -8.94981
446 1 14.1512 11.007 7.86249 -9.04029
502 1 12.5793 15.7241 9.4345 -9.00635
501 1 9.43462 15.7242 9.4345 -9.00851
449 1 22.0139 12.5794 6.28969 -8.94963
450 1 1.57242 14.1518 7.86211 -8.94963
451 1 3.14484 12.5794 6.28969 -8.94963
452 1 4.71727 14.1518 7.86211 -8.94959
453 1 6.28968 12.5794 6.28968 -8.94965
454 1 7.86257 14.1514 7.86234 -9.03685
455 1 9.43471 12.5793 6.29018 -9.05286
456 1 11.007 14.1524 7.86101 -9.04203
457 1 12.579 12.5793 6.29032 -9.04029
458 1 14.1515 14.1518 7.86227 -8.99328
459 1 15.7242 12.5794 6.28969 -8.94993
460 1 17.2966 14.1518 7.86211 -8.94953
461 1 18.8691 12.5794 6.28969 -8.94963
462 1 20.4415 14.1518 7.86211 -8.94963
463 1 1.28841e-09 15.7242 6.28969 -8.94963
464 1 1.57242 17.2966 7.86211 -8.94963
465 1 3.14484 15.7242 6.28969 -8.94963
466 1 4.71726 17.2966 7.86211 -8.94962
467 1 6.28969 15.7242 6.28969 -8.9498
468 1 7.86211 17.2966 7.86211 -8.94955
469 1 9.43452 15.7242 6.28967 -8.94956
470 1 11.007 17.2966 7.8621 -8.94985
471 1 12.5794 15.7242 6.28967 -8.94941
472 1 14.1518 17.2966 7.86211 -8.94965
473 1 15.7242 15.7242 6.28969 -8.9497
474 1 17.2966 17.2966 7.86211 -8.94963
475 1 18.8691 15.7242 6.28969 -8.94963
476 1 20.4415 17.2966 7.86211 -8.94963
477 1 22.0139 18.8691 6.28969 -8.94963
478 1 1.57242 20.4415 7.86211 -8.94963
479 1 3.14484 18.8691 6.28969 -8.94963
480 1 4.71726 20.4415 7.86211 -8.94963
481 1 6.28969 18.8691 6.28969 -8.94963
482 1 7.86211 20.4415 7.86211 -8.94963
483 1 9.43453 18.8691 6.28969 -8.94963
484 1 11.007 20.4415 7.86211 -8.94964
485 1 12.5794 18.8691 6.28969 -8.94963
486 1 14.1518 20.4415 7.86211 -8.94963
487 1 15.7242 18.8691 6.28969 -8.94963
488 1 17.2966 20.4415 7.86211 -8.94963
489 1 18.8691 18.8691 6.28969 -8.94963
490 1 20.4415 20.4415 7.86211 -8.94963
491 1 3.17597e-08 12.5794 9.43453 -8.94963
492 1 3.14484 12.5794 9.43453 -8.94956
493 1 6.28993 12.5792 9.43455 -8.99881
494 1 9.42162 12.588 9.43024 -9.47095
495 1 12.5884 12.5801 9.43061 -9.28312
496 1 15.7244 12.5794 9.43455 -8.95228
497 1 18.8691 12.5794 9.43453 -8.94967
498 1 -6.55916e-10 15.7242 9.43453 -8.94963
499 1 3.14484 15.7242 9.43453 -8.94963
500 1 6.28969 15.7242 9.43453 -8.95007
56 1 9.43453 22.0139 3.14484 -8.94963
52 1 3.14484 22.0139 3.14484 -8.94963
516 1 14.1513 11.007 11.0068 -9.05286
519 1 1.57242 14.1518 11.007 -8.94963
520 1 4.71727 14.1518 11.0069 -8.94963
521 1 7.86241 14.1514 11.0069 -9.04958
529 1 11.007 17.2968 11.0069 -8.95187
533 1 1.57242 20.4415 11.007 -8.94963
538 1 17.2966 20.4415 11.007 -8.94963
539 1 20.4415 20.4415 11.007 -8.94963
686 1 20.4415 20.4415 20.4415 -8.94963
685 1 18.8691 18.8691 18.8691 -8.94963
514 1 7.86109 11.007 11.0077 -9.04195
684 1 17.2966 20.4415 20.4415 -8.94963
307 1 18.8691 22.0139 18.8691 -8.94963
683 1 15.7242 18.8691 18.8691 -8.94963
682 1 14.1518 20.4415 20.4415 -8.94963
303 1 12.5794 22.0139 18.8691 -8.94963
301 1 9.43453 22.0139 18.8691 -8.94963
297 1 3.14484 22.0139 18.8691 -8.94963
522 1 11.007 14.1595 11.0108 -9.30348
523 1 14.1517 14.1517 11.007 -9.0058
524 1 17.2966 14.1518 11.007 -8.94957
525 1 20.4415 14.1518 11.007 -8.94963
526 1 1.57242 17.2966 11.007 -8.94963
527 1 4.71726 17.2966 11.007 -8.94962
528 1 7.86211 17.2966 11.007 -8.94969
295 1 2.80375e-14 22.0139 18.8691 -8.94963
530 1 14.1518 17.2966 11.007 -8.94979
531 1 17.2966 17.2966 11.007 -8.94963
532 1 20.4415 17.2966 11.007 -8.94963
256 1 15.7242 22.0139 15.7242 -8.94963
534 1 4.71726 20.4415 11.007 -8.94963
535 1 7.86211 20.4415 11.007 -8.94963
536 1 11.007 20.4415 11.007 -8.94967
537 1 14.1518 20.4415 11.007 -8.94963
254 1 12.5794 22.0139 15.7242 -8.94963
252 1 9.43453 22.0139 15.7242 -8.94963
681 1 12.5794 18.8691 18.8691 -8.94963
680 1 11.007 20.4415 20.4415 -8.94963
679 1 9.43453 18.8691 18.8691 -8.94963
543 1 11.0069 11.0072 14.1515 -8.99881
678 1 7.86211 20.4415 20.4415 -8.94963
677 1 6.28969 18.8691 18.8691 -8.94963
676 1 4.71726 20.4415 20.4415 -8.94963
547 1 22.0139 12.5794 12.5794 -8.94963
548 1 1.57242 14.1518 14.1518 -8.94963
549 1 3.14484 12.5794 12.5794 -8.94963
550 1 4.71726 14.1518 14.1518 -8.94962
551 1 6.28966 12.5794 12.5794 -8.94968
552 1 7.86209 14.1518 14.1518 -8.94941
553 1 9.43375 12.5793 12.5804 -9.04195
554 1 11.007 14.1516 14.1514 -8.99651
555 1 12.58 12.5793 12.5803 -9.02937
556 1 14.1518 14.1518 14.1518 -8.94947
557 1 15.7242 12.5794 12.5794 -8.94997
558 1 17.2966 14.1518 14.1518 -8.94963
559 1 18.8691 12.5794 12.5794 -8.94964
560 1 20.4415 14.1518 14.1518 -8.94963
561 1 1.29353e-09 15.7242 12.5794 -8.94963
562 1 1.57242 17.2966 14.1518 -8.94963
563 1 3.14484 15.7242 12.5794 -8.94963
564 1 4.71726 17.2966 14.1518 -8.94963
565 1 6.28969 15.7242 12.5794 -8.94973
566 1 7.86211 17.2966 14.1518 -8.94971
567 1 9.43459 15.7239 12.5792 -8.99368
568 1 11.007 17.2966 14.1518 -8.94987
569 1 12.5793 15.7239 12.5792 -8.99357
570 1 14.1518 17.2966 14.1518 -8.94971
571 1 15.7242 15.7242 12.5794 -8.94964
572 1 17.2966 17.2966 14.1518 -8.94963
573 1 18.8691 15.7242 12.5794 -8.94963
574 1 20.4415 17.2966 14.1518 -8.94963
575 1 22.0139 18.8691 12.5794 -8.94963
576 1 1.57242 20.4415 14.1518 -8.94963
577 1 3.14484 18.8691 12.5794 -8.94963
578 1 4.71726 20.4415 14.1518 -8.94963
579 1 6.28969 18.8691 12.5794 -8.94963
580 1 7.86211 20.4415 14.1518 -8.94963
581 1 9.43453 18.8691 12.5794 -8.94954
582 1 11.007 20.4415 14.1518 -8.94963
583 1 12.5794 18.8691 12.5794 -8.94953
584 1 14.1518 20.4415 14.1518 -8.94963
585 1 15.7242 18.8691 12.5794 -8.94963
586 1 17.2966 20.4415 14.1518 -8.94963
587 1 18.8691 18.8691 12.5794 -8.94963
588 1 20.4415 20.4415 14.1518 -8.94963
589 1 1.57242 11.007 17.2966 -8.94963
590 1 4.71726 11.007 17.2966 -8.94963
675 1 3.14484 18.8691 18.8691 -8.94963
674 1 1.57242 20.4415 20.4415 -8.94963
673 1 22.0139 18.8691 18.8691 -8.94963
594 1 17.2966 11.007 17.2966 -8.94963
595 1 20.4415 11.007 17.2966 -8.94963
596 1 2.51203e-10 12.5794 15.7242 -8.94963
597 1 1.57242 14.1518 17.2966 -8.94963
598 1 3.14484 12.5794 15.7242 -8.94963
599 1 4.71726 14.1518 17.2966 -8.94963
600 1 6.28969 12.5794 15.7242 -8.94965
601 1 7.86211 14.1518 17.2966 -8.94963
602 1 9.43453 12.5794 15.7242 -8.94993
603 1 11.007 14.1518 17.2966 -8.94953
604 1 12.5794 12.5794 15.7242 -8.9499
605 1 14.1518 14.1518 17.2966 -8.94963
606 1 15.7242 12.5794 15.7242 -8.94965
607 1 17.2966 14.1518 17.2966 -8.94963
608 1 18.8691 12.5794 15.7242 -8.94963
609 1 20.4415 14.1518 17.2966 -8.94963
610 1 22.0139 15.7242 15.7242 -8.94963
611 1 1.57242 17.2966 17.2966 -8.94963
612 1 3.14484 15.7242 15.7242 -8.94963
613 1 4.71726 17.2966 17.2966 -8.94963
614 1 6.28969 15.7242 15.7242 -8.94962
615 1 7.86211 17.2966 17.2966 -8.94963
616 1 9.43453 15.7242 15.7242 -8.94969
617 1 11.007 17.2966 17.2966 -8.94962
618 1 12.5794 15.7242 15.7242 -8.94969
619 1 14.1518 17.2966 17.2966 -8.94963
620 1 15.7242 15.7242 15.7242 -8.94962
621 1 17.2966 17.2966 17.2966 -8.94963
622 1 18.8691 15.7242 15.7242 -8.94963
623 1 20.4415 17.2966 17.2966 -8.94963
624 1 1.09511e-11 18.8691 15.7242 -8.94963
625 1 1.57242 20.4415 17.2966 -8.94963
626 1 3.14484 18.8691 15.7242 -8.94963
627 1 4.71726 20.4415 17.2966 -8.94963
628 1 6.28969 18.8691 15.7242 -8.94963
629 1 7.86211 20.4415 17.2966 -8.94963
630 1 9.43453 18.8691 15.7242 -8.94963
631 1 11.007 20.4415 17.2966 -8.94963
632 1 12.5794 18.8691 15.7242 -8.94963
633 1 14.1518 20.4415 17.2966 -8.94963
634 1 15.7242 18.8691 15.7242 -8.94963
635 1 17.2966 20.4415 17.2966 -8.94963
636 1 18.8691 18.8691 15.7242 -8.94963
637 1 20.4415 20.4415 17.2966 -8.94963
672 1 20.4415 17.2966 20.4415 -8.94963
671 1 18.8691 15.7242 18.8691 -8.94963
670 1 17.2966 17.2966 20.4415 -8.94963
669 1 15.7242 15.7242 18.8691 -8.94963
668 1 14.1518 17.2966 20.4415 -8.94963
667 1 12.5794 15.7242 18.8691 -8.94963
666 1 11.007 17.2966 20.4415 -8.94963
645 1 22.0139 12.5794 18.8691 -8.94963
646 1 1.57242 14.1518 20.4415 -8.94963
647 1 3.14484 12.5794 18.8691 -8.94963
648 1 4.71726 14.1518 20.4415 -8.94963
649 1 6.28969 12.5794 18.8691 -8.94963
650 1 7.86211 14.1518 20.4415 -8.94963
651 1 9.43453 12.5794 18.8691 -8.94964
652 1 11.007 14.1518 20.4415 -8.94963
653 1 12.5794 12.5794 18.8691 -8.94964
654 1 14.1518 14.1518 20.4415 -8.94963
655 1 15.7242 12.5794 18.8691 -8.94963
656 1 17.2966 14.1518 20.4415 -8.94963
657 1 18.8691 12.5794 18.8691 -8.94963
658 1 20.4415 14.1518 20.4415 -8.94963
659 1 1.96432e-12 15.7242 18.8691 -8.94963
660 1 1.57242 17.2966 20.4415 -8.94963
661 1 3.14484 15.7242 18.8691 -8.94963
662 1 4.71726 17.2966 20.4415 -8.94963
663 1 6.28969 15.7242 18.8691 -8.94963
664 1 7.86211 17.2966 20.4415 -8.94963
665 1 9.43453 15.7242 18.8691 -8.94963
197 1 2.58708e-12 22.0139 12.5794 -8.94963
199 1 3.14484 22.0139 12.5794 -8.94963
203 1 9.43453 22.0139 12.5794 -8.94963
205 1 12.5794 22.0139 12.5794 -8.94963
209 1 18.8691 22.0139 12.5794 -8.94963
250 1 6.28969 22.0139 15.7242 -8.94963
351 1 22.0139 12.5794 22.0139 -8.94963
355 1 6.28969 12.5794 22.0139 -8.94963
367 1 3.14484 15.7242 22.0139 -8.94963
371 1 9.43453 15.7242 22.0139 -8.94963
373 1 12.5794 15.7242 22.0139 -8.94963
377 1 18.8691 15.7242 22.0139 -8.94963
383 1 6.28969 18.8691 22.0139 -8.94963
389 1 15.7242 18.8691 22.0139 -8.94963
3 1 3.14484 22.0139 22.0139 -8.94963
11 1 15.7242 22.0139 22.0139 -8.94963
