ITEM: TIMESTEP
76
ITEM: NUMBER OF ATOMS
688
ITEM: BOX BOUNDS pp pp pp
0.0000000000000000e+00 2.2013900999999997e+01
0.0000000000000000e+00 2.2013900999999997e+01
0.0000000000000000e+00 2.2013900999999997e+01
ITEM: ATOMS id type x y z c_pot
513 1 4.71496 11.0063 11.0078 -8.94856
2 1 1.57219 1.57245 1.57219 -8.94953
175 1 18.8703 9.43389 9.43452 -8.94944
4 1 4.71696 1.57241 1.57211 -8.94964
512 1 1.57188 11.0066 11.0072 -8.94982
6 1 7.86196 1.57236 1.5721 -8.94961
448 1 20.4423 11.0065 7.86168 -8.9499
8 1 11.007 1.57232 1.57212 -8.9496
447 1 17.2995 11.0056 7.86083 -8.9484
10 1 14.152 1.57228 1.57215 -8.94962
174 1 15.7266 9.43351 9.43495 -8.95052
12 1 17.2969 1.5723 1.5722 -8.94959
445 1 11.0244 11.0055 7.80744 -9.22919
14 1 20.4416 1.57239 1.57226 -8.94957
151 1 9.43421 0.000736964 9.43426 -8.95049
16 1 1.57219 4.71701 1.57216 -8.9495
17 1 3.14457 3.14465 -0.000100272 -8.94956
18 1 4.71684 4.71688 1.57205 -8.94954
443 1 4.71344 11.0061 7.8603 -8.95116
20 1 7.86188 4.71681 1.57204 -8.94966
21 1 9.43446 3.14454 -8.05646e-05 -8.94961
22 1 11.007 4.7168 1.57206 -8.94961
23 1 12.5795 3.14452 -5.79353e-05 -8.94961
24 1 14.1521 4.71677 1.5721 -8.94971
442 1 1.57151 11.0066 7.86167 -8.95025
26 1 17.2971 4.71684 1.57215 -8.94948
27 1 18.8693 3.1446 -2.33784e-05 -8.94952
28 1 20.4416 4.71701 1.57222 -8.94954
29 1 -3.36444e-05 6.28948 -9.21071e-05 -8.94961
30 1 1.57214 7.86185 1.57208 -8.94962
193 1 11.0098 7.85 11.0107 -9.01854
32 1 4.71665 7.86167 1.57175 -8.94968
33 1 6.28921 6.28918 -0.000255425 -8.94956
34 1 7.86147 7.86136 1.57132 -8.94946
192 1 7.86035 7.85879 11.0106 -8.98121
36 1 11.007 7.86151 1.57147 -8.94939
191 1 4.7172 7.86198 11.0068 -8.95099
38 1 14.1526 7.86132 1.57149 -8.94945
39 1 15.7248 6.28914 -0.000110275 -8.94956
40 1 17.2971 7.86178 1.57208 -8.94975
190 1 1.57251 7.86178 11.007 -8.94955
42 1 20.4416 7.86189 1.57218 -8.94964
349 1 17.2971 11.0069 1.57209 -8.94961
44 1 3.14445 9.43436 -0.000272497 -8.94959
345 1 4.71656 11.0069 1.57156 -8.94953
688 2 10.2435 11.0478 9.45344 0.65056
47 1 12.5798 9.43412 -0.000619692 -8.94999
48 1 15.7247 9.43433 -0.000104167 -8.94966
49 1 18.8694 9.43441 -5.37952e-05 -8.94961
50 1 22.0138 0.000195359 3.14458 -8.9496
51 1 1.57217 1.57254 4.71702 -8.94964
173 1 12.5844 9.43039 9.43455 -9.04137
53 1 4.71669 1.57251 4.7167 -8.94956
54 1 6.28935 0.000331246 3.14428 -8.94964
55 1 7.86185 1.57246 4.71669 -8.94965
172 1 9.41719 9.39378 9.43444 -9.25713
57 1 11.0071 1.57234 4.7167 -8.94961
171 1 6.29219 9.43691 9.43487 -8.99781
59 1 14.1522 1.57222 4.71672 -8.94961
60 1 15.7246 9.55914e-05 3.14443 -8.9496
61 1 17.297 1.57233 4.71691 -8.9496
170 1 3.14471 9.43425 9.43451 -8.94807
63 1 20.4416 1.57243 4.71705 -8.94962
64 1 -3.83588e-05 3.14473 3.14464 -8.94964
65 1 1.57224 4.71706 4.71704 -8.94975
66 1 3.14446 3.14468 3.14447 -8.94954
67 1 4.71664 4.71669 4.71664 -8.94945
68 1 6.28936 3.14459 3.14436 -8.94973
69 1 7.86185 4.71662 4.71654 -8.95006
70 1 9.43446 3.14452 3.14436 -8.94959
71 1 11.0071 4.71655 4.7165 -8.94955
72 1 12.5796 3.14448 3.14436 -8.94964
73 1 14.1524 4.71634 4.71651 -8.94967
74 1 15.7247 3.14446 3.14442 -8.94959
75 1 17.2972 4.71672 4.7168 -8.94958
76 1 18.8694 3.14462 3.14458 -8.94959
77 1 20.4417 4.71699 4.71702 -8.94966
78 1 22.0138 6.28933 3.14448 -8.94955
79 1 1.57194 7.86158 4.71667 -8.94958
80 1 3.14427 6.28916 3.14426 -8.94929
81 1 4.7159 7.86098 4.7159 -8.94845
82 1 6.28901 6.28894 3.1439 -8.9494
83 1 7.86094 7.86071 4.71498 -8.94922
84 1 9.4344 6.28895 3.14403 -8.94955
85 1 11.0069 7.86136 4.71551 -8.94945
86 1 12.5797 6.28895 3.14406 -8.94991
87 1 14.1535 7.86026 4.71529 -8.94767
88 1 15.725 6.28888 3.14405 -8.94913
89 1 17.2977 7.86127 4.71641 -8.94934
90 1 18.8695 6.28923 3.14441 -8.9495
91 1 20.4418 7.86162 4.71676 -8.94961
92 1 -0.000138471 9.4343 3.14441 -8.94958
93 1 3.14417 9.4342 3.14408 -8.9496
94 1 6.28867 9.43405 3.14315 -8.95026
95 1 9.43352 9.43336 3.14182 -8.94835
96 1 12.5806 9.43324 3.14196 -8.94886
97 1 15.7249 9.43421 3.14402 -8.95015
98 1 18.8694 9.43431 3.14439 -8.94969
169 1 0.000291463 9.43411 9.43448 -8.94938
100 1 1.57218 1.57255 7.86199 -8.94961
101 1 3.1443 0.00044752 6.28935 -8.94959
102 1 4.7167 1.57264 7.86188 -8.94955
168 1 18.8699 6.28904 9.43445 -8.94955
104 1 7.8615 1.57224 7.86155 -8.94988
105 1 9.4344 0.00050886 6.28904 -8.94962
106 1 11.0072 1.572 7.86159 -8.94965
107 1 12.5798 0.000262096 6.28908 -8.94966
108 1 14.1524 1.57216 7.86172 -8.94966
167 1 15.7256 6.28824 9.43441 -8.9489
110 1 17.2971 1.57227 7.8619 -8.9496
111 1 18.8693 0.000137194 6.28945 -8.94962
112 1 20.4416 1.57242 7.86199 -8.94961
113 1 22.0139 3.14476 6.28953 -8.94962
114 1 1.57236 4.71711 7.86201 -8.94962
115 1 3.1445 3.14483 6.28948 -8.94971
116 1 4.71692 4.71712 7.862 -8.94983
117 1 6.28894 3.14429 6.28894 -8.94947
118 1 7.86095 4.71516 7.86086 -8.94838
119 1 9.43447 3.14424 6.28911 -8.94951
120 1 11.0078 4.71504 7.86113 -8.94806
121 1 12.5799 3.144 6.28896 -8.94956
122 1 14.1528 4.71589 7.86161 -8.94984
123 1 15.7249 3.14432 6.28923 -8.94964
124 1 17.2974 4.71661 7.86184 -8.94956
125 1 18.8694 3.1446 6.28945 -8.94962
126 1 20.4418 4.71696 7.86197 -8.9496
127 1 0.000115977 6.28938 6.28949 -8.94964
128 1 1.57243 7.8618 7.862 -8.9495
129 1 3.14457 6.28943 6.28951 -8.9501
130 1 4.71724 7.86218 7.86225 -8.95126
131 1 6.28862 6.2883 6.28841 -8.94917
132 1 7.86029 7.85957 7.85839 -8.98201
133 1 9.43471 6.28837 6.28904 -8.95078
134 1 11.0092 7.85996 7.86076 -9.00189
135 1 12.5802 6.28773 6.28848 -8.95063
136 1 14.154 7.85943 7.86129 -8.95033
137 1 15.7253 6.28848 6.28892 -8.94954
138 1 17.2978 7.86119 7.86183 -8.95005
139 1 18.8696 6.28915 6.28936 -8.9497
140 1 20.442 7.86163 7.86192 -8.94956
141 1 22.0139 9.43407 6.28919 -8.94982
142 1 3.14343 9.43377 6.28864 -8.94984
143 1 6.28598 9.43215 6.28577 -8.94578
144 1 9.43167 9.43175 6.28508 -8.99707
145 1 12.5832 9.4292 6.28451 -8.97909
146 1 15.7265 9.43277 6.28792 -8.94888
147 1 18.8702 9.43377 6.28891 -8.94954
148 1 -0.000114171 0.000216909 9.4345 -8.9496
166 1 12.5806 6.28657 9.43415 -8.94865
150 1 6.28893 0.000653812 9.43442 -8.94954
165 1 9.4339 6.27885 9.4342 -8.96043
152 1 12.5799 0.000423457 9.43427 -8.94965
153 1 15.7248 8.28777e-05 9.43442 -8.94961
164 1 6.28999 6.28952 9.43444 -8.94974
155 1 5.30153e-05 3.14474 9.43449 -8.94961
156 1 3.14454 3.14481 9.43448 -8.94962
157 1 6.28914 3.14449 9.43444 -8.94917
158 1 9.43429 3.1424 9.43435 -8.9523
159 1 12.58 3.14353 9.43434 -8.94955
160 1 15.725 3.14413 9.43441 -8.94954
161 1 18.8695 3.14454 9.43446 -8.94961
162 1 22.0142 6.28936 9.43448 -8.9496
163 1 3.14482 6.28945 9.43448 -8.94942
344 1 1.57207 11.0069 1.57201 -8.9496
350 1 20.4416 11.0069 1.57215 -8.9496
181 1 17.2972 1.57217 11.007 -8.9496
188 1 17.2975 4.71644 11.0071 -8.94957
177 1 4.71671 1.57255 11.0071 -8.94954
184 1 4.71692 4.71702 11.007 -8.94986
189 1 20.4419 4.7169 11.007 -8.9496
644 1 20.4416 11.0069 20.4416 -8.9496
3 1 3.14459 0.000119995 22.0137 -8.9496
178 1 7.8615 1.57201 11.0073 -8.94981
179 1 11.0072 1.57168 11.0073 -8.95049
180 1 14.1524 1.57191 11.0071 -8.94962
46 1 9.43422 9.43412 22.0131 -8.94988
182 1 20.4417 1.57238 11.007 -8.94961
183 1 1.57238 4.71707 11.007 -8.94962
252 1 9.43442 -0.000127152 15.7248 -8.94954
185 1 7.86096 4.71477 11.008 -8.9484
186 1 11.0079 4.71295 11.0081 -8.95088
187 1 14.1529 4.71539 11.0072 -8.9498
642 1 14.1523 11.0069 20.4418 -8.94971
254 1 12.5796 -0.000214789 15.7248 -8.94955
641 1 11.007 11.0069 20.4415 -8.95051
640 1 7.86174 11.007 20.4414 -8.94975
45 1 6.28919 9.43431 22.0134 -8.94976
638 1 1.57222 11.0069 20.4415 -8.9496
194 1 14.1547 7.8585 11.0077 -8.94915
195 1 17.2983 7.86086 11.0072 -8.94974
196 1 20.4422 7.86157 11.0071 -8.94961
343 1 18.8695 9.43436 18.8695 -8.9496
198 1 1.57219 1.57245 14.152 -8.94964
342 1 15.725 9.43419 18.8699 -8.94957
200 1 4.71665 1.5723 14.1523 -8.94956
201 1 6.28896 0.00038813 12.5799 -8.94972
202 1 7.86162 1.57203 14.1525 -8.94972
341 1 12.5799 9.43399 18.8704 -8.95024
204 1 11.0071 1.57177 14.1526 -8.94954
340 1 9.43425 9.43402 18.8701 -8.95001
206 1 14.1525 1.57172 14.1525 -8.94975
207 1 15.7248 -3.63072e-05 12.5796 -8.94965
208 1 17.2972 1.57209 14.1521 -8.94964
339 1 6.28916 9.43427 18.8696 -8.94967
210 1 20.4417 1.57233 14.152 -8.94962
211 1 22.014 3.1447 12.5795 -8.94962
212 1 1.57227 4.717 14.152 -8.94973
213 1 3.14449 3.14474 12.5795 -8.94971
214 1 4.7165 4.71654 14.1524 -8.94944
215 1 6.28886 3.14403 12.58 -8.94939
216 1 7.86125 4.71548 14.1532 -8.94998
217 1 9.43427 3.14326 12.5802 -8.94991
218 1 11.0072 4.7152 14.1533 -8.94931
219 1 12.5802 3.14291 12.5803 -8.95008
220 1 14.1533 4.71481 14.1534 -8.94975
221 1 15.7251 3.14394 12.5798 -8.94962
222 1 17.2977 4.71632 14.1524 -8.94967
223 1 18.8696 3.14446 12.5795 -8.94962
224 1 20.4419 4.71686 14.1521 -8.94965
225 1 0.000252996 6.28933 12.5795 -8.94967
226 1 1.57217 7.86166 14.1523 -8.94971
227 1 3.14454 6.28935 12.5795 -8.95001
228 1 4.71597 7.86115 14.1528 -8.94958
229 1 6.28843 6.28807 12.5806 -8.94887
230 1 7.85909 7.85835 14.1561 -8.94656
231 1 9.43377 6.28534 12.5815 -8.9507
232 1 11.0073 7.85894 14.1554 -8.94918
233 1 12.5819 6.28419 12.5823 -8.9513
234 1 14.1571 7.85657 14.1573 -8.94326
235 1 15.726 6.28785 12.5803 -8.94965
236 1 17.2988 7.86073 14.1532 -8.95003
237 1 18.87 6.28893 12.5797 -8.94963
238 1 20.4422 7.86155 14.1523 -8.94975
239 1 22.0142 9.4341 12.5797 -8.94981
240 1 3.14392 9.43397 12.58 -8.94991
241 1 6.28694 9.43317 12.5817 -8.9507
242 1 9.42593 9.42437 12.5896 -9.02652
243 1 12.5943 9.41929 12.5942 -8.99958
244 1 15.7286 9.4323 12.5816 -8.95266
245 1 18.8708 9.4337 12.5801 -8.9499
246 1 22.0138 0.000116886 15.7245 -8.94962
247 1 1.5722 1.57237 17.2969 -8.94956
248 1 3.14438 0.000182272 15.7246 -8.94956
249 1 4.71683 1.57224 17.2971 -8.94956
338 1 3.14449 9.43437 18.8693 -8.9496
251 1 7.86186 1.57209 17.2971 -8.94958
337 1 22.0139 9.43441 18.8693 -8.9496
253 1 11.007 1.572 17.2972 -8.94958
336 1 20.4417 7.86193 20.4416 -8.9496
255 1 14.1521 1.57197 17.2972 -8.94959
335 1 18.8696 6.2893 18.8695 -8.94959
257 1 17.2971 1.57208 17.2971 -8.94951
258 1 18.8694 9.60093e-06 15.7245 -8.94964
259 1 20.4417 1.5723 17.2969 -8.9496
260 1 3.70743e-05 3.14465 15.7245 -8.94964
261 1 1.57221 4.71696 17.297 -8.94958
262 1 3.14441 3.14457 15.7246 -8.94957
263 1 4.7166 4.71663 17.2973 -8.94928
264 1 6.28904 3.14416 15.725 -8.94963
265 1 7.8617 4.71645 17.2975 -8.94961
266 1 9.43434 3.14394 15.7251 -8.94949
267 1 11.007 4.71631 17.2976 -8.94955
268 1 12.5797 3.14383 15.7252 -8.94953
269 1 14.1524 4.71626 17.2977 -8.94966
270 1 15.7251 3.14383 15.7251 -8.94953
271 1 17.2976 4.71639 17.2975 -8.94908
272 1 18.8696 3.14442 15.7246 -8.94964
273 1 20.4418 4.71687 17.297 -8.94957
274 1 22.014 6.28929 15.7246 -8.94965
275 1 1.57224 7.86185 17.297 -8.94962
276 1 3.14425 6.28915 15.7248 -8.94958
277 1 4.71661 7.86164 17.2973 -8.94959
278 1 6.28833 6.28818 15.7259 -8.94859
279 1 7.86131 7.86105 17.2983 -8.94994
280 1 9.4342 6.28805 15.7259 -8.94935
281 1 11.0071 7.86093 17.2985 -8.94938
282 1 12.5801 6.28786 15.7262 -8.94968
283 1 14.1531 7.86075 17.2988 -8.95004
284 1 15.7263 6.28754 15.7264 -8.94783
285 1 17.2977 7.86147 17.2976 -8.94953
286 1 18.8701 6.28894 15.725 -8.94962
287 1 20.4419 7.8618 17.2971 -8.9496
288 1 0.000147259 9.4343 15.7247 -8.94965
289 1 3.14429 9.43423 15.7249 -8.94961
290 1 6.28863 9.43389 15.7258 -8.94957
291 1 9.43367 9.4328 15.728 -8.95051
292 1 12.5813 9.43243 15.729 -8.9519
293 1 15.7261 9.43349 15.7262 -8.94913
294 1 18.87 9.43413 15.725 -8.94961
334 1 17.2972 7.8618 20.4418 -8.9496
296 1 1.57225 1.57236 20.4415 -8.94952
333 1 15.725 6.28888 18.87 -8.94961
298 1 4.71702 1.5723 20.4416 -8.94962
299 1 6.28947 -2.79921e-05 18.8693 -8.94964
300 1 7.86196 1.57225 20.4416 -8.9496
332 1 14.1524 7.86154 20.4419 -8.94984
302 1 11.007 1.5722 20.4416 -8.9496
331 1 12.5797 6.28889 18.8699 -8.94955
304 1 14.152 1.57219 20.4416 -8.94961
305 1 15.7245 -0.000113504 18.8693 -8.94964
306 1 17.2969 1.57223 20.4416 -8.9496
330 1 11.007 7.86155 20.4418 -8.94965
308 1 20.4416 1.57233 20.4416 -8.94948
309 1 22.0139 3.14465 18.8693 -8.94954
310 1 1.57224 4.71704 20.4415 -8.94958
311 1 3.14451 3.14458 18.8693 -8.94947
312 1 4.71686 4.71688 20.4416 -8.94955
313 1 6.28936 3.14446 18.8694 -8.94962
314 1 7.86186 4.7168 20.4417 -8.94959
315 1 9.43442 3.14437 18.8695 -8.94959
316 1 11.007 4.71675 20.4417 -8.94959
317 1 12.5796 3.14432 18.8695 -8.94959
318 1 14.1521 4.71674 20.4418 -8.9496
319 1 15.7246 3.14434 18.8695 -8.94962
320 1 17.2971 4.71679 20.4417 -8.94952
321 1 18.8695 3.14448 18.8694 -8.94941
322 1 20.4417 4.71703 20.4416 -8.94958
323 1 4.20978e-05 6.28945 18.8693 -8.9496
324 1 1.57224 7.86193 20.4415 -8.9496
325 1 3.14447 6.28937 18.8693 -8.9496
326 1 4.71682 7.86182 20.4415 -8.94964
327 1 6.2891 6.28905 18.8697 -8.94962
328 1 7.86167 7.86158 20.4417 -8.94977
329 1 9.43434 6.28894 18.8698 -8.94954
593 1 14.1529 11.0067 17.2986 -8.94969
592 1 11.0071 11.0067 17.2995 -8.95199
515 1 11.0358 10.9503 11.0981 -9.37556
517 1 17.2999 11.0056 11.0081 -8.94789
518 1 20.4425 11.0065 11.0073 -8.94976
540 1 1.5721 11.0068 14.1523 -8.94964
541 1 4.71603 11.0068 14.1529 -8.94931
542 1 7.86057 11.0064 14.1552 -8.94958
544 1 14.1555 11.0056 14.1562 -8.94778
545 1 17.2986 11.0066 14.1531 -8.94976
546 1 20.4421 11.0068 14.1523 -8.94971
591 1 7.86157 11.0069 17.298 -8.94986
7 1 9.43449 4.28969e-05 22.0137 -8.94961
9 1 12.5795 6.09778e-06 22.0138 -8.94961
13 1 18.8692 3.30501e-05 22.0138 -8.94957
19 1 6.28944 3.14459 22.0138 -8.94962
25 1 15.7245 3.14452 22.0139 -8.94963
31 1 3.14448 6.28938 22.0137 -8.9496
35 1 9.43439 6.28915 22.0137 -8.94957
37 1 12.5796 6.28914 22.0138 -8.94959
41 1 18.8694 6.2894 22.0139 -8.94962
43 1 22.0138 9.43441 22.0138 -8.9496
15 1 22.0139 3.14471 22.0138 -8.94952
176 1 1.57219 1.57252 11.007 -8.94961
687 2 10.988 12.5386 10.1979 0.65056
511 1 18.8694 18.8695 9.43448 -8.94961
346 1 7.86157 11.007 1.57092 -8.94986
347 1 11.007 11.007 1.56951 -8.95289
348 1 14.1523 11.007 1.57156 -8.94942
510 1 15.725 18.8698 9.43441 -8.94955
539 1 20.4416 20.4418 11.007 -8.94961
154 1 18.8694 22.014 9.43447 -8.9496
352 1 1.572 14.152 1.57194 -8.9496
353 1 3.1444 12.5794 -0.000352795 -8.94958
354 1 4.71644 14.1522 1.57143 -8.94961
538 1 17.2971 20.4418 11.007 -8.94959
356 1 7.86134 14.1526 1.5707 -8.9499
357 1 9.43423 12.5798 -0.00104322 -8.94976
358 1 11.007 14.1524 1.57113 -8.94944
359 1 12.5798 12.5798 -0.000792047 -8.9499
360 1 14.1526 14.1526 1.57132 -8.94954
393 1 1.57176 11.0068 4.71656 -8.94951
362 1 17.2971 14.152 1.57206 -8.94969
363 1 18.8693 12.5794 -8.62242e-05 -8.9496
364 1 20.4415 14.1519 1.57212 -8.94961
365 1 -0.000124951 15.7244 -0.000190511 -8.9496
366 1 1.57198 17.297 1.57191 -8.94959
149 1 3.14431 22.0143 9.43449 -8.94958
368 1 4.71651 17.2974 1.57142 -8.94962
369 1 6.28914 15.7248 -0.000746492 -8.94975
370 1 7.86178 17.2974 1.57147 -8.94963
109 1 15.7248 22.0141 6.28925 -8.94961
372 1 11.007 17.2973 1.57162 -8.94955
103 1 6.28893 22.0146 6.28897 -8.94975
374 1 14.1521 17.2972 1.57183 -8.9497
375 1 15.7247 15.7247 -0.000334287 -8.94961
376 1 17.2971 17.2971 1.57196 -8.9495
99 1 -0.000133588 22.0141 6.28949 -8.94961
378 1 20.4415 17.2969 1.57209 -8.94962
394 1 4.71576 11.0068 4.71562 -8.94903
380 1 1.57207 20.4418 1.57202 -8.94941
381 1 3.14444 18.8694 -0.000359145 -8.94957
382 1 4.71688 20.4419 1.5719 -8.94964
62 1 18.8693 22.014 3.14456 -8.94959
384 1 7.86194 20.4419 1.57191 -8.94962
385 1 9.43449 18.8694 -0.000399368 -8.9496
386 1 11.007 20.4418 1.57198 -8.94961
387 1 12.5795 18.8694 -0.000328295 -8.9496
388 1 14.152 20.4417 1.57205 -8.94962
58 1 12.5796 22.0141 3.14436 -8.9496
390 1 17.2969 20.4417 1.57212 -8.94959
391 1 18.8693 18.8693 -0.000148145 -8.94954
392 1 20.4415 20.4417 1.57217 -8.94952
509 1 12.5803 18.8713 9.43364 -8.94806
508 1 9.43341 18.8734 9.43357 -8.95088
395 1 7.86093 11.007 4.7135 -8.95247
396 1 11.0072 11.0073 4.70462 -8.96514
397 1 14.1522 11.0069 4.71571 -8.95125
507 1 6.28818 18.8711 9.43433 -8.94931
506 1 3.14387 18.87 9.43446 -8.94955
400 1 -0.000230144 12.5794 3.14437 -8.94959
401 1 1.57155 14.1521 4.71647 -8.94957
402 1 3.14398 12.5795 3.14395 -8.94956
403 1 4.71526 14.1528 4.71537 -8.94913
404 1 6.28835 12.5798 3.14289 -8.94976
405 1 7.85984 14.154 4.7129 -8.95266
406 1 9.43334 12.5807 3.14161 -8.94789
407 1 11.0065 14.1528 4.71484 -8.95052
408 1 12.5806 12.5808 3.14197 -8.9484
409 1 14.1536 14.1536 4.71494 -8.94888
410 1 15.7249 12.5795 3.14418 -8.94961
411 1 17.2975 14.1521 4.71657 -8.95015
412 1 18.8694 12.5794 3.14441 -8.94961
413 1 20.4416 14.152 4.71674 -8.94966
414 1 22.0136 15.7245 3.14432 -8.9496
415 1 1.57153 17.2974 4.71645 -8.94961
416 1 3.14386 15.7249 3.14383 -8.94953
417 1 4.71513 17.2988 4.71516 -8.94783
418 1 6.28832 15.7256 3.14267 -8.95003
419 1 7.86121 17.2985 4.71549 -8.94965
420 1 9.43424 15.7255 3.14317 -8.94974
421 1 11.0071 17.2981 4.71588 -8.9489
422 1 12.5796 15.7251 3.14368 -8.95005
423 1 14.1526 17.2978 4.71619 -8.94954
424 1 15.7251 15.7251 3.14377 -8.94934
425 1 17.2974 17.2974 4.71646 -8.94913
426 1 18.8694 15.7245 3.14434 -8.94975
427 1 20.4416 17.2972 4.71671 -8.94956
428 1 -0.000263448 18.8695 3.14436 -8.94952
429 1 1.57196 20.442 4.71685 -8.94962
430 1 3.14397 18.8699 3.14391 -8.94908
431 1 4.71637 20.4425 4.71637 -8.94953
432 1 6.28907 18.87 3.14381 -8.94967
433 1 7.86173 20.4424 4.71641 -8.94962
434 1 9.43442 18.8699 3.14397 -8.94957
435 1 11.0071 20.4422 4.71652 -8.94954
436 1 12.5796 18.8697 3.14411 -8.94956
437 1 14.1523 20.442 4.71662 -8.94964
438 1 15.7247 18.8696 3.14424 -8.94958
439 1 17.2971 20.4419 4.71683 -8.94959
440 1 18.8693 18.8695 3.1444 -8.94948
441 1 20.4415 20.4418 4.71697 -8.94963
505 1 -0.000257419 18.8696 9.4345 -8.94959
504 1 18.87 15.7248 9.43447 -8.94939
444 1 7.85028 11.0025 7.85001 -9.01841
503 1 15.726 15.725 9.43457 -8.94945
446 1 14.1561 11.0016 7.85855 -9.03343
502 1 12.5807 15.7264 9.4323 -9.00189
501 1 9.43073 15.7363 9.43169 -9.01854
449 1 22.0136 12.5794 6.28915 -8.94971
450 1 1.57107 14.1523 7.8616 -8.95024
451 1 3.14292 12.5796 6.28854 -8.94969
452 1 4.71249 14.1539 7.8602 -8.9519
453 1 6.28525 12.5807 6.28601 -8.94778
454 1 7.84727 14.167 7.84722 -8.99958
455 1 9.43051 12.5828 6.28534 -9.05505
456 1 11.0069 14.1559 7.85703 -9.04137
457 1 12.5829 12.5847 6.28542 -9.03343
458 1 14.157 14.1571 7.85824 -8.97909
459 1 15.7258 12.5794 6.28924 -8.95125
460 1 17.2995 14.1531 7.86084 -8.94886
461 1 18.8699 12.5793 6.28913 -8.94942
462 1 20.4421 14.1522 7.86166 -8.94999
463 1 -0.00039549 15.7248 6.28911 -8.94984
464 1 1.57156 17.2974 7.86179 -8.94955
465 1 3.14266 15.7256 6.28838 -8.95004
466 1 4.71532 17.2985 7.86137 -8.94968
467 1 6.28417 15.7297 6.28441 -8.94326
468 1 7.85915 17.3021 7.85958 -8.9513
469 1 9.43382 15.7278 6.28679 -8.94915
470 1 11.0073 17.2998 7.86087 -8.94865
471 1 12.5802 15.7269 6.28753 -8.95033
472 1 14.153 17.2986 7.86123 -8.95063
473 1 15.7262 15.7261 6.28798 -8.94767
474 1 17.2974 17.2974 7.86181 -8.94991
475 1 18.87 15.725 6.28891 -8.94945
476 1 20.4416 17.2972 7.86188 -8.94959
477 1 22.0136 18.8696 6.28936 -8.9496
478 1 1.57195 20.442 7.86193 -8.94959
479 1 3.14383 18.8701 6.28908 -8.94966
480 1 4.71631 20.4425 7.86173 -8.94953
481 1 6.28804 18.8715 6.28813 -8.94975
482 1 7.86113 20.4434 7.86126 -8.95008
483 1 9.43428 18.8709 6.28855 -8.9498
484 1 11.0071 20.4428 7.86148 -8.94955
485 1 12.5799 18.8704 6.28871 -8.94984
486 1 14.1525 20.4423 7.86155 -8.94956
487 1 15.725 18.87 6.28905 -8.94967
488 1 17.2971 20.4418 7.86189 -8.94964
489 1 18.8694 18.8696 6.28936 -8.94971
490 1 20.4415 20.4418 7.86197 -8.94961
491 1 -4.51297e-05 12.5794 9.43447 -8.95051
492 1 3.14199 12.5796 9.43435 -8.95199
493 1 6.27872 12.5797 9.43345 -9.01727
494 1 9.34333 12.636 9.4057 -9.37556
495 1 12.634 12.5808 9.41712 -9.22919
496 1 15.7369 12.5791 9.43425 -8.96514
497 1 18.872 12.5793 9.43446 -8.95289
498 1 22.0136 15.7248 9.43448 -8.94965
499 1 3.14298 15.7254 9.4344 -8.94938
500 1 6.28605 15.7274 9.4342 -8.94918
56 1 9.43447 22.0141 3.14432 -8.9496
52 1 3.14436 22.0142 3.14434 -8.94951
516 1 14.1561 11.0035 11.011 -9.05505
519 1 1.57135 14.1523 11.0072 -8.95001
520 1 4.71345 14.1535 11.0078 -8.95051
521 1 7.85187 14.1619 11.0155 -9.02652
529 1 11.0073 17.3075 11.0076 -8.96043
398 1 17.2973 11.0068 4.71656 -8.94961
1 1 -9.029e-05 22.014 -0.000110642 -8.94948
5 1 6.28949 22.014 -0.000194141 -8.94962
399 1 20.4416 11.0068 4.71676 -8.94956
530 1 14.1524 17.2979 11.0068 -8.95078
532 1 20.4417 17.2972 11.0071 -8.94957
534 1 4.71638 20.4424 11.0071 -8.94949
11 1 15.7244 22.0139 -0.00011306 -8.94962
686 1 20.4415 20.4416 20.4415 -8.94952
685 1 18.8693 18.8693 18.8693 -8.9495
514 1 7.85845 11.006 11.0137 -9.03249
684 1 17.2968 20.4416 20.4415 -8.94964
307 1 18.8693 22.0139 18.8693 -8.94953
683 1 15.7244 18.8693 18.8692 -8.94975
682 1 14.152 20.4416 20.4415 -8.94962
303 1 12.5795 22.0138 18.8693 -8.94961
301 1 9.43448 22.0138 18.8693 -8.94961
297 1 3.14456 22.014 18.8693 -8.94956
522 1 11.007 14.1925 11.0243 -9.25713
523 1 14.1564 14.1546 11.0098 -8.99707
524 1 17.2997 14.153 11.008 -8.94835
525 1 20.4423 14.1522 11.0073 -8.94988
526 1 1.57167 17.2974 11.0071 -8.94954
527 1 4.71555 17.2983 11.0073 -8.94935
528 1 7.85999 17.301 11.0077 -8.9507
295 1 -5.98174e-05 22.014 18.8692 -8.94952
639 1 4.71682 11.0069 20.4414 -8.94963
531 1 17.2974 17.2974 11.0071 -8.94955
643 1 17.2971 11.0069 20.4417 -8.94959
256 1 15.7248 22.0138 15.7248 -8.94956
383 1 6.28942 18.8695 22.0135 -8.94965
535 1 7.8613 20.4431 11.0072 -8.94991
536 1 11.0071 20.4439 11.0072 -8.9523
537 1 14.1524 20.4421 11.007 -8.94951
377 1 18.8693 15.7244 22.0138 -8.94964
389 1 15.7245 18.8693 22.0137 -8.94966
681 1 12.5795 18.8692 18.8691 -8.94962
680 1 11.007 20.4416 20.4414 -8.94961
679 1 9.43451 18.8692 18.8691 -8.94962
543 1 11.008 11.0067 14.1628 -9.01727
678 1 7.862 20.4416 20.4414 -8.94962
677 1 6.28947 18.8693 18.8692 -8.94973
676 1 4.71702 20.4417 20.4414 -8.94964
547 1 22.014 12.5794 12.5797 -8.94975
548 1 1.57191 14.152 14.1523 -8.94967
549 1 3.14352 12.5795 12.5799 -8.94986
550 1 4.71573 14.1524 14.1528 -8.94957
551 1 6.28627 12.5799 12.5809 -8.94958
552 1 7.85979 14.1532 14.1545 -8.9507
553 1 9.42779 12.5804 12.583 -9.03249
554 1 11.0066 14.1494 14.1493 -8.99781
555 1 12.5915 12.5839 12.5912 -9.01841
556 1 14.1557 14.1542 14.1555 -8.94578
557 1 15.728 12.5793 12.5805 -8.95247
558 1 17.2983 14.1523 14.1528 -8.95026
559 1 18.8706 12.5793 12.5799 -8.94986
560 1 20.442 14.152 14.1523 -8.94976
561 1 -0.000172842 15.7247 12.5798 -8.94977
562 1 1.57179 17.2973 14.1524 -8.94962
563 1 3.14316 15.7253 12.5802 -8.94994
564 1 4.71562 17.2981 14.1531 -8.94859
565 1 6.28541 15.728 12.5824 -8.94656
566 1 7.86087 17.2983 14.153 -8.94887
567 1 9.43088 15.7275 12.5811 -8.98121
568 1 11.007 17.2968 14.1515 -8.94974
569 1 12.5831 15.7267 12.5812 -8.98201
570 1 14.1531 17.298 14.1529 -8.94917
571 1 15.7265 15.7256 12.5805 -8.94922
572 1 17.2976 17.2974 14.1525 -8.9494
573 1 18.8702 15.725 12.58 -8.94946
574 1 20.4417 17.2971 14.1523 -8.94956
575 1 22.0137 18.8695 12.5796 -8.94959
576 1 1.57204 20.4419 14.1521 -8.94962
577 1 3.14398 18.8699 12.5798 -8.94961
578 1 4.71647 20.4422 14.1524 -8.94963
579 1 6.28831 18.8708 12.5802 -8.94998
580 1 7.86145 20.4423 14.1526 -8.94939
581 1 9.43348 18.8716 12.5805 -8.9484
582 1 11.007 20.4418 14.1523 -8.94917
583 1 12.5806 18.8712 12.5805 -8.94838
584 1 14.1525 20.442 14.1525 -8.94947
585 1 15.7249 18.8697 12.5796 -8.95006
586 1 17.2971 20.4417 14.1521 -8.94973
587 1 18.8694 18.8695 12.5796 -8.94966
588 1 20.4416 20.4417 14.152 -8.94962
589 1 1.57223 11.0069 17.297 -8.9496
590 1 4.71667 11.0069 17.2973 -8.94955
675 1 3.1445 18.8694 18.8693 -8.94958
674 1 1.57221 20.4417 20.4415 -8.94954
673 1 22.0138 18.8693 18.8692 -8.94958
594 1 17.2975 11.0068 17.2975 -8.94956
595 1 20.4418 11.0069 17.2971 -8.94958
596 1 6.36899e-05 12.5794 15.7247 -8.94963
597 1 1.57217 14.152 17.297 -8.9496
598 1 3.14421 12.5795 15.7248 -8.94955
599 1 4.71663 14.1521 17.2972 -8.94961
600 1 6.28855 12.5796 15.7254 -8.94931
601 1 7.86146 14.1524 17.2976 -8.94991
602 1 9.43365 12.5801 15.7265 -8.94856
603 1 11.007 14.1521 17.2968 -8.94807
604 1 12.5812 12.5802 15.728 -8.95116
605 1 14.1528 14.1525 17.298 -8.94984
606 1 15.7259 12.5795 15.7257 -8.94903
607 1 17.2974 14.1521 17.2973 -8.9496
608 1 18.8699 12.5794 15.7249 -8.94953
609 1 20.4418 14.152 17.297 -8.94959
610 1 22.0139 15.7245 15.7247 -8.94964
611 1 1.57213 17.297 17.297 -8.9496
612 1 3.14414 15.7247 15.7249 -8.94959
613 1 4.71669 17.2972 17.2972 -8.94958
614 1 6.28864 15.7252 15.7255 -8.94958
615 1 7.86197 17.297 17.2969 -8.95001
616 1 9.43469 15.7243 15.7243 -8.95099
617 1 11.007 17.2969 17.2967 -8.94942
618 1 12.5792 15.7241 15.7242 -8.95126
619 1 14.152 17.2969 17.2969 -8.9501
620 1 15.7256 15.7253 15.7256 -8.94845
621 1 17.2972 17.2972 17.2972 -8.94929
622 1 18.8697 15.7247 15.7248 -8.94968
623 1 20.4417 17.2969 17.297 -8.9496
624 1 -0.000137841 18.8694 15.7246 -8.94955
625 1 1.57214 20.4417 17.297 -8.94947
626 1 3.14415 18.8697 15.7249 -8.94928
627 1 4.71686 20.4418 17.2971 -8.94957
628 1 6.28905 18.8698 15.725 -8.94944
629 1 7.86196 20.4416 17.297 -8.94971
630 1 9.43452 18.8693 15.7246 -8.94986
631 1 11.007 20.4415 17.2969 -8.94962
632 1 12.5795 18.8692 15.7246 -8.94983
633 1 14.152 20.4415 17.297 -8.94971
634 1 15.7248 18.8696 15.7248 -8.94945
635 1 17.297 20.4416 17.297 -8.94954
636 1 18.8694 18.8694 15.7246 -8.94954
637 1 20.4416 20.4417 17.2969 -8.94956
672 1 20.4416 17.2968 20.4415 -8.94961
671 1 18.8694 15.7245 18.8693 -8.94962
670 1 17.297 17.297 20.4415 -8.94955
669 1 15.7248 15.7247 18.8695 -8.94958
668 1 14.152 17.2969 20.4414 -8.94964
667 1 12.5795 15.7245 18.869 -8.9495
666 1 11.007 17.297 20.4412 -8.9496
645 1 22.0139 12.5794 18.8693 -8.9496
646 1 1.57219 14.1519 20.4414 -8.9496
647 1 3.14448 12.5794 18.8693 -8.9496
648 1 4.71681 14.152 20.4413 -8.94965
649 1 6.28918 12.5795 18.8694 -8.94964
650 1 7.86173 14.1522 20.4412 -8.94981
651 1 9.43432 12.5797 18.8696 -8.94982
652 1 11.007 14.1522 20.4412 -8.94938
653 1 12.5798 12.5797 18.87 -8.95025
654 1 14.1523 14.1523 20.4415 -8.94982
655 1 15.7249 12.5796 18.8697 -8.94951
656 1 17.2971 14.152 20.4416 -8.94958
657 1 18.8695 12.5795 18.8694 -8.9496
658 1 20.4416 14.1519 20.4415 -8.9496
659 1 -4.19664e-05 15.7244 18.8692 -8.9496
660 1 1.57218 17.2969 20.4414 -8.9496
661 1 3.14446 15.7245 18.8692 -8.94962
662 1 4.71686 17.297 20.4413 -8.94965
663 1 6.28922 15.7247 18.8693 -8.94971
664 1 7.86196 17.297 20.4412 -8.94967
665 1 9.43449 15.7245 18.869 -8.94955
197 1 -9.3242e-05 22.0141 12.5795 -8.9496
199 1 3.14434 22.0142 12.5796 -8.94958
203 1 9.43422 22.0143 12.58 -8.94981
205 1 12.5799 22.0141 12.58 -8.94988
209 1 18.8694 22.014 12.5795 -8.94961
250 1 6.28918 22.014 15.7248 -8.94956
351 1 22.0138 12.5794 22.0137 -8.9496
355 1 6.28913 12.5796 22.0132 -8.94971
367 1 3.14437 15.7245 22.0135 -8.9496
371 1 9.43441 15.7248 22.0132 -8.94961
373 1 12.5796 15.7247 22.0134 -8.94956
361 1 15.7247 12.5795 22.0137 -8.94956
379 1 22.0138 18.8693 22.0137 -8.94958
533 1 1.57199 20.442 11.0071 -8.94959
