ITEM: TIMESTEP
83
ITEM: NUMBER OF ATOMS
688
ITEM: BOX BOUNDS pp pp pp
0.0000000000000000e+00 2.2013900999999997e+01
0.0000000000000000e+00 2.2013900999999997e+01
0.0000000000000000e+00 2.2013900999999997e+01
ITEM: ATOMS id type x y z c_pot
513 1 4.71507 11.0064 11.0077 -8.94856
2 1 1.57219 1.57249 1.57219 -8.94954
175 1 18.8704 9.43384 9.43456 -8.94943
4 1 4.71697 1.57248 1.57211 -8.94964
512 1 1.57197 11.0067 11.0071 -8.94981
6 1 7.86197 1.57242 1.57211 -8.94961
448 1 20.4423 11.0065 7.86169 -8.9499
8 1 11.007 1.57234 1.57215 -8.9496
447 1 17.2995 11.0055 7.86091 -8.94838
10 1 14.152 1.57228 1.57219 -8.94963
174 1 15.7268 9.43343 9.43507 -8.95051
12 1 17.2969 1.5723 1.57225 -8.94959
445 1 11.0237 11.006 7.808 -9.22752
14 1 20.4415 1.5724 1.57229 -8.94957
151 1 9.43421 0.000774132 9.43424 -8.95047
16 1 1.5722 4.71703 1.57218 -8.94949
17 1 3.14458 3.14467 -8.79349e-05 -8.94956
18 1 4.71687 4.71692 1.57208 -8.94954
443 1 4.71333 11.0063 7.8602 -8.95142
20 1 7.86191 4.71687 1.5721 -8.94967
21 1 9.43447 3.14454 -4.13855e-05 -8.94961
22 1 11.007 4.71684 1.57214 -8.94961
23 1 12.5795 3.14449 1.30936e-06 -8.94961
24 1 14.1521 4.71678 1.57219 -8.94971
442 1 1.57149 11.0067 7.86163 -8.95028
26 1 17.2971 4.71685 1.57223 -8.94949
27 1 18.8693 3.14458 2.4694e-05 -8.94952
28 1 20.4416 4.71701 1.57226 -8.94954
29 1 -2.35916e-05 6.28947 -6.47107e-05 -8.94961
30 1 1.57213 7.86185 1.57207 -8.94961
193 1 11.01 7.8502 11.011 -9.01893
32 1 4.71663 7.86168 1.57172 -8.94967
33 1 6.28923 6.28918 -0.000232986 -8.94955
34 1 7.86148 7.8614 1.57132 -8.94944
192 1 7.86084 7.8593 11.0105 -8.98122
36 1 11.007 7.86156 1.57155 -8.94939
191 1 4.71746 7.86217 11.0067 -8.95095
38 1 14.1526 7.86135 1.57162 -8.94944
39 1 15.7248 6.28912 8.9443e-07 -8.94957
40 1 17.2971 7.86178 1.57218 -8.94975
190 1 1.57267 7.86183 11.007 -8.94954
42 1 20.4416 7.86189 1.57221 -8.94964
349 1 17.297 11.0069 1.57216 -8.94961
44 1 3.14443 9.43436 -0.000316825 -8.94958
345 1 4.71649 11.0069 1.57144 -8.94952
688 2 10.2463 11.0533 9.45712 0.645544
47 1 12.5798 9.43412 -0.000536361 -8.94997
48 1 15.7247 9.43432 3.10945e-06 -8.94966
49 1 18.8694 9.43439 7.66473e-06 -8.94961
50 1 22.0137 0.000247999 3.14458 -8.9496
51 1 1.57218 1.57262 4.71702 -8.94964
173 1 12.5846 9.43054 9.43494 -9.04202
53 1 4.71672 1.57265 4.71672 -8.94958
54 1 6.28934 0.000441758 3.14426 -8.94964
55 1 7.86188 1.57259 4.71672 -8.94966
172 1 9.41798 9.39561 9.43472 -9.25634
57 1 11.0071 1.57242 4.71674 -8.94961
171 1 6.29258 9.43733 9.4349 -8.99722
59 1 14.1522 1.57224 4.71677 -8.9496
60 1 15.7245 9.44251e-05 3.14445 -8.9496
61 1 17.297 1.57233 4.71694 -8.9496
170 1 3.14486 9.43436 9.43448 -8.94797
63 1 20.4416 1.57246 4.71707 -8.94962
64 1 -2.79577e-05 3.14477 3.14466 -8.94965
65 1 1.5723 4.71713 4.71707 -8.94976
66 1 3.14449 3.14476 3.1445 -8.94956
67 1 4.71674 4.71684 4.71671 -8.94952
68 1 6.28939 3.14469 3.1444 -8.94974
69 1 7.86192 4.71679 4.71662 -8.95007
70 1 9.43449 3.14461 3.14442 -8.9496
71 1 11.0071 4.71668 4.7166 -8.94956
72 1 12.5796 3.14453 3.14444 -8.94965
73 1 14.1524 4.71642 4.71662 -8.94967
74 1 15.7246 3.14448 3.14449 -8.94959
75 1 17.2972 4.71674 4.71686 -8.94958
76 1 18.8694 3.14463 3.14462 -8.94959
77 1 20.4417 4.71701 4.71705 -8.94965
78 1 22.0139 6.28934 3.14449 -8.94954
79 1 1.57195 7.86161 4.71666 -8.94959
80 1 3.14429 6.28919 3.14427 -8.94927
81 1 4.7159 7.86103 4.71585 -8.94837
82 1 6.28906 6.28903 3.14394 -8.94938
83 1 7.86099 7.86088 4.71503 -8.94912
84 1 9.43443 6.28905 3.14412 -8.94956
85 1 11.0069 7.86153 4.71564 -8.94945
86 1 12.5797 6.28902 3.14418 -8.94991
87 1 14.1534 7.86041 4.7155 -8.94779
88 1 15.725 6.28892 3.14417 -8.94917
89 1 17.2977 7.86129 4.71649 -8.94934
90 1 18.8695 6.28925 3.14448 -8.94951
91 1 20.4418 7.86163 4.71679 -8.9496
92 1 -0.000171729 9.43431 3.1444 -8.94958
93 1 3.14412 9.43423 3.14401 -8.94959
94 1 6.2886 9.43409 3.14303 -8.95027
95 1 9.43349 9.43346 3.14178 -8.94836
96 1 12.5806 9.43332 3.14209 -8.94877
97 1 15.7249 9.43424 3.14413 -8.95016
98 1 18.8694 9.43431 3.14445 -8.9497
169 1 0.000386473 9.43412 9.43448 -8.94936
100 1 1.57221 1.57265 7.86198 -8.94961
101 1 3.14428 0.000583576 6.28934 -8.94959
102 1 4.71676 1.5728 7.86188 -8.94955
168 1 18.8699 6.289 9.43448 -8.94955
104 1 7.86156 1.57241 7.86157 -8.94985
105 1 9.43439 0.000614043 6.28904 -8.94962
106 1 11.0072 1.57207 7.86162 -8.94964
107 1 12.5797 0.000276841 6.28909 -8.94966
108 1 14.1524 1.57214 7.86175 -8.94966
167 1 15.7257 6.28818 9.43449 -8.94889
110 1 17.2971 1.57224 7.86192 -8.9496
111 1 18.8693 0.00013807 6.28946 -8.94963
112 1 20.4416 1.57244 7.86199 -8.94961
113 1 22.0139 3.14482 6.28954 -8.94962
114 1 1.57246 4.7172 7.86202 -8.94962
115 1 3.14458 3.14497 6.2895 -8.94971
116 1 4.71709 4.71733 7.86205 -8.94984
117 1 6.28904 3.1445 6.289 -8.94948
118 1 7.86113 4.7155 7.86097 -8.9483
119 1 9.43452 3.14442 6.28919 -8.94952
120 1 11.0079 4.71524 7.86126 -8.94808
121 1 12.5799 3.14408 6.28904 -8.94956
122 1 14.1528 4.71593 7.8617 -8.94984
123 1 15.7248 3.14434 6.28928 -8.94964
124 1 17.2974 4.71659 7.86188 -8.94955
125 1 18.8694 3.14461 6.28947 -8.94961
126 1 20.4419 4.71697 7.86198 -8.9496
127 1 0.000181806 6.28942 6.28951 -8.94963
128 1 1.57255 7.86186 7.862 -8.94947
129 1 3.1447 6.28956 6.28955 -8.95011
130 1 4.71748 7.86243 7.8623 -8.9512
131 1 6.28885 6.28859 6.28856 -8.94941
132 1 7.86083 7.86034 7.85872 -8.98206
133 1 9.43479 6.28865 6.28918 -8.95083
134 1 11.0092 7.86032 7.86103 -9.00183
135 1 12.5802 6.28792 6.28864 -8.95061
136 1 14.154 7.85952 7.86145 -8.95036
137 1 15.7253 6.28852 6.28902 -8.94955
138 1 17.2978 7.86117 7.8619 -8.95004
139 1 18.8697 6.28915 6.2894 -8.9497
140 1 20.4421 7.86163 7.86193 -8.94955
141 1 22.0138 9.43409 6.28919 -8.94983
142 1 3.14341 9.43385 6.28858 -8.94988
143 1 6.28585 9.4322 6.28556 -8.94555
144 1 9.43168 9.43206 6.28502 -8.99675
145 1 12.583 9.42954 6.28494 -8.97914
146 1 15.7265 9.43281 6.28807 -8.94884
147 1 18.8702 9.43376 6.28896 -8.94953
148 1 -0.000125036 0.000269184 9.43448 -8.9496
166 1 12.5807 6.28667 9.43431 -8.94867
150 1 6.28894 0.000786159 9.43439 -8.94955
165 1 9.43412 6.27937 9.43434 -8.96005
152 1 12.5799 0.000348719 9.43426 -8.94964
153 1 15.7247 -1.3671e-06 9.43442 -8.94961
164 1 6.29028 6.28987 9.43446 -8.94979
155 1 0.000115194 3.14478 9.43448 -8.94961
156 1 3.14464 3.14494 9.43448 -8.94962
157 1 6.28926 3.14469 9.43445 -8.94916
158 1 9.43438 3.14258 9.43439 -8.95222
159 1 12.58 3.14354 9.43439 -8.94954
160 1 15.725 3.14407 9.43444 -8.94954
161 1 18.8695 3.14451 9.43447 -8.94961
162 1 22.0143 6.28939 9.43448 -8.94959
163 1 3.14501 6.28959 9.43448 -8.94942
344 1 1.57202 11.0069 1.57196 -8.94959
350 1 20.4415 11.0069 1.57217 -8.9496
181 1 17.2972 1.5721 11.007 -8.9496
188 1 17.2976 4.71636 11.0071 -8.94957
177 1 4.71677 1.57267 11.007 -8.94955
184 1 4.71709 4.71719 11.0069 -8.94988
189 1 20.442 4.71688 11.007 -8.9496
644 1 20.4417 11.0069 20.4416 -8.9496
3 1 3.14457 0.000159076 22.0137 -8.9496
178 1 7.86156 1.5721 11.0072 -8.9498
179 1 11.0072 1.57165 11.0073 -8.95047
180 1 14.1524 1.57181 11.0071 -8.94962
46 1 9.43422 9.43412 22.0131 -8.94988
182 1 20.4417 1.57238 11.007 -8.94961
183 1 1.57251 4.71714 11.007 -8.94962
252 1 9.43444 -0.000249017 15.7247 -8.94955
185 1 7.86113 4.71499 11.008 -8.94834
186 1 11.008 4.71302 11.0081 -8.95086
187 1 14.153 4.7153 11.0073 -8.9498
642 1 14.1524 11.0069 20.4419 -8.94973
254 1 12.5796 -0.000382673 15.7247 -8.94955
641 1 11.007 11.0069 20.4415 -8.9505
640 1 7.86175 11.0069 20.4413 -8.94977
45 1 6.28917 9.43431 22.0134 -8.94977
638 1 1.57222 11.0069 20.4415 -8.9496
194 1 14.1549 7.85836 11.0078 -8.94908
195 1 17.2985 7.86075 11.0073 -8.94974
196 1 20.4423 7.86153 11.0071 -8.94961
343 1 18.8696 9.43431 18.8696 -8.9496
198 1 1.57224 1.57248 14.152 -8.94964
342 1 15.7251 9.43411 18.8701 -8.94956
200 1 4.7167 1.57234 14.1523 -8.94956
201 1 6.28899 0.000429967 12.5798 -8.94973
202 1 7.86167 1.57199 14.1525 -8.94973
341 1 12.5799 9.43392 18.8705 -8.95026
204 1 11.0071 1.57164 14.1525 -8.94955
340 1 9.43429 9.43396 18.8702 -8.95003
206 1 14.1525 1.57156 14.1525 -8.94976
207 1 15.7248 -0.000170587 12.5796 -8.94966
208 1 17.2972 1.57198 14.1521 -8.94964
339 1 6.28919 9.43424 18.8696 -8.94967
210 1 20.4417 1.5723 14.152 -8.94962
211 1 22.014 3.14472 12.5795 -8.94962
212 1 1.57238 4.71702 14.152 -8.94974
213 1 3.14459 3.14482 12.5795 -8.94972
214 1 4.71663 4.7166 14.1524 -8.94949
215 1 6.28896 3.14412 12.58 -8.94939
216 1 7.86133 4.71545 14.1532 -8.95
217 1 9.43434 3.14325 12.5802 -8.94994
218 1 11.0072 4.71506 14.1534 -8.94932
219 1 12.5803 3.14279 12.5804 -8.95011
220 1 14.1535 4.71461 14.1536 -8.94979
221 1 15.7251 3.14381 12.5798 -8.94962
222 1 17.2978 4.71618 14.1525 -8.94967
223 1 18.8696 3.14439 12.5796 -8.94961
224 1 20.442 4.7168 14.1521 -8.94964
225 1 0.000395735 6.28932 12.5795 -8.94967
226 1 1.57229 7.86166 14.1522 -8.94973
227 1 3.14471 6.28944 12.5795 -8.95001
228 1 4.71607 7.86117 14.1528 -8.94961
229 1 6.28868 6.28825 12.5805 -8.94899
230 1 7.85912 7.85823 14.1562 -8.94632
231 1 9.4339 6.28532 12.5816 -8.95086
232 1 11.0074 7.8587 14.1557 -8.94909
233 1 12.5821 6.28402 12.5825 -8.95148
234 1 14.1574 7.85623 14.1577 -8.94301
235 1 15.7262 6.28769 12.5804 -8.94964
236 1 17.299 7.86057 14.1533 -8.95003
237 1 18.8702 6.28885 12.5798 -8.94962
238 1 20.4424 7.86149 14.1524 -8.94976
239 1 22.0143 9.43409 12.5797 -8.94983
240 1 3.14405 9.43403 12.58 -8.94994
241 1 6.28706 9.43325 12.5817 -8.95084
242 1 9.42582 9.42399 12.5901 -9.02602
243 1 12.5951 9.41864 12.595 -8.9986
244 1 15.729 9.43209 12.5819 -8.95273
245 1 18.871 9.43361 12.5802 -8.94993
246 1 22.0138 0.000115443 15.7245 -8.94962
247 1 1.57223 1.57237 17.2969 -8.94957
248 1 3.1444 0.000203657 15.7246 -8.94956
249 1 4.71686 1.57222 17.2971 -8.94956
338 1 3.14452 9.43436 18.8693 -8.9496
251 1 7.86189 1.57202 17.2971 -8.94958
337 1 22.014 9.43439 18.8693 -8.9496
253 1 11.007 1.57188 17.2972 -8.94958
336 1 20.4417 7.8619 20.4417 -8.9496
255 1 14.1521 1.57184 17.2972 -8.94959
335 1 18.8696 6.28923 18.8696 -8.94958
257 1 17.2972 1.57198 17.2971 -8.94951
258 1 18.8694 -5.39154e-05 15.7245 -8.94964
259 1 20.4417 1.57226 17.2969 -8.9496
260 1 9.92587e-05 3.14463 15.7245 -8.94964
261 1 1.57227 4.71693 17.297 -8.94958
262 1 3.14447 3.14458 15.7246 -8.94958
263 1 4.71664 4.7166 17.2973 -8.94926
264 1 6.28909 3.14413 15.725 -8.94964
265 1 7.86173 4.71637 17.2975 -8.9496
266 1 9.43438 3.14384 15.7251 -8.94949
267 1 11.0071 4.71619 17.2977 -8.94954
268 1 12.5798 3.14367 15.7252 -8.94952
269 1 14.1525 4.71612 17.2978 -8.94965
270 1 15.7252 3.14367 15.7252 -8.94953
271 1 17.2977 4.71626 17.2976 -8.94905
272 1 18.8696 3.14433 15.7246 -8.94963
273 1 20.4419 4.71681 17.2971 -8.94956
274 1 22.0141 6.28925 15.7246 -8.94966
275 1 1.5723 7.86182 17.297 -8.94962
276 1 3.14433 6.28914 15.7248 -8.94959
277 1 4.71667 7.86161 17.2973 -8.94959
278 1 6.28838 6.28813 15.7259 -8.94852
279 1 7.86135 7.86098 17.2984 -8.94995
280 1 9.43427 6.28792 15.726 -8.94932
281 1 11.0072 7.8608 17.2987 -8.94938
282 1 12.5802 6.28767 15.7263 -8.94963
283 1 14.1532 7.8606 17.299 -8.95007
284 1 15.7265 6.28733 15.7265 -8.94776
285 1 17.2978 7.86135 17.2978 -8.94952
286 1 18.8702 6.28883 15.7251 -8.94962
287 1 20.442 7.86175 17.2972 -8.9496
288 1 0.000254263 9.43427 15.7247 -8.94965
289 1 3.14437 9.43423 15.7248 -8.9496
290 1 6.2887 9.43386 15.7258 -8.94955
291 1 9.43377 9.43268 15.7282 -8.95065
292 1 12.5814 9.43225 15.7292 -8.95207
293 1 15.7263 9.43332 15.7264 -8.94907
294 1 18.8702 9.43404 15.7251 -8.94961
334 1 17.2972 7.86175 20.4419 -8.9496
296 1 1.57226 1.57236 20.4415 -8.94952
333 1 15.7251 6.28878 18.8701 -8.94962
298 1 4.71703 1.57231 20.4415 -8.94962
299 1 6.28949 -5.6113e-05 18.8692 -8.94964
300 1 7.86198 1.57222 20.4416 -8.9496
332 1 14.1524 7.86149 20.442 -8.94984
302 1 11.007 1.57215 20.4416 -8.9496
331 1 12.5797 6.28878 18.87 -8.94954
304 1 14.152 1.57213 20.4416 -8.94961
305 1 15.7245 -0.000200306 18.8693 -8.94964
306 1 17.2969 1.57217 20.4416 -8.9496
330 1 11.007 7.8615 20.4419 -8.94966
308 1 20.4416 1.57231 20.4416 -8.94948
309 1 22.0139 3.14463 18.8693 -8.94954
310 1 1.57227 4.71703 20.4416 -8.94957
311 1 3.14453 3.14456 18.8693 -8.94947
312 1 4.71688 4.71686 20.4416 -8.94954
313 1 6.28938 3.14442 18.8694 -8.94961
314 1 7.86188 4.71676 20.4417 -8.94958
315 1 9.43444 3.14429 18.8695 -8.94959
316 1 11.007 4.71669 20.4418 -8.94958
317 1 12.5796 3.14422 18.8696 -8.94959
318 1 14.1521 4.71667 20.4419 -8.94959
319 1 15.7247 3.14424 18.8696 -8.94962
320 1 17.2972 4.71674 20.4418 -8.94952
321 1 18.8695 3.14442 18.8695 -8.9494
322 1 20.4417 4.71699 20.4417 -8.94957
323 1 9.66453e-05 6.28942 18.8693 -8.9496
324 1 1.57226 7.86191 20.4415 -8.94959
325 1 3.14451 6.28935 18.8694 -8.9496
326 1 4.71683 7.8618 20.4415 -8.94964
327 1 6.28913 6.28901 18.8697 -8.94961
328 1 7.86169 7.86156 20.4417 -8.94977
329 1 9.43437 6.28886 18.8699 -8.94953
593 1 14.1531 11.0066 17.2987 -8.94972
592 1 11.0072 11.0066 17.2995 -8.95192
515 1 11.0368 10.9495 11.1005 -9.3745
517 1 17.3001 11.0055 11.0082 -8.94797
518 1 20.4426 11.0065 11.0073 -8.94978
540 1 1.57218 11.0068 14.1523 -8.94965
541 1 4.71608 11.0068 14.1529 -8.94929
542 1 7.86063 11.0064 14.1553 -8.94956
544 1 14.1559 11.0054 14.1566 -8.94761
545 1 17.2988 11.0064 14.1533 -8.94976
546 1 20.4423 11.0067 14.1524 -8.94972
591 1 7.86162 11.0068 17.298 -8.94988
7 1 9.4345 4.4757e-05 22.0137 -8.94961
9 1 12.5795 -1.93682e-05 22.0137 -8.94961
13 1 18.8692 1.94858e-05 22.0138 -8.94957
19 1 6.28945 3.1446 22.0138 -8.94962
25 1 15.7245 3.14449 22.0139 -8.94963
31 1 3.14449 6.28938 22.0137 -8.94959
35 1 9.43441 6.28915 22.0138 -8.94957
37 1 12.5796 6.28913 22.0139 -8.94959
41 1 18.8694 6.28938 22.0139 -8.94962
43 1 22.0138 9.4344 22.0138 -8.9496
15 1 22.0139 3.14471 22.0139 -8.94952
176 1 1.57224 1.57258 11.007 -8.94961
687 2 10.9844 12.5331 10.1951 0.645544
511 1 18.8693 18.8695 9.43446 -8.94961
346 1 7.86152 11.007 1.57078 -8.94989
347 1 11.007 11.0071 1.5695 -8.95288
348 1 14.1523 11.007 1.57164 -8.94942
510 1 15.7249 18.8696 9.43439 -8.94956
539 1 20.4415 20.4418 11.007 -8.94961
154 1 18.8693 22.014 9.43447 -8.9496
352 1 1.57191 14.152 1.57187 -8.9496
353 1 3.14435 12.5795 -0.000442205 -8.94958
354 1 4.71634 14.1523 1.57127 -8.94961
538 1 17.2971 20.4417 11.007 -8.9496
356 1 7.86126 14.1527 1.57049 -8.94993
357 1 9.43421 12.5798 -0.00115642 -8.94978
358 1 11.0069 14.1525 1.57103 -8.94943
359 1 12.5798 12.5798 -0.000796697 -8.9499
360 1 14.1525 14.1526 1.57133 -8.94953
393 1 1.57169 11.0068 4.7165 -8.94951
362 1 17.297 14.152 1.5721 -8.9497
363 1 18.8693 12.5794 -5.25988e-05 -8.9496
364 1 20.4415 14.1519 1.57212 -8.94961
365 1 -0.000176729 15.7244 -0.000222758 -8.9496
366 1 1.5719 17.2971 1.57184 -8.94958
149 1 3.1443 22.0144 9.43446 -8.94958
368 1 4.71642 17.2975 1.57128 -8.94962
369 1 6.2891 15.7248 -0.000901864 -8.94976
370 1 7.86173 17.2975 1.57132 -8.94962
109 1 15.7247 22.0141 6.28927 -8.9496
372 1 11.007 17.2973 1.57153 -8.94955
103 1 6.28893 22.0148 6.28895 -8.94976
374 1 14.1521 17.2972 1.57181 -8.9497
375 1 15.7247 15.7247 -0.000326389 -8.9496
376 1 17.297 17.2971 1.57198 -8.94951
99 1 -0.000160919 22.0142 6.28948 -8.94961
378 1 20.4414 17.2969 1.57208 -8.94962
394 1 4.71562 11.0069 4.71545 -8.949
380 1 1.57202 20.4419 1.57198 -8.9494
381 1 3.14439 18.8695 -0.000436855 -8.94956
382 1 4.71684 20.442 1.57183 -8.94963
62 1 18.8692 22.014 3.14458 -8.94959
384 1 7.86192 20.4419 1.57185 -8.94961
385 1 9.43448 18.8694 -0.000501274 -8.9496
386 1 11.007 20.4418 1.57193 -8.94961
387 1 12.5795 18.8694 -0.000391983 -8.9496
388 1 14.152 20.4417 1.57203 -8.94961
58 1 12.5796 22.0141 3.14437 -8.9496
390 1 17.2969 20.4417 1.57213 -8.94959
391 1 18.8692 18.8693 -0.000148879 -8.94954
392 1 20.4415 20.4417 1.57216 -8.94952
509 1 12.5802 18.8711 9.43359 -8.94808
508 1 9.43335 18.8733 9.43347 -8.95086
395 1 7.86074 11.0072 4.71318 -8.95255
396 1 11.0071 11.0074 4.70461 -8.96496
397 1 14.1521 11.0069 4.71585 -8.95127
507 1 6.28808 18.8713 9.43424 -8.94932
506 1 3.14379 18.8701 9.43441 -8.94954
400 1 -0.000310868 12.5794 3.14433 -8.94959
401 1 1.57141 14.1522 4.71638 -8.94956
402 1 3.14386 12.5796 3.14383 -8.94956
403 1 4.71504 14.153 4.71514 -8.94907
404 1 6.2882 12.5799 3.14266 -8.94976
405 1 7.85959 14.1542 4.71253 -8.95273
406 1 9.43324 12.5808 3.1414 -8.94797
407 1 11.0064 14.1529 4.71472 -8.95051
408 1 12.5806 12.5808 3.14198 -8.94838
409 1 14.1534 14.1535 4.71502 -8.94884
410 1 15.7248 12.5795 3.14426 -8.94962
411 1 17.2973 14.1521 4.71662 -8.95016
412 1 18.8693 12.5794 3.14445 -8.94961
413 1 20.4415 14.152 4.71674 -8.94966
414 1 22.0135 15.7246 3.14427 -8.9496
415 1 1.57139 17.2975 4.71638 -8.94962
416 1 3.14372 15.725 3.14369 -8.94952
417 1 4.71494 17.299 4.71496 -8.94776
418 1 6.28817 15.7258 3.14243 -8.95003
419 1 7.86109 17.2986 4.71532 -8.94964
420 1 9.43416 15.7256 3.14299 -8.94974
421 1 11.007 17.2981 4.71578 -8.94889
422 1 12.5796 15.7252 3.14364 -8.95004
423 1 14.1525 17.2978 4.7162 -8.94955
424 1 15.725 15.725 3.14381 -8.94934
425 1 17.2973 17.2974 4.7165 -8.94917
426 1 18.8693 15.7245 3.14436 -8.94975
427 1 20.4415 17.2972 4.7167 -8.94957
428 1 -0.000349291 18.8696 3.14432 -8.94952
429 1 1.57189 20.4421 4.71681 -8.94962
430 1 3.14387 18.8701 3.14382 -8.94905
431 1 4.71631 20.4427 4.7163 -8.94953
432 1 6.289 18.8701 3.1437 -8.94967
433 1 7.86169 20.4425 4.71636 -8.94962
434 1 9.43437 18.87 3.14388 -8.94957
435 1 11.007 20.4422 4.71649 -8.94954
436 1 12.5796 18.8697 3.14408 -8.94955
437 1 14.1522 20.442 4.71663 -8.94964
438 1 15.7246 18.8696 3.14426 -8.94958
439 1 17.297 20.4418 4.71685 -8.94959
440 1 18.8693 18.8695 3.14442 -8.94949
441 1 20.4415 20.4418 4.71696 -8.94963
505 1 -0.000335556 18.8696 9.43447 -8.94958
504 1 18.8699 15.7248 9.43447 -8.94939
444 1 7.84961 11.0025 7.84928 -9.01867
503 1 15.7258 15.7248 9.43454 -8.94945
446 1 14.156 11.0016 7.85878 -9.03348
502 1 12.5804 15.726 9.43227 -9.00183
501 1 9.43051 15.7361 9.43149 -9.01893
449 1 22.0135 12.5794 6.28912 -8.94973
450 1 1.57095 14.1524 7.86153 -8.95026
451 1 3.14275 12.5797 6.28841 -8.94972
452 1 4.71224 14.1541 7.86003 -8.95207
453 1 6.28487 12.5809 6.28563 -8.94761
454 1 7.84652 14.1677 7.84642 -8.9986
455 1 9.43008 12.583 6.28483 -9.05537
456 1 11.0065 14.1558 7.8569 -9.04202
457 1 12.5827 12.5847 6.2855 -9.03348
458 1 14.1565 14.1568 7.85848 -8.97914
459 1 15.7256 12.5794 6.28936 -8.95127
460 1 17.2994 14.153 7.86089 -8.94877
461 1 18.8698 12.5793 6.28916 -8.94942
462 1 20.442 14.1522 7.86165 -8.94997
463 1 -0.000522307 15.7248 6.28907 -8.94984
464 1 1.57143 17.2975 7.86173 -8.94954
465 1 3.14246 15.7257 6.28825 -8.95007
466 1 4.71514 17.2987 7.86124 -8.94963
467 1 6.28382 15.7301 6.28405 -8.94301
468 1 7.859 17.3023 7.85943 -8.95148
469 1 9.43364 15.728 6.28655 -8.94908
470 1 11.0072 17.2997 7.86077 -8.94867
471 1 12.58 15.7268 6.28753 -8.95036
472 1 14.1528 17.2984 7.86125 -8.95061
473 1 15.726 15.7259 6.28809 -8.94779
474 1 17.2973 17.2973 7.86182 -8.94991
475 1 18.8699 15.725 6.28893 -8.94944
476 1 20.4415 17.2972 7.86186 -8.94959
477 1 22.0135 18.8697 6.28933 -8.94959
478 1 1.57189 20.4421 7.8619 -8.94959
479 1 3.14372 18.8702 6.289 -8.94965
480 1 4.71626 20.4427 7.86168 -8.94952
481 1 6.28793 18.8717 6.28802 -8.94979
482 1 7.86109 20.4435 7.86121 -8.95011
483 1 9.4342 18.871 6.28845 -8.9498
484 1 11.0071 20.4428 7.86145 -8.94954
485 1 12.5798 18.8704 6.28868 -8.94984
486 1 14.1524 20.4422 7.86155 -8.94956
487 1 15.7249 18.8699 6.28907 -8.94967
488 1 17.297 20.4418 7.8619 -8.94965
489 1 18.8693 18.8695 6.28936 -8.94971
490 1 20.4415 20.4418 7.86195 -8.94961
491 1 -5.2557e-05 12.5794 9.43445 -8.9505
492 1 3.14196 12.5797 9.43428 -8.95192
493 1 6.27879 12.5799 9.43329 -9.01769
494 1 9.34097 12.6368 9.40469 -9.3745
495 1 12.6335 12.5803 9.41774 -9.22752
496 1 15.7369 12.5789 9.43435 -8.96496
497 1 18.872 12.5793 9.43449 -8.95288
498 1 22.0135 15.7248 9.43444 -8.94966
499 1 3.14282 15.7255 9.43432 -8.94938
500 1 6.28577 15.7276 9.43403 -8.94909
56 1 9.43447 22.0142 3.1443 -8.9496
52 1 3.14434 22.0143 3.14432 -8.94951
516 1 14.1567 11.0034 11.0114 -9.05537
519 1 1.5713 14.1524 11.0072 -8.95003
520 1 4.7133 14.1536 11.0077 -8.95065
521 1 7.85134 14.1623 11.0157 -9.02602
529 1 11.0071 17.307 11.0074 -8.96005
398 1 17.2972 11.0068 4.71664 -8.94962
1 1 -0.000111224 22.014 -0.000111749 -8.94948
5 1 6.28949 22.014 -0.000227947 -8.94962
399 1 20.4416 11.0068 4.71677 -8.94957
530 1 14.1523 17.2977 11.0067 -8.95083
532 1 20.4416 17.2972 11.0071 -8.94957
534 1 4.71636 20.4425 11.0071 -8.94949
11 1 15.7244 22.0139 -0.000100121 -8.94962
686 1 20.4415 20.4416 20.4415 -8.94952
685 1 18.8693 18.8693 18.8693 -8.94949
514 1 7.85865 11.0062 11.0138 -9.03196
684 1 17.2968 20.4415 20.4415 -8.94965
307 1 18.8693 22.0138 18.8693 -8.94954
683 1 15.7244 18.8692 18.8692 -8.94976
682 1 14.1519 20.4415 20.4414 -8.94962
303 1 12.5795 22.0137 18.8693 -8.94961
301 1 9.43449 22.0137 18.8692 -8.94961
297 1 3.14457 22.014 18.8692 -8.94957
522 1 11.0068 14.1907 11.0235 -9.25634
523 1 14.1565 14.1543 11.0098 -8.99675
524 1 17.2997 14.1529 11.008 -8.94836
525 1 20.4423 14.1522 11.0073 -8.94988
526 1 1.57159 17.2975 11.0071 -8.94953
527 1 4.71543 17.2984 11.0072 -8.94932
528 1 7.85989 17.301 11.0076 -8.95086
295 1 -5.96242e-05 22.014 18.8692 -8.94952
639 1 4.71681 11.0069 20.4413 -8.94963
531 1 17.2974 17.2973 11.007 -8.94956
643 1 17.2971 11.0069 20.4418 -8.94959
256 1 15.7248 22.0137 15.7248 -8.94958
383 1 6.28939 18.8695 22.0134 -8.94964
535 1 7.86129 20.4431 11.0071 -8.94994
536 1 11.0071 20.4437 11.0071 -8.95222
537 1 14.1523 20.4419 11.007 -8.94952
377 1 18.8693 15.7244 22.0138 -8.94964
389 1 15.7244 18.8693 22.0137 -8.94965
681 1 12.5795 18.8691 18.869 -8.94962
680 1 11.007 20.4415 20.4414 -8.94961
679 1 9.43453 18.8692 18.869 -8.94962
543 1 11.0082 11.0064 14.1627 -9.01769
678 1 7.86201 20.4416 20.4413 -8.94962
677 1 6.28948 18.8693 18.8691 -8.94974
676 1 4.71701 20.4417 20.4414 -8.94964
547 1 22.014 12.5794 12.5797 -8.94977
548 1 1.57192 14.1521 14.1523 -8.94967
549 1 3.14353 12.5795 12.5799 -8.94988
550 1 4.71571 14.1525 14.1528 -8.94955
551 1 6.28621 12.58 12.5808 -8.94956
552 1 7.85977 14.1531 14.1544 -8.95084
553 1 9.42768 12.5802 12.5828 -9.03196
554 1 11.0066 14.149 14.1489 -8.99722
555 1 12.5922 12.5838 12.5919 -9.01867
556 1 14.1559 14.1541 14.1556 -8.94555
557 1 15.7283 12.5792 12.5807 -8.95255
558 1 17.2985 14.1522 14.1529 -8.95027
559 1 18.8707 12.5793 12.58 -8.94989
560 1 20.442 14.152 14.1523 -8.94977
561 1 -0.000197105 15.7248 12.5798 -8.94977
562 1 1.57176 17.2973 14.1524 -8.94961
563 1 3.14309 15.7253 12.5801 -8.94995
564 1 4.71558 17.2982 14.1531 -8.94852
565 1 6.28527 15.7281 12.5824 -8.94632
566 1 7.86096 17.2981 14.1528 -8.94899
567 1 9.43102 15.727 12.5806 -8.98122
568 1 11.007 17.2965 14.1512 -8.94979
569 1 12.5828 15.726 12.5807 -8.98206
570 1 14.1529 17.2977 14.1526 -8.94941
571 1 15.7264 15.7254 12.5805 -8.94912
572 1 17.2975 17.2973 14.1524 -8.94938
573 1 18.8702 15.7249 12.58 -8.94944
574 1 20.4417 17.2971 14.1523 -8.94955
575 1 22.0137 18.8696 12.5796 -8.94958
576 1 1.57203 20.4419 14.1521 -8.94961
577 1 3.14394 18.87 12.5797 -8.9496
578 1 4.71647 20.4422 14.1524 -8.94964
579 1 6.28828 18.8709 12.5801 -8.95
580 1 7.86148 20.4422 14.1525 -8.94939
581 1 9.43349 18.8713 12.5804 -8.94834
582 1 11.007 20.4416 14.1522 -8.94916
583 1 12.5805 18.8708 12.5803 -8.9483
584 1 14.1525 20.4418 14.1524 -8.94948
585 1 15.7249 18.8695 12.5796 -8.95007
586 1 17.2971 20.4416 14.1521 -8.94974
587 1 18.8694 18.8695 12.5796 -8.94967
588 1 20.4416 20.4417 14.152 -8.94962
589 1 1.57228 11.0069 17.297 -8.9496
590 1 4.7167 11.0069 17.2972 -8.94955
675 1 3.14449 18.8694 18.8692 -8.94958
674 1 1.57219 20.4417 20.4414 -8.94954
673 1 22.0138 18.8693 18.8692 -8.94957
594 1 17.2976 11.0068 17.2976 -8.94956
595 1 20.4419 11.0069 17.2971 -8.94958
596 1 0.000129641 12.5794 15.7247 -8.94963
597 1 1.57218 14.152 17.297 -8.9496
598 1 3.14424 12.5795 15.7248 -8.94955
599 1 4.71664 14.1521 17.2971 -8.9496
600 1 6.28857 12.5795 15.7254 -8.94929
601 1 7.8615 14.1523 17.2974 -8.94994
602 1 9.43374 12.5799 15.7264 -8.94856
603 1 11.007 14.152 17.2966 -8.94797
604 1 12.5813 12.5801 15.7282 -8.95142
605 1 14.1529 14.1525 17.2981 -8.94988
606 1 15.726 12.5795 15.7259 -8.949
607 1 17.2975 14.1521 17.2974 -8.94959
608 1 18.87 12.5794 15.725 -8.94952
609 1 20.4418 14.152 17.297 -8.94958
610 1 22.0139 15.7245 15.7246 -8.94964
611 1 1.57213 17.297 17.297 -8.9496
612 1 3.14414 15.7247 15.7248 -8.94959
613 1 4.7167 17.2972 17.2971 -8.94959
614 1 6.28864 15.7252 15.7254 -8.94961
615 1 7.86201 17.2969 17.2968 -8.95001
616 1 9.43475 15.7241 15.724 -8.95095
617 1 11.007 17.2967 17.2965 -8.94942
618 1 12.5792 15.7239 15.724 -8.9512
619 1 14.1519 17.2968 17.2968 -8.95011
620 1 15.7256 15.7253 15.7256 -8.94837
621 1 17.2972 17.2971 17.2972 -8.94927
622 1 18.8698 15.7246 15.7248 -8.94967
623 1 20.4417 17.2969 17.297 -8.94959
624 1 -0.000156095 18.8695 15.7246 -8.94954
625 1 1.57213 20.4418 17.2969 -8.94947
626 1 3.14415 18.8697 15.7248 -8.94926
627 1 4.71688 20.4417 17.297 -8.94958
628 1 6.28909 18.8697 15.7249 -8.94949
629 1 7.86198 20.4415 17.2969 -8.94972
630 1 9.43456 18.8691 15.7244 -8.94988
631 1 11.007 20.4414 17.2968 -8.94962
632 1 12.5794 18.869 15.7244 -8.94984
633 1 14.152 20.4414 17.2969 -8.94971
634 1 15.7248 18.8695 15.7247 -8.94952
635 1 17.297 20.4416 17.297 -8.94956
636 1 18.8694 18.8694 15.7246 -8.94954
637 1 20.4416 20.4417 17.2969 -8.94956
672 1 20.4415 17.2969 20.4415 -8.94961
671 1 18.8694 15.7245 18.8694 -8.94961
670 1 17.297 17.297 20.4415 -8.94954
669 1 15.7248 15.7247 18.8695 -8.94959
668 1 14.152 17.2969 20.4413 -8.94963
667 1 12.5795 15.7245 18.8689 -8.94947
666 1 11.007 17.2969 20.4411 -8.94959
645 1 22.0139 12.5794 18.8693 -8.9496
646 1 1.57217 14.1519 20.4414 -8.9496
647 1 3.14448 12.5794 18.8692 -8.9496
648 1 4.71678 14.1521 20.4412 -8.94965
649 1 6.2892 12.5795 18.8693 -8.94965
650 1 7.86173 14.1522 20.4411 -8.94983
651 1 9.43436 12.5797 18.8695 -8.94981
652 1 11.007 14.1522 20.4411 -8.94936
653 1 12.5798 12.5797 18.87 -8.95028
654 1 14.1523 14.1522 20.4415 -8.94983
655 1 15.725 12.5795 18.8698 -8.94951
656 1 17.2971 14.152 20.4417 -8.94958
657 1 18.8695 12.5794 18.8695 -8.94959
658 1 20.4416 14.1519 20.4415 -8.9496
659 1 -4.32435e-05 15.7244 18.8692 -8.94959
660 1 1.57215 17.2969 20.4414 -8.9496
661 1 3.14445 15.7245 18.8692 -8.94962
662 1 4.71683 17.2971 20.4412 -8.94966
663 1 6.28923 15.7247 18.8692 -8.94973
664 1 7.86196 17.297 20.4411 -8.94967
665 1 9.43451 15.7245 18.8688 -8.94954
197 1 -8.68419e-05 22.0141 12.5795 -8.9496
199 1 3.14435 22.0143 12.5796 -8.94958
203 1 9.43423 22.0142 12.5799 -8.9498
205 1 12.5799 22.0139 12.5799 -8.94985
209 1 18.8694 22.0139 12.5795 -8.94961
250 1 6.28922 22.014 15.7248 -8.94956
351 1 22.0138 12.5794 22.0137 -8.9496
355 1 6.28909 12.5796 22.0131 -8.94972
367 1 3.14431 15.7246 22.0134 -8.9496
371 1 9.43439 15.7248 22.0131 -8.94961
373 1 12.5795 15.7247 22.0133 -8.94955
361 1 15.7247 12.5795 22.0138 -8.94957
379 1 22.0137 18.8693 22.0137 -8.94957
533 1 1.57195 20.442 11.007 -8.94959
