ITEM: TIMESTEP
49
ITEM: NUMBER OF ATOMS
688
ITEM: BOX BOUNDS pp pp pp
0.0000000000000000e+00 2.2013900999999997e+01
0.0000000000000000e+00 2.2013900999999997e+01
0.0000000000000000e+00 2.2013900999999997e+01
ITEM: ATOMS id type x y z c_pot
513 1 4.71685 11.0068 11.0071 -8.95011
2 1 1.57242 1.57242 1.57242 -8.94963
175 1 18.8691 9.43454 9.43453 -8.94974
4 1 4.71726 1.57242 1.57242 -8.94963
512 1 1.5724 11.0069 11.0069 -8.94974
6 1 7.86211 1.57242 1.57242 -8.94963
448 1 20.4415 11.0069 7.8621 -8.94962
8 1 11.007 1.57242 1.57242 -8.94963
447 1 17.2967 11.0069 7.862 -8.94881
10 1 14.1518 1.57242 1.57242 -8.94963
174 1 15.7245 9.43462 9.43458 -8.95152
12 1 17.2966 1.57242 1.57242 -8.94963
445 1 11.0248 11.0036 7.8201 -9.2554
14 1 20.4415 1.57242 1.57242 -8.94963
151 1 9.43452 6.77129e-06 9.43453 -8.94971
16 1 1.57242 4.71726 1.57242 -8.94963
17 1 3.14484 3.14484 1.51406e-08 -8.94963
18 1 4.71726 4.71726 1.57242 -8.94963
443 1 4.71684 11.0068 7.86199 -8.95031
20 1 7.86211 4.71726 1.57242 -8.94964
21 1 9.43453 3.14484 -3.88206e-08 -8.94963
22 1 11.007 4.71726 1.57242 -8.94963
23 1 12.5794 3.14484 -3.57487e-08 -8.94963
24 1 14.1518 4.71726 1.57242 -8.94964
442 1 1.5724 11.0069 7.86211 -8.94974
26 1 17.2966 4.71726 1.57242 -8.94963
27 1 18.8691 3.14484 -4.07456e-09 -8.94963
28 1 20.4415 4.71726 1.57242 -8.94963
29 1 1.01806e-08 6.28969 2.22631e-09 -8.94963
30 1 1.57242 7.86211 1.57242 -8.94963
193 1 11.0078 7.85918 11.0071 -9.01346
32 1 4.71726 7.86211 1.57242 -8.94964
33 1 6.28969 6.28969 -4.46616e-07 -8.94963
34 1 7.8621 7.8621 1.57241 -8.94961
192 1 7.86135 7.86195 11.0084 -8.98504
36 1 11.007 7.86211 1.57243 -8.94962
191 1 4.71733 7.86219 11.0069 -8.95019
38 1 14.1518 7.8621 1.57241 -8.9496
39 1 15.7242 6.28969 -5.30674e-07 -8.94963
40 1 17.2966 7.86211 1.57242 -8.94964
190 1 1.57243 7.86211 11.0069 -8.94963
42 1 20.4415 7.86211 1.57242 -8.94963
349 1 17.2966 11.007 1.57242 -8.94963
44 1 3.14484 9.43453 5.63209e-08 -8.94963
345 1 4.71726 11.007 1.57242 -8.94962
688 2 10.2229 11.0076 9.43272 0.800944
47 1 12.5794 9.43452 -7.31107e-06 -8.94964
48 1 15.7242 9.43453 2.17125e-06 -8.94963
49 1 18.8691 9.43453 -1.07474e-07 -8.94963
50 1 22.0139 1.41124e-09 3.14484 -8.94963
51 1 1.57242 1.57242 4.71726 -8.94963
173 1 12.5839 9.4315 9.4339 -9.03816
53 1 4.71726 1.57242 4.71726 -8.94963
54 1 6.28969 1.28131e-07 3.14484 -8.94963
55 1 7.86211 1.57242 4.71726 -8.94964
172 1 9.41606 9.39774 9.434 -9.27842
57 1 11.0069 1.57242 4.71726 -8.94964
171 1 6.29069 9.43567 9.43458 -9.00034
59 1 14.1518 1.57242 4.71726 -8.94963
60 1 15.7242 1.30556e-07 3.14484 -8.94963
61 1 17.2966 1.57242 4.71726 -8.94963
170 1 3.14491 9.43452 9.43453 -8.94925
63 1 20.4415 1.57242 4.71726 -8.94963
64 1 5.37548e-08 3.14484 3.14484 -8.94963
65 1 1.57242 4.71727 4.71727 -8.94964
66 1 3.14484 3.14484 3.14484 -8.94963
67 1 4.71726 4.71726 4.71726 -8.94962
68 1 6.28969 3.14484 3.14484 -8.94964
69 1 7.86211 4.71727 4.71727 -8.94971
70 1 9.43453 3.14484 3.14484 -8.94963
71 1 11.0069 4.71727 4.71726 -8.94963
72 1 12.5794 3.14484 3.14484 -8.94964
73 1 14.1518 4.71726 4.71726 -8.94963
74 1 15.7242 3.14484 3.14484 -8.94963
75 1 17.2966 4.71726 4.71726 -8.94962
76 1 18.8691 3.14484 3.14484 -8.94963
77 1 20.4415 4.71726 4.71726 -8.94963
78 1 22.0139 6.28969 3.14484 -8.94963
79 1 1.57242 7.86211 4.71726 -8.94962
80 1 3.14484 6.28968 3.14484 -8.94962
81 1 4.71724 7.86208 4.71725 -8.94948
82 1 6.28968 6.28968 3.14484 -8.94962
83 1 7.86206 7.86207 4.71715 -8.94974
84 1 9.43453 6.28968 3.14485 -8.94965
85 1 11.0069 7.8622 4.71734 -8.95026
86 1 12.5794 6.28969 3.14485 -8.94973
87 1 14.1519 7.86204 4.71719 -8.94909
88 1 15.7242 6.28968 3.14484 -8.9496
89 1 17.2966 7.86211 4.71727 -8.94966
90 1 18.8691 6.28969 3.14484 -8.94964
91 1 20.4415 7.86211 4.71726 -8.94963
92 1 1.19584e-07 9.43453 3.14484 -8.94963
93 1 3.14485 9.43453 3.14484 -8.94965
94 1 6.28968 9.43453 3.14482 -8.94976
95 1 9.43442 9.43441 3.14472 -8.94903
96 1 12.5795 9.43442 3.14473 -8.94922
97 1 15.7242 9.43455 3.14487 -8.94976
98 1 18.8691 9.43453 3.14484 -8.94964
169 1 3.45244e-06 9.43453 9.43453 -8.94961
100 1 1.57242 1.57242 7.86211 -8.94963
101 1 3.14484 6.40085e-09 6.28969 -8.94963
102 1 4.71727 1.57242 7.86211 -8.94964
168 1 18.8691 6.28969 9.43453 -8.94962
104 1 7.8621 1.57242 7.8621 -8.94963
105 1 9.43453 9.9384e-07 6.28969 -8.94964
106 1 11.007 1.57241 7.8621 -8.94963
107 1 12.5794 9.12539e-07 6.28969 -8.94964
108 1 14.1518 1.57242 7.86211 -8.94964
167 1 15.7242 6.28969 9.43453 -8.94959
110 1 17.2966 1.57242 7.86211 -8.94963
111 1 18.8691 8.14123e-09 6.28969 -8.94963
112 1 20.4415 1.57242 7.86211 -8.94963
113 1 22.0139 3.14484 6.28969 -8.94963
114 1 1.57242 4.71726 7.86211 -8.94963
115 1 3.14484 3.14484 6.28969 -8.94964
116 1 4.71727 4.71728 7.86212 -8.94972
117 1 6.28968 3.14484 6.28968 -8.9496
118 1 7.86201 4.71718 7.86201 -8.94915
119 1 9.43453 3.14485 6.28969 -8.94964
120 1 11.007 4.71717 7.86202 -8.94907
121 1 12.5794 3.14483 6.28968 -8.94962
122 1 14.1518 4.71723 7.8621 -8.94969
123 1 15.7242 3.14484 6.28968 -8.94963
124 1 17.2966 4.71727 7.86211 -8.94965
125 1 18.8691 3.14484 6.28969 -8.94963
126 1 20.4415 4.71726 7.86211 -8.94963
127 1 9.12438e-07 6.28969 6.28969 -8.94963
128 1 1.57243 7.86211 7.86211 -8.94963
129 1 3.14485 6.28969 6.28969 -8.94969
130 1 4.71733 7.8622 7.86219 -8.95027
131 1 6.28965 6.28964 6.28964 -8.94927
132 1 7.86123 7.86177 7.86058 -8.98486
133 1 9.43457 6.28974 6.28977 -8.95036
134 1 11.0078 7.86204 7.86188 -9.00449
135 1 12.5794 6.28957 6.28966 -8.95
136 1 14.1522 7.86168 7.86187 -8.94891
137 1 15.7242 6.28967 6.28966 -8.94949
138 1 17.2967 7.8621 7.8621 -8.94976
139 1 18.8691 6.28968 6.28968 -8.94963
140 1 20.4415 7.86211 7.86211 -8.94964
141 1 22.0139 9.43453 6.28969 -8.94964
142 1 3.1448 9.43451 6.28967 -8.94964
143 1 6.28925 9.43426 6.28931 -8.94828
144 1 9.43339 9.43393 6.28944 -9.00181
145 1 12.5806 9.4326 6.28897 -8.98322
146 1 15.7242 9.43456 6.28973 -8.9498
147 1 18.8691 9.43453 6.28968 -8.94959
148 1 7.61502e-09 -2.60522e-09 9.43453 -8.94963
166 1 12.5795 6.28937 9.43444 -8.95011
150 1 6.28969 -7.11016e-07 9.43453 -8.94963
165 1 9.43447 6.28651 9.43444 -8.95898
152 1 12.5794 6.86365e-06 9.43453 -8.94963
153 1 15.7242 -7.77847e-07 9.43453 -8.94964
164 1 6.28988 6.28994 9.43454 -8.95037
155 1 -5.52809e-08 3.14484 9.43453 -8.94963
156 1 3.14484 3.14484 9.43453 -8.94963
157 1 6.28969 3.14486 9.43453 -8.94959
158 1 9.43452 3.14468 9.43453 -8.95051
159 1 12.5794 3.14483 9.43453 -8.94971
160 1 15.7242 3.14484 9.43453 -8.94962
161 1 18.8691 3.14484 9.43453 -8.94963
162 1 22.0139 6.28969 9.43453 -8.94963
163 1 3.14485 6.28968 9.43453 -8.94957
344 1 1.57242 11.007 1.57242 -8.94963
350 1 20.4415 11.007 1.57242 -8.94963
181 1 17.2966 1.57242 11.007 -8.94963
188 1 17.2966 4.71727 11.0069 -8.94965
177 1 4.71727 1.57242 11.0069 -8.94963
184 1 4.71727 4.71728 11.0069 -8.94971
189 1 20.4415 4.71726 11.007 -8.94963
644 1 20.4415 11.007 20.4415 -8.94963
3 1 3.14484 -3.19331e-10 22.0139 -8.94963
178 1 7.8621 1.57242 11.007 -8.94963
179 1 11.007 1.57241 11.007 -8.94971
180 1 14.1518 1.57242 11.007 -8.94964
46 1 9.43453 9.43452 22.0139 -8.94963
182 1 20.4415 1.57242 11.007 -8.94963
183 1 1.57242 4.71726 11.007 -8.94963
252 1 9.43453 -1.32564e-06 15.7242 -8.94963
185 1 7.86202 4.71719 11.007 -8.94916
186 1 11.007 4.71702 11.007 -8.94987
187 1 14.1518 4.71724 11.007 -8.94971
642 1 14.1518 11.007 20.4415 -8.94963
254 1 12.5794 -1.33379e-06 15.7242 -8.94964
641 1 11.007 11.0069 20.4415 -8.94971
640 1 7.86211 11.007 20.4415 -8.94964
45 1 6.28969 9.43453 22.0139 -8.94964
638 1 1.57242 11.007 20.4415 -8.94963
194 1 14.1521 7.86181 11.0071 -8.9492
195 1 17.2967 7.86209 11.007 -8.94969
196 1 20.4415 7.86211 11.007 -8.94964
343 1 18.8691 9.43453 18.8691 -8.94963
198 1 1.57242 1.57242 14.1518 -8.94963
342 1 15.7242 9.43453 18.8691 -8.94963
200 1 4.71726 1.57242 14.1518 -8.94963
201 1 6.28969 -7.70912e-07 12.5794 -8.94963
202 1 7.86211 1.57242 14.1518 -8.94963
341 1 12.5794 9.43453 18.8691 -8.94963
204 1 11.0069 1.57242 14.1518 -8.94963
340 1 9.43453 9.43453 18.8691 -8.94962
206 1 14.1518 1.57242 14.1518 -8.94963
207 1 15.7242 -7.54529e-07 12.5794 -8.94964
208 1 17.2966 1.57242 14.1518 -8.94963
339 1 6.28968 9.43453 18.8691 -8.94964
210 1 20.4415 1.57242 14.1518 -8.94963
211 1 22.0139 3.14484 12.5794 -8.94963
212 1 1.57242 4.71727 14.1518 -8.94964
213 1 3.14484 3.14484 12.5794 -8.94964
214 1 4.71726 4.71726 14.1518 -8.94962
215 1 6.28968 3.14484 12.5794 -8.9496
216 1 7.86211 4.71727 14.1518 -8.94969
217 1 9.43452 3.14485 12.5794 -8.94963
218 1 11.0069 4.71729 14.1518 -8.94961
219 1 12.5794 3.14483 12.5794 -8.94961
220 1 14.1518 4.71726 14.1518 -8.94961
221 1 15.7242 3.14484 12.5794 -8.94964
222 1 17.2966 4.71726 14.1518 -8.94963
223 1 18.8691 3.14484 12.5794 -8.94963
224 1 20.4415 4.71726 14.1518 -8.94963
225 1 9.17074e-07 6.28969 12.5794 -8.94963
226 1 1.57242 7.86211 14.1518 -8.94962
227 1 3.14485 6.28969 12.5794 -8.94969
228 1 4.71724 7.86208 14.1518 -8.9495
229 1 6.28965 6.28964 12.5794 -8.94936
230 1 7.86204 7.86203 14.1519 -8.94946
231 1 9.43448 6.28968 12.5794 -8.94986
232 1 11.0069 7.86238 14.1516 -8.95111
233 1 12.5795 6.2895 12.5795 -8.94958
234 1 14.1519 7.86198 14.1519 -8.94866
235 1 15.7242 6.28967 12.5794 -8.94957
236 1 17.2966 7.86212 14.1518 -8.94969
237 1 18.8691 6.28968 12.5794 -8.94963
238 1 20.4415 7.86211 14.1518 -8.94963
239 1 22.0139 9.43453 12.5794 -8.94964
240 1 3.1448 9.43451 12.5794 -8.94966
241 1 6.28922 9.43429 12.5797 -8.94896
242 1 9.43195 9.43388 12.5802 -9.03621
243 1 12.5823 9.43224 12.581 -9.01506
244 1 15.7243 9.4346 12.5793 -8.9506
245 1 18.8691 9.43453 12.5794 -8.94961
246 1 22.0139 3.38633e-09 15.7242 -8.94963
247 1 1.57242 1.57242 17.2966 -8.94963
248 1 3.14484 1.18282e-09 15.7242 -8.94963
249 1 4.71726 1.57242 17.2966 -8.94963
338 1 3.14484 9.43453 18.8691 -8.94963
251 1 7.86211 1.57242 17.2966 -8.94963
337 1 22.0139 9.43453 18.8691 -8.94963
253 1 11.007 1.57242 17.2966 -8.94963
336 1 20.4415 7.86211 20.4415 -8.94963
255 1 14.1518 1.57242 17.2966 -8.94963
335 1 18.8691 6.28969 18.8691 -8.94963
257 1 17.2966 1.57242 17.2966 -8.94963
258 1 18.8691 1.69262e-09 15.7242 -8.94963
259 1 20.4415 1.57242 17.2966 -8.94963
260 1 5.38824e-08 3.14484 15.7242 -8.94963
261 1 1.57242 4.71726 17.2966 -8.94963
262 1 3.14484 3.14484 15.7242 -8.94963
263 1 4.71726 4.71726 17.2966 -8.94963
264 1 6.28969 3.14484 15.7242 -8.94963
265 1 7.86211 4.71727 17.2966 -8.94964
266 1 9.43453 3.14484 15.7242 -8.94963
267 1 11.007 4.71726 17.2966 -8.94963
268 1 12.5794 3.14484 15.7242 -8.94964
269 1 14.1518 4.71727 17.2966 -8.94964
270 1 15.7242 3.14484 15.7242 -8.94963
271 1 17.2966 4.71726 17.2966 -8.94963
272 1 18.8691 3.14484 15.7242 -8.94963
273 1 20.4415 4.71726 17.2966 -8.94963
274 1 22.0139 6.28969 15.7242 -8.94963
275 1 1.57242 7.86211 17.2966 -8.94963
276 1 3.14484 6.28968 15.7242 -8.94962
277 1 4.71726 7.8621 17.2966 -8.94962
278 1 6.28968 6.28968 15.7242 -8.94961
279 1 7.86211 7.86211 17.2966 -8.94966
280 1 9.43454 6.2897 15.7242 -8.9497
281 1 11.007 7.86211 17.2966 -8.94959
282 1 12.5794 6.2897 15.7242 -8.94978
283 1 14.1518 7.86211 17.2966 -8.94966
284 1 15.7242 6.28968 15.7242 -8.94958
285 1 17.2966 7.86211 17.2966 -8.94963
286 1 18.8691 6.28969 15.7242 -8.94964
287 1 20.4415 7.86211 17.2966 -8.94963
288 1 1.28325e-07 9.43453 15.7242 -8.94963
289 1 3.14484 9.43453 15.7242 -8.94965
290 1 6.28965 9.43449 15.7243 -8.94957
291 1 9.43451 9.43451 15.7243 -8.94952
292 1 12.5794 9.43452 15.7243 -8.94979
293 1 15.7242 9.43451 15.7242 -8.94957
294 1 18.8691 9.43453 15.7242 -8.94963
334 1 17.2966 7.86211 20.4415 -8.94963
296 1 1.57242 1.57242 20.4415 -8.94963
333 1 15.7242 6.28969 18.8691 -8.94963
298 1 4.71726 1.57242 20.4415 -8.94963
299 1 6.28969 -3.84449e-08 18.8691 -8.94963
300 1 7.86211 1.57242 20.4415 -8.94963
332 1 14.1518 7.86211 20.4415 -8.94963
302 1 11.007 1.57242 20.4415 -8.94963
331 1 12.5794 6.28969 18.8691 -8.94963
304 1 14.1518 1.57242 20.4415 -8.94963
305 1 15.7242 -3.91041e-08 18.8691 -8.94963
306 1 17.2966 1.57242 20.4415 -8.94963
330 1 11.007 7.86211 20.4415 -8.94963
308 1 20.4415 1.57242 20.4415 -8.94963
309 1 22.0139 3.14484 18.8691 -8.94963
310 1 1.57242 4.71726 20.4415 -8.94963
311 1 3.14484 3.14484 18.8691 -8.94963
312 1 4.71726 4.71726 20.4415 -8.94963
313 1 6.28969 3.14484 18.8691 -8.94963
314 1 7.86211 4.71726 20.4415 -8.94963
315 1 9.43453 3.14484 18.8691 -8.94963
316 1 11.007 4.71726 20.4415 -8.94963
317 1 12.5794 3.14484 18.8691 -8.94963
318 1 14.1518 4.71726 20.4415 -8.94963
319 1 15.7242 3.14484 18.8691 -8.94963
320 1 17.2966 4.71726 20.4415 -8.94963
321 1 18.8691 3.14484 18.8691 -8.94963
322 1 20.4415 4.71726 20.4415 -8.94963
323 1 1.0198e-08 6.28969 18.8691 -8.94963
324 1 1.57242 7.86211 20.4415 -8.94963
325 1 3.14484 6.28969 18.8691 -8.94963
326 1 4.71726 7.86211 20.4415 -8.94963
327 1 6.28969 6.28969 18.8691 -8.94963
328 1 7.86211 7.86211 20.4415 -8.94963
329 1 9.43453 6.28969 18.8691 -8.94963
593 1 14.1518 11.0069 17.2967 -8.94964
592 1 11.0069 11.0069 17.2968 -8.95026
515 1 11.0257 10.9684 11.0657 -9.41394
517 1 17.2967 11.0069 11.0071 -8.94856
518 1 20.4415 11.0069 11.007 -8.94961
540 1 1.57242 11.007 14.1518 -8.94963
541 1 4.71724 11.0069 14.1518 -8.94968
542 1 7.86173 11.0067 14.1524 -8.94977
544 1 14.152 11.0067 14.152 -8.94937
545 1 17.2967 11.0069 14.1518 -8.94966
546 1 20.4415 11.007 14.1518 -8.94964
591 1 7.8621 11.0069 17.2967 -8.94977
7 1 9.43453 6.95773e-09 22.0139 -8.94963
9 1 12.5794 6.8033e-09 22.0139 -8.94963
13 1 18.8691 5.01748e-12 22.0139 -8.94963
19 1 6.28969 3.14484 22.0139 -8.94963
25 1 15.7242 3.14484 22.0139 -8.94963
31 1 3.14484 6.28969 22.0139 -8.94963
35 1 9.43453 6.28969 22.0139 -8.94964
37 1 12.5794 6.28969 22.0139 -8.94963
41 1 18.8691 6.28969 22.0139 -8.94963
43 1 22.0139 9.43453 22.0139 -8.94963
15 1 22.0139 3.14484 22.0139 -8.94963
176 1 1.57242 1.57242 11.007 -8.94963
687 2 11.0088 12.5788 10.2186 0.800944
511 1 18.8691 18.8691 9.43453 -8.94963
346 1 7.86212 11.007 1.57242 -8.94971
347 1 11.007 11.007 1.57225 -8.95065
348 1 14.1518 11.007 1.57245 -8.94958
510 1 15.7242 18.8691 9.43453 -8.94963
539 1 20.4415 20.4415 11.007 -8.94963
154 1 18.8691 22.0139 9.43453 -8.94963
352 1 1.57242 14.1518 1.57242 -8.94963
353 1 3.14484 12.5794 6.77463e-08 -8.94963
354 1 4.71726 14.1518 1.57242 -8.94963
538 1 17.2966 20.4415 11.007 -8.94963
356 1 7.8621 14.1518 1.57242 -8.94961
357 1 9.43452 12.5794 -3.25996e-06 -8.94961
358 1 11.007 14.1518 1.57242 -8.94974
359 1 12.5794 12.5794 -2.27515e-06 -8.94962
360 1 14.1518 14.1518 1.57242 -8.94959
393 1 1.57242 11.007 4.71726 -8.94963
362 1 17.2966 14.1518 1.57242 -8.94964
363 1 18.8691 12.5794 -1.24556e-07 -8.94963
364 1 20.4415 14.1518 1.57242 -8.94963
365 1 9.03402e-09 15.7242 -2.64213e-09 -8.94963
366 1 1.57242 17.2966 1.57242 -8.94963
149 1 3.14484 22.0139 9.43453 -8.94963
368 1 4.71727 17.2966 1.57242 -8.94964
369 1 6.28969 15.7242 7.13752e-07 -8.94963
370 1 7.86211 17.2966 1.57242 -8.94963
109 1 15.7242 22.0139 6.28969 -8.94963
372 1 11.007 17.2966 1.57242 -8.94962
103 1 6.28969 22.0139 6.28969 -8.94963
374 1 14.1518 17.2966 1.57242 -8.94963
375 1 15.7242 15.7242 6.06994e-07 -8.94963
376 1 17.2966 17.2966 1.57242 -8.94964
99 1 -5.57972e-09 22.0139 6.28969 -8.94963
378 1 20.4415 17.2966 1.57242 -8.94963
394 1 4.71728 11.007 4.71727 -8.94966
380 1 1.57242 20.4415 1.57242 -8.94963
381 1 3.14484 18.8691 7.0563e-08 -8.94963
382 1 4.71726 20.4415 1.57242 -8.94963
62 1 18.8691 22.0139 3.14484 -8.94963
384 1 7.86211 20.4415 1.57242 -8.94963
385 1 9.43453 18.8691 9.30561e-08 -8.94963
386 1 11.007 20.4415 1.57242 -8.94963
387 1 12.5794 18.8691 9.0447e-08 -8.94963
388 1 14.1518 20.4415 1.57242 -8.94963
58 1 12.5794 22.0139 3.14484 -8.94963
390 1 17.2966 20.4415 1.57242 -8.94963
391 1 18.8691 18.8691 5.35533e-08 -8.94963
392 1 20.4415 20.4415 1.57242 -8.94963
509 1 12.5795 18.8692 9.43444 -8.94907
508 1 9.43443 18.8693 9.43444 -8.94987
395 1 7.86217 11.007 4.71709 -8.95132
396 1 11.0069 11.0069 4.71376 -8.96074
397 1 14.1515 11.007 4.71754 -8.95092
507 1 6.28969 18.869 9.43453 -8.94961
506 1 3.14484 18.8691 9.43453 -8.94963
400 1 1.13469e-07 12.5794 3.14484 -8.94963
401 1 1.57242 14.1518 4.71726 -8.94963
402 1 3.14484 12.5794 3.14484 -8.94965
403 1 4.71726 14.1518 4.71725 -8.94957
404 1 6.28967 12.5794 3.14482 -8.94966
405 1 7.86219 14.1517 4.71722 -8.9506
406 1 9.43442 12.5795 3.14482 -8.94856
407 1 11.0069 14.1517 4.71702 -8.95152
408 1 12.5795 12.5795 3.14481 -8.94881
409 1 14.1517 14.1518 4.71726 -8.9498
410 1 15.7242 12.5794 3.14487 -8.94965
411 1 17.2966 14.1518 4.71728 -8.94976
412 1 18.8691 12.5794 3.14484 -8.94963
413 1 20.4415 14.1518 4.71727 -8.94963
414 1 22.0139 15.7242 3.14484 -8.94963
415 1 1.57242 17.2966 4.71726 -8.94963
416 1 3.14484 15.7242 3.14484 -8.94963
417 1 4.71726 17.2966 4.71726 -8.94958
418 1 6.28969 15.7242 3.14485 -8.94969
419 1 7.86208 17.2966 4.71724 -8.94957
420 1 9.43452 15.7242 3.14481 -8.94969
421 1 11.0069 17.2966 4.71726 -8.94959
422 1 12.5794 15.7242 3.14482 -8.94976
423 1 14.1518 17.2967 4.71724 -8.94949
424 1 15.7242 15.7242 3.14485 -8.94966
425 1 17.2966 17.2966 4.71726 -8.9496
426 1 18.8691 15.7242 3.14484 -8.94964
427 1 20.4415 17.2966 4.71726 -8.94963
428 1 4.99364e-08 18.8691 3.14484 -8.94963
429 1 1.57242 20.4415 4.71726 -8.94963
430 1 3.14484 18.8691 3.14484 -8.94963
431 1 4.71726 20.4415 4.71726 -8.94963
432 1 6.28968 18.8691 3.14484 -8.94963
433 1 7.86211 20.4415 4.71726 -8.94964
434 1 9.43453 18.8691 3.14484 -8.94965
435 1 11.007 20.4415 4.71726 -8.94962
436 1 12.5794 18.8691 3.14484 -8.94965
437 1 14.1518 20.4415 4.71726 -8.94963
438 1 15.7242 18.8691 3.14484 -8.94962
439 1 17.2966 20.4415 4.71726 -8.94963
440 1 18.8691 18.8691 3.14484 -8.94963
441 1 20.4415 20.4415 4.71726 -8.94963
505 1 -4.06164e-08 18.8691 9.43453 -8.94963
504 1 18.869 15.7242 9.43453 -8.94962
444 1 7.8575 11.0056 7.85805 -9.01994
503 1 15.7241 15.7241 9.43458 -8.95026
446 1 14.1513 11.0054 7.86216 -9.03495
502 1 12.5796 15.7243 9.43368 -9.00449
501 1 9.43434 15.7271 9.43369 -9.01346
449 1 22.0139 12.5794 6.28969 -8.94963
450 1 1.57242 14.1518 7.86211 -8.94963
451 1 3.14483 12.5794 6.28968 -8.94964
452 1 4.71721 14.1518 7.86208 -8.94979
453 1 6.2895 12.5796 6.2895 -8.94937
454 1 7.8605 14.1541 7.8592 -9.01506
455 1 9.43464 12.5796 6.29084 -9.0534
456 1 11.0076 14.1548 7.85755 -9.03816
457 1 12.5793 12.5809 6.29021 -9.03495
458 1 14.1525 14.1537 7.86092 -8.98322
459 1 15.7239 12.5793 6.28996 -8.95092
460 1 17.2968 14.1519 7.862 -8.94922
461 1 18.869 12.5794 6.28969 -8.94958
462 1 20.4415 14.1518 7.8621 -8.94964
463 1 8.50492e-07 15.7242 6.28969 -8.94963
464 1 1.57242 17.2966 7.86211 -8.94963
465 1 3.14484 15.7242 6.28969 -8.94966
466 1 4.71728 17.2966 7.86212 -8.94978
467 1 6.28956 15.7243 6.28957 -8.94866
468 1 7.862 17.2968 7.862 -8.94958
469 1 9.43435 15.7245 6.28937 -8.9492
470 1 11.007 17.297 7.86199 -8.95011
471 1 12.5796 15.7246 6.28929 -8.94891
472 1 14.1518 17.2968 7.86209 -8.95
473 1 15.7243 15.7243 6.28961 -8.94909
474 1 17.2966 17.2966 7.86211 -8.94973
475 1 18.8691 15.7242 6.28968 -8.9496
476 1 20.4415 17.2966 7.86211 -8.94963
477 1 22.0139 18.8691 6.28969 -8.94963
478 1 1.57242 20.4415 7.86211 -8.94963
479 1 3.14484 18.8691 6.28969 -8.94964
480 1 4.71727 20.4415 7.86211 -8.94964
481 1 6.28968 18.8691 6.28968 -8.94961
482 1 7.8621 20.4415 7.8621 -8.94961
483 1 9.43452 18.8691 6.28968 -8.94971
484 1 11.007 20.4415 7.86211 -8.94971
485 1 12.5794 18.8691 6.28967 -8.94969
486 1 14.1518 20.4415 7.8621 -8.94962
487 1 15.7242 18.8691 6.28968 -8.94963
488 1 17.2966 20.4415 7.86211 -8.94964
489 1 18.8691 18.8691 6.28969 -8.94964
490 1 20.4415 20.4415 7.86211 -8.94963
491 1 2.88497e-06 12.5794 9.43453 -8.94971
492 1 3.14472 12.5794 9.43453 -8.95026
493 1 6.28706 12.5783 9.43457 -9.00872
494 1 9.37574 12.6179 9.41582 -9.41394
495 1 12.6214 12.5828 9.41671 -9.2554
496 1 15.7277 12.5794 9.43457 -8.96074
497 1 18.8692 12.5794 9.43453 -8.95065
498 1 22.0139 15.7242 9.43453 -8.94963
499 1 3.14486 15.7242 9.43453 -8.94959
500 1 6.28989 15.7239 9.43458 -8.95111
56 1 9.43453 22.0139 3.14484 -8.94963
52 1 3.14484 22.0139 3.14484 -8.94963
516 1 14.1506 11.0067 11.0068 -9.0534
519 1 1.57242 14.1518 11.007 -8.94962
520 1 4.71722 14.1518 11.007 -8.94952
521 1 7.86123 14.1524 11.0095 -9.03621
529 1 11.007 17.2998 11.007 -8.95898
398 1 17.2966 11.007 4.71727 -8.94965
1 1 4.61746e-10 22.0139 5.00159e-10 -8.94963
5 1 6.28969 22.0139 9.64864e-09 -8.94963
399 1 20.4415 11.007 4.71727 -8.94963
530 1 14.1517 17.2966 11.0069 -8.95036
532 1 20.4415 17.2966 11.0069 -8.94964
534 1 4.71726 20.4415 11.0069 -8.94963
11 1 15.7242 22.0139 7.19967e-09 -8.94963
686 1 20.4415 20.4415 20.4415 -8.94963
685 1 18.8691 18.8691 18.8691 -8.94963
514 1 7.85804 11.0069 11.0111 -9.03752
684 1 17.2966 20.4415 20.4415 -8.94963
307 1 18.8691 22.0139 18.8691 -8.94963
683 1 15.7242 18.8691 18.8691 -8.94964
682 1 14.1518 20.4415 20.4415 -8.94963
303 1 12.5794 22.0139 18.8691 -8.94963
301 1 9.43453 22.0139 18.8691 -8.94963
297 1 3.14484 22.0139 18.8691 -8.94963
522 1 11.0075 14.1886 11.0254 -9.27842
523 1 14.152 14.1524 11.0081 -9.00181
524 1 17.2968 14.1519 11.0071 -8.94903
525 1 20.4415 14.1518 11.007 -8.94963
526 1 1.57242 17.2966 11.007 -8.94963
527 1 4.71728 17.2966 11.0069 -8.9497
528 1 7.86212 17.2966 11.007 -8.94986
295 1 5.20595e-10 22.0139 18.8691 -8.94963
639 1 4.71726 11.007 20.4415 -8.94963
531 1 17.2966 17.2966 11.0069 -8.94965
643 1 17.2966 11.007 20.4415 -8.94963
256 1 15.7242 22.0139 15.7242 -8.94963
383 1 6.28969 18.8691 22.0139 -8.94963
535 1 7.86211 20.4415 11.007 -8.94963
536 1 11.007 20.4416 11.007 -8.95051
537 1 14.1518 20.4415 11.007 -8.94964
377 1 18.8691 15.7242 22.0139 -8.94963
389 1 15.7242 18.8691 22.0139 -8.94963
681 1 12.5794 18.8691 18.8691 -8.94963
680 1 11.007 20.4415 20.4415 -8.94963
679 1 9.43453 18.8691 18.8691 -8.94963
543 1 11.0069 11.008 14.1544 -9.00872
678 1 7.86211 20.4415 20.4415 -8.94963
677 1 6.28969 18.8691 18.8691 -8.94964
676 1 4.71726 20.4415 20.4415 -8.94963
547 1 22.0139 12.5794 12.5794 -8.94964
548 1 1.57242 14.1518 14.1518 -8.94964
549 1 3.1448 12.5794 12.5794 -8.94977
550 1 4.71721 14.1518 14.1518 -8.94957
551 1 6.28906 12.5796 12.5797 -8.94977
552 1 7.86176 14.152 14.1523 -8.94896
553 1 9.43035 12.5794 12.5834 -9.03752
554 1 11.0069 14.1507 14.1508 -9.00034
555 1 12.5834 12.5807 12.584 -9.01994
556 1 14.1522 14.1521 14.1522 -8.94828
557 1 15.7244 12.5793 12.5793 -8.95132
558 1 17.2967 14.1518 14.1518 -8.94976
559 1 18.8691 12.5794 12.5794 -8.94971
560 1 20.4415 14.1518 14.1518 -8.94964
561 1 8.95381e-07 15.7242 12.5794 -8.94963
562 1 1.57242 17.2966 14.1518 -8.94963
563 1 3.14484 15.7242 12.5794 -8.94966
564 1 4.71726 17.2966 14.1518 -8.94961
565 1 6.28955 15.7243 12.5794 -8.94946
566 1 7.86207 17.2967 14.1518 -8.94936
567 1 9.43306 15.7244 12.5801 -8.98504
568 1 11.0069 17.2964 14.1516 -8.95037
569 1 12.5809 15.7246 12.5803 -8.98486
570 1 14.1518 17.2967 14.1518 -8.94927
571 1 15.7243 15.7242 12.5794 -8.94974
572 1 17.2966 17.2966 14.1518 -8.94962
573 1 18.8691 15.7242 12.5794 -8.94961
574 1 20.4415 17.2966 14.1518 -8.94963
575 1 22.0139 18.8691 12.5794 -8.94963
576 1 1.57242 20.4415 14.1518 -8.94963
577 1 3.14484 18.8691 12.5794 -8.94964
578 1 4.71726 20.4415 14.1518 -8.94963
579 1 6.28968 18.8691 12.5794 -8.94969
580 1 7.8621 20.4415 14.1518 -8.9496
581 1 9.43443 18.8691 12.5795 -8.94916
582 1 11.0069 20.4415 14.1518 -8.94959
583 1 12.5795 18.8691 12.5795 -8.94915
584 1 14.1518 20.4415 14.1518 -8.9496
585 1 15.7242 18.8691 12.5794 -8.94971
586 1 17.2966 20.4415 14.1518 -8.94964
587 1 18.8691 18.8691 12.5794 -8.94964
588 1 20.4415 20.4415 14.1518 -8.94963
589 1 1.57242 11.007 17.2966 -8.94963
590 1 4.71727 11.007 17.2966 -8.94964
675 1 3.14484 18.8691 18.8691 -8.94963
674 1 1.57242 20.4415 20.4415 -8.94963
673 1 22.0139 18.8691 18.8691 -8.94963
594 1 17.2966 11.007 17.2966 -8.94965
595 1 20.4415 11.007 17.2966 -8.94963
596 1 1.17966e-07 12.5794 15.7242 -8.94963
597 1 1.57242 14.1518 17.2966 -8.94963
598 1 3.14484 12.5794 15.7242 -8.94964
599 1 4.71726 14.1518 17.2966 -8.94965
600 1 6.28967 12.5794 15.7242 -8.94968
601 1 7.86209 14.1518 17.2967 -8.94966
602 1 9.43442 12.5795 15.7246 -8.95011
603 1 11.007 14.1518 17.2966 -8.94925
604 1 12.5795 12.5795 15.7246 -8.95031
605 1 14.1518 14.1518 17.2967 -8.94964
606 1 15.7242 12.5794 15.7242 -8.94966
607 1 17.2966 14.1518 17.2966 -8.94965
608 1 18.8691 12.5794 15.7242 -8.94962
609 1 20.4415 14.1518 17.2966 -8.94963
610 1 22.0139 15.7242 15.7242 -8.94963
611 1 1.57242 17.2966 17.2966 -8.94963
612 1 3.14484 15.7242 15.7242 -8.94962
613 1 4.71726 17.2966 17.2966 -8.94962
614 1 6.28967 15.7242 15.7242 -8.9495
615 1 7.86212 17.2966 17.2966 -8.94969
616 1 9.43461 15.7241 15.7242 -8.95019
617 1 11.007 17.2966 17.2966 -8.94957
618 1 12.5793 15.7241 15.7242 -8.95027
619 1 14.1518 17.2966 17.2966 -8.94969
620 1 15.7242 15.7242 15.7242 -8.94948
621 1 17.2966 17.2966 17.2966 -8.94962
622 1 18.8691 15.7242 15.7242 -8.94964
623 1 20.4415 17.2966 17.2966 -8.94963
624 1 5.41274e-08 18.8691 15.7242 -8.94963
625 1 1.57242 20.4415 17.2966 -8.94963
626 1 3.14484 18.8691 15.7242 -8.94963
627 1 4.71726 20.4415 17.2966 -8.94963
628 1 6.28969 18.8691 15.7242 -8.94962
629 1 7.86211 20.4415 17.2966 -8.94964
630 1 9.43454 18.869 15.7242 -8.94971
631 1 11.007 20.4415 17.2966 -8.94963
632 1 12.5794 18.869 15.7242 -8.94972
633 1 14.1518 20.4415 17.2966 -8.94964
634 1 15.7242 18.8691 15.7242 -8.94962
635 1 17.2966 20.4415 17.2966 -8.94963
636 1 18.8691 18.8691 15.7242 -8.94963
637 1 20.4415 20.4415 17.2966 -8.94963
672 1 20.4415 17.2966 20.4415 -8.94963
671 1 18.8691 15.7242 18.8691 -8.94963
670 1 17.2966 17.2966 20.4415 -8.94963
669 1 15.7242 15.7242 18.8691 -8.94962
668 1 14.1518 17.2966 20.4415 -8.94963
667 1 12.5794 15.7242 18.8691 -8.94963
666 1 11.007 17.2966 20.4415 -8.94963
645 1 22.0139 12.5794 18.8691 -8.94963
646 1 1.57242 14.1518 20.4415 -8.94963
647 1 3.14484 12.5794 18.8691 -8.94963
648 1 4.71726 14.1518 20.4415 -8.94963
649 1 6.28969 12.5794 18.8691 -8.94963
650 1 7.86211 14.1518 20.4415 -8.94964
651 1 9.43453 12.5794 18.8691 -8.94974
652 1 11.007 14.1518 20.4415 -8.94961
653 1 12.5794 12.5794 18.8691 -8.94974
654 1 14.1518 14.1518 20.4415 -8.94964
655 1 15.7242 12.5794 18.8691 -8.94963
656 1 17.2966 14.1518 20.4415 -8.94963
657 1 18.8691 12.5794 18.8691 -8.94963
658 1 20.4415 14.1518 20.4415 -8.94963
659 1 9.87595e-09 15.7242 18.8691 -8.94963
660 1 1.57242 17.2966 20.4415 -8.94963
661 1 3.14484 15.7242 18.8691 -8.94963
662 1 4.71726 17.2966 20.4415 -8.94963
663 1 6.28968 15.7242 18.8691 -8.94962
664 1 7.86211 17.2966 20.4415 -8.94963
665 1 9.43453 15.7242 18.8691 -8.94963
197 1 -5.09422e-09 22.0139 12.5794 -8.94963
199 1 3.14484 22.0139 12.5794 -8.94963
203 1 9.43452 22.0139 12.5794 -8.94963
205 1 12.5794 22.0139 12.5794 -8.94963
209 1 18.8691 22.0139 12.5794 -8.94963
250 1 6.28969 22.0139 15.7242 -8.94963
351 1 22.0139 12.5794 22.0139 -8.94963
355 1 6.28969 12.5794 22.0139 -8.94964
367 1 3.14484 15.7242 22.0139 -8.94963
371 1 9.43453 15.7242 22.0139 -8.94964
373 1 12.5794 15.7242 22.0139 -8.94964
361 1 15.7242 12.5794 22.0139 -8.94963
379 1 22.0139 18.8691 22.0139 -8.94963
533 1 1.57242 20.4415 11.007 -8.94963
