ITEM: TIMESTEP
73
ITEM: NUMBER OF ATOMS
688
ITEM: BOX BOUNDS pp pp pp
0.0000000000000000e+00 2.2013900999999997e+01
0.0000000000000000e+00 2.2013900999999997e+01
0.0000000000000000e+00 2.2013900999999997e+01
ITEM: ATOMS id type x y z c_pot
513 1 4.71491 11.0062 11.0079 -8.94857
2 1 1.57219 1.57243 1.57219 -8.94953
175 1 18.8703 9.43392 9.43451 -8.94944
4 1 4.71697 1.57239 1.57211 -8.94964
512 1 1.57185 11.0066 11.0072 -8.94982
6 1 7.86196 1.57235 1.5721 -8.94961
448 1 20.4423 11.0065 7.86168 -8.9499
8 1 11.007 1.57231 1.57212 -8.9496
447 1 17.2995 11.0056 7.86081 -8.94841
10 1 14.152 1.57229 1.57214 -8.94962
174 1 15.7266 9.43354 9.43489 -8.95053
12 1 17.2969 1.5723 1.57219 -8.94959
445 1 11.0246 11.0053 7.80722 -9.22994
14 1 20.4416 1.57238 1.57226 -8.94957
151 1 9.43421 0.000721201 9.43427 -8.9505
16 1 1.57219 4.71701 1.57216 -8.9495
17 1 3.14457 3.14465 -0.000105483 -8.94956
18 1 4.71683 4.71686 1.57204 -8.94954
443 1 4.71349 11.006 7.86035 -8.95105
20 1 7.86187 4.7168 1.57203 -8.94966
21 1 9.43445 3.14455 -9.56348e-05 -8.94961
22 1 11.007 4.7168 1.57203 -8.94961
23 1 12.5795 3.14453 -7.96228e-05 -8.94961
24 1 14.1521 4.71677 1.57207 -8.94971
442 1 1.57151 11.0066 7.86169 -8.95023
26 1 17.2971 4.71684 1.57213 -8.94947
27 1 18.8693 3.14461 -3.97302e-05 -8.94952
28 1 20.4416 4.71701 1.57221 -8.94954
29 1 -3.64762e-05 6.28949 -9.92941e-05 -8.94961
30 1 1.57214 7.86185 1.57208 -8.94962
193 1 11.0097 7.84992 11.0107 -9.01838
32 1 4.71665 7.86167 1.57177 -8.94968
33 1 6.28921 6.28918 -0.000263184 -8.94957
34 1 7.86147 7.86135 1.57132 -8.94947
192 1 7.86014 7.85857 11.0107 -8.9812
36 1 11.007 7.8615 1.57145 -8.94939
191 1 4.7171 7.8619 11.0068 -8.95101
38 1 14.1526 7.86131 1.57144 -8.94945
39 1 15.7248 6.28915 -0.000149001 -8.94956
40 1 17.2971 7.86178 1.57206 -8.94975
190 1 1.57245 7.86176 11.007 -8.94956
42 1 20.4416 7.86189 1.57217 -8.94963
349 1 17.2971 11.0069 1.57207 -8.9496
44 1 3.14446 9.43437 -0.000255695 -8.94959
345 1 4.71659 11.0069 1.5716 -8.94953
688 2 10.2424 11.0454 9.45188 0.652759
47 1 12.5798 9.43412 -0.000650587 -8.94999
48 1 15.7247 9.43434 -0.000140523 -8.94965
49 1 18.8694 9.43441 -7.56299e-05 -8.94961
50 1 22.0138 0.000175796 3.14459 -8.94961
51 1 1.57217 1.5725 4.71702 -8.94964
173 1 12.5844 9.43032 9.43439 -9.04109
53 1 4.71668 1.57245 4.7167 -8.94956
54 1 6.28935 0.000290397 3.1443 -8.94964
55 1 7.86185 1.57241 4.71669 -8.94965
172 1 9.41687 9.39302 9.43432 -9.25748
57 1 11.0071 1.57231 4.71669 -8.94961
171 1 6.29201 9.43674 9.43487 -8.99806
59 1 14.1522 1.57221 4.71671 -8.94961
60 1 15.7246 9.66737e-05 3.14442 -8.9496
61 1 17.2971 1.57232 4.7169 -8.9496
170 1 3.14465 9.43421 9.43452 -8.94811
63 1 20.4416 1.57242 4.71705 -8.94962
64 1 -4.26229e-05 3.14472 3.14463 -8.94964
65 1 1.57222 4.71703 4.71703 -8.94975
66 1 3.14445 3.14465 3.14446 -8.94953
67 1 4.7166 4.71664 4.71661 -8.94942
68 1 6.28934 3.14456 3.14435 -8.94973
69 1 7.86182 4.71657 4.71651 -8.95006
70 1 9.43446 3.14449 3.14435 -8.94959
71 1 11.0071 4.7165 4.71646 -8.94954
72 1 12.5796 3.14447 3.14434 -8.94964
73 1 14.1524 4.71631 4.71648 -8.94967
74 1 15.7247 3.14445 3.1444 -8.94959
75 1 17.2972 4.71671 4.71678 -8.94958
76 1 18.8694 3.14462 3.14457 -8.94959
77 1 20.4417 4.71698 4.71702 -8.94966
78 1 22.0138 6.28933 3.14447 -8.94955
79 1 1.57193 7.86157 4.71668 -8.94958
80 1 3.14427 6.28915 3.14427 -8.9493
81 1 4.7159 7.86096 4.71592 -8.94848
82 1 6.28899 6.28891 3.14388 -8.94941
83 1 7.86092 7.86065 4.71497 -8.94926
84 1 9.43438 6.28891 3.14401 -8.94955
85 1 11.0069 7.86129 4.71546 -8.94945
86 1 12.5797 6.28892 3.14402 -8.94991
87 1 14.1535 7.8602 4.71521 -8.94762
88 1 15.725 6.28886 3.14401 -8.94911
89 1 17.2977 7.86126 4.71638 -8.94935
90 1 18.8695 6.28923 3.1444 -8.9495
91 1 20.4418 7.86162 4.71676 -8.94961
92 1 -0.00012668 9.4343 3.14441 -8.94958
93 1 3.14419 9.4342 3.1441 -8.9496
94 1 6.2887 9.43404 3.14321 -8.95026
95 1 9.43353 9.43332 3.14184 -8.94835
96 1 12.5807 9.43321 3.14191 -8.9489
97 1 15.7249 9.4342 3.14398 -8.95015
98 1 18.8694 9.43431 3.14438 -8.94969
169 1 0.000250506 9.43411 9.43449 -8.94938
100 1 1.57217 1.57251 7.86199 -8.94961
101 1 3.14431 0.000394624 6.28936 -8.94959
102 1 4.71669 1.57257 7.86187 -8.94954
168 1 18.8698 6.28906 9.43444 -8.94955
104 1 7.86149 1.57218 7.86154 -8.94988
105 1 9.4344 0.000466202 6.28904 -8.94962
106 1 11.0072 1.57197 7.86158 -8.94965
107 1 12.5798 0.000254459 6.28908 -8.94966
108 1 14.1524 1.57217 7.86171 -8.94966
167 1 15.7256 6.28826 9.43439 -8.9489
110 1 17.2971 1.57228 7.8619 -8.9496
111 1 18.8693 0.000135804 6.28946 -8.94962
112 1 20.4416 1.57241 7.86199 -8.94961
113 1 22.0139 3.14474 6.28953 -8.94962
114 1 1.57232 4.71707 7.86201 -8.94962
115 1 3.14447 3.14478 6.28947 -8.94971
116 1 4.71686 4.71704 7.86199 -8.94983
117 1 6.2889 3.14421 6.28891 -8.94946
118 1 7.86088 4.71502 7.86082 -8.94841
119 1 9.43445 3.14418 6.28909 -8.94951
120 1 11.0078 4.71497 7.86109 -8.94805
121 1 12.5799 3.14397 6.28894 -8.94956
122 1 14.1528 4.71588 7.86158 -8.94984
123 1 15.7249 3.14432 6.28922 -8.94964
124 1 17.2974 4.71662 7.86184 -8.94956
125 1 18.8694 3.1446 6.28945 -8.94962
126 1 20.4418 4.71695 7.86197 -8.94961
127 1 8.98072e-05 6.28937 6.28949 -8.94965
128 1 1.57239 7.86177 7.862 -8.94951
129 1 3.14451 6.28938 6.28949 -8.9501
130 1 4.71714 7.86209 7.86223 -8.95129
131 1 6.28852 6.28818 6.28835 -8.94907
132 1 7.86006 7.85926 7.85826 -8.982
133 1 9.43468 6.28826 6.28899 -8.95076
134 1 11.0092 7.85981 7.86065 -9.00191
135 1 12.5803 6.28767 6.28841 -8.95064
136 1 14.1539 7.8594 7.86122 -8.95031
137 1 15.7253 6.28847 6.28889 -8.94954
138 1 17.2978 7.86121 7.86182 -8.95006
139 1 18.8696 6.28915 6.28935 -8.94971
140 1 20.442 7.86164 7.86191 -8.94957
141 1 22.0138 9.43407 6.2892 -8.94982
142 1 3.14344 9.43375 6.28866 -8.94983
143 1 6.28604 9.43214 6.28586 -8.94588
144 1 9.43166 9.43162 6.28511 -8.99721
145 1 12.5833 9.42906 6.28433 -8.97908
146 1 15.7266 9.43275 6.28787 -8.9489
147 1 18.8702 9.43377 6.2889 -8.94954
148 1 -0.000106122 0.000194172 9.4345 -8.9496
166 1 12.5806 6.28653 9.43409 -8.94865
150 1 6.28893 0.000599127 9.43443 -8.94955
165 1 9.43381 6.27864 9.43415 -8.96058
152 1 12.5799 0.000451335 9.43427 -8.94965
153 1 15.7248 0.000113279 9.43442 -8.94961
164 1 6.28987 6.28938 9.43444 -8.94972
155 1 2.8794e-05 3.14472 9.43449 -8.94961
156 1 3.1445 3.14476 9.43449 -8.94961
157 1 6.28909 3.14441 9.43443 -8.94917
158 1 9.43426 3.14233 9.43434 -8.95233
159 1 12.58 3.14352 9.43432 -8.94956
160 1 15.7249 3.14415 9.4344 -8.94954
161 1 18.8695 3.14455 9.43446 -8.94961
162 1 22.0141 6.28935 9.43448 -8.9496
163 1 3.14475 6.2894 9.43448 -8.94942
344 1 1.57209 11.0069 1.57203 -8.9496
350 1 20.4416 11.0069 1.57215 -8.9496
181 1 17.2972 1.5722 11.007 -8.9496
188 1 17.2975 4.71647 11.007 -8.94957
177 1 4.71669 1.5725 11.0071 -8.94954
184 1 4.71685 4.71696 11.007 -8.94985
189 1 20.4418 4.71691 11.007 -8.9496
644 1 20.4416 11.0069 20.4416 -8.9496
3 1 3.14459 0.000106175 22.0137 -8.9496
178 1 7.86148 1.57198 11.0073 -8.94982
179 1 11.0072 1.5717 11.0073 -8.9505
180 1 14.1524 1.57196 11.0071 -8.94962
46 1 9.43422 9.43412 22.0131 -8.94987
182 1 20.4416 1.57238 11.007 -8.94961
183 1 1.57233 4.71705 11.007 -8.94962
252 1 9.43441 -8.06378e-05 15.7248 -8.94954
185 1 7.86089 4.71468 11.008 -8.94842
186 1 11.0079 4.71292 11.008 -8.95088
187 1 14.1529 4.71543 11.0072 -8.94979
642 1 14.1523 11.007 20.4417 -8.94971
254 1 12.5796 -0.000151445 15.7248 -8.94954
641 1 11.007 11.0069 20.4415 -8.95051
640 1 7.86174 11.007 20.4414 -8.94975
45 1 6.2892 9.43431 22.0134 -8.94975
638 1 1.57222 11.0069 20.4415 -8.9496
194 1 14.1546 7.85856 11.0076 -8.94917
195 1 17.2982 7.86091 11.0072 -8.94974
196 1 20.4421 7.86159 11.0071 -8.94962
343 1 18.8695 9.43438 18.8695 -8.9496
198 1 1.57218 1.57244 14.152 -8.94964
342 1 15.725 9.43422 18.8699 -8.94957
200 1 4.71663 1.57229 14.1523 -8.94955
201 1 6.28896 0.000369943 12.5799 -8.94972
202 1 7.86161 1.57205 14.1525 -8.94972
341 1 12.5799 9.43402 18.8704 -8.95023
204 1 11.0071 1.57182 14.1525 -8.94955
340 1 9.43423 9.43405 18.8701 -8.95
206 1 14.1525 1.57179 14.1525 -8.94975
207 1 15.7248 1.37561e-05 12.5796 -8.94965
208 1 17.2972 1.57213 14.1521 -8.94964
339 1 6.28916 9.43429 18.8696 -8.94967
210 1 20.4417 1.57234 14.152 -8.94962
211 1 22.0139 3.1447 12.5795 -8.94962
212 1 1.57223 4.71699 14.152 -8.94973
213 1 3.14446 3.14471 12.5795 -8.9497
214 1 4.71646 4.71652 14.1524 -8.94942
215 1 6.28882 3.14399 12.58 -8.94939
216 1 7.86123 4.7155 14.1531 -8.94997
217 1 9.43424 3.14327 12.5802 -8.9499
218 1 11.0071 4.71526 14.1533 -8.94931
219 1 12.5802 3.14296 12.5803 -8.95007
220 1 14.1533 4.71489 14.1534 -8.94974
221 1 15.725 3.14399 12.5797 -8.94962
222 1 17.2976 4.71637 14.1524 -8.94968
223 1 18.8695 3.14448 12.5795 -8.94962
224 1 20.4419 4.71688 14.1521 -8.94965
225 1 0.000199609 6.28933 12.5795 -8.94967
226 1 1.57212 7.86166 14.1523 -8.94971
227 1 3.14448 6.28933 12.5795 -8.95002
228 1 4.71594 7.86115 14.1528 -8.94957
229 1 6.28834 6.288 12.5806 -8.94882
230 1 7.85909 7.8584 14.156 -8.94665
231 1 9.43371 6.28535 12.5814 -8.95063
232 1 11.0072 7.85904 14.1553 -8.94922
233 1 12.5818 6.28427 12.5823 -8.95123
234 1 14.1569 7.85673 14.1572 -8.94335
235 1 15.7259 6.28792 12.5802 -8.94966
236 1 17.2987 7.8608 14.1531 -8.95003
237 1 18.87 6.28897 12.5797 -8.94963
238 1 20.4422 7.86157 14.1523 -8.94975
239 1 22.0141 9.43411 12.5797 -8.94981
240 1 3.14387 9.43395 12.58 -8.94989
241 1 6.2869 9.43314 12.5817 -8.95064
242 1 9.42596 9.42453 12.5894 -9.02673
243 1 12.5939 9.41955 12.5939 -8.99998
244 1 15.7284 9.43239 12.5815 -8.95264
245 1 18.8707 9.43373 12.5801 -8.94988
246 1 22.0138 0.000114128 15.7245 -8.94962
247 1 1.5722 1.57237 17.2969 -8.94956
248 1 3.14438 0.000172751 15.7247 -8.94956
249 1 4.71683 1.57225 17.2971 -8.94956
338 1 3.14448 9.43438 18.8693 -8.9496
251 1 7.86186 1.57212 17.2971 -8.94958
337 1 22.0139 9.43442 18.8693 -8.9496
253 1 11.007 1.57205 17.2972 -8.94958
336 1 20.4417 7.86194 20.4416 -8.9496
255 1 14.1521 1.57203 17.2972 -8.94959
335 1 18.8695 6.28933 18.8695 -8.94959
257 1 17.2971 1.57212 17.2971 -8.94951
258 1 18.8694 3.11519e-05 15.7245 -8.94964
259 1 20.4416 1.57232 17.2969 -8.9496
260 1 1.49335e-05 3.14466 15.7245 -8.94964
261 1 1.5722 4.71697 17.297 -8.94958
262 1 3.14439 3.14456 15.7246 -8.94956
263 1 4.71659 4.71664 17.2973 -8.94929
264 1 6.28903 3.14417 15.725 -8.94963
265 1 7.86169 4.71648 17.2975 -8.94961
266 1 9.43433 3.14399 15.7251 -8.94949
267 1 11.007 4.71637 17.2976 -8.94955
268 1 12.5797 3.14389 15.7251 -8.94953
269 1 14.1524 4.71633 17.2976 -8.94966
270 1 15.7251 3.14389 15.7251 -8.94952
271 1 17.2975 4.71644 17.2975 -8.94909
272 1 18.8696 3.14445 15.7246 -8.94964
273 1 20.4418 4.7169 17.297 -8.94957
274 1 22.014 6.28931 15.7246 -8.94965
275 1 1.57221 7.86186 17.297 -8.94962
276 1 3.14423 6.28915 15.7248 -8.94958
277 1 4.7166 7.86166 17.2973 -8.94959
278 1 6.28832 6.28821 15.7258 -8.94862
279 1 7.8613 7.86109 17.2983 -8.94993
280 1 9.43418 6.2881 15.7259 -8.94936
281 1 11.007 7.86099 17.2984 -8.94938
282 1 12.5801 6.28794 15.7261 -8.9497
283 1 14.153 7.86081 17.2987 -8.95003
284 1 15.7262 6.28763 15.7263 -8.94787
285 1 17.2976 7.86151 17.2976 -8.94954
286 1 18.87 6.28898 15.7249 -8.94963
287 1 20.4418 7.86182 17.2971 -8.94961
288 1 0.000105458 9.43431 15.7247 -8.94965
289 1 3.14427 9.43424 15.7249 -8.94961
290 1 6.28861 9.4339 15.7257 -8.94957
291 1 9.43363 9.43285 15.728 -8.95046
292 1 12.5812 9.4325 15.7289 -8.95183
293 1 15.726 9.43356 15.7261 -8.94916
294 1 18.87 9.43416 15.725 -8.94961
334 1 17.2971 7.86181 20.4417 -8.94961
296 1 1.57226 1.57236 20.4415 -8.94952
333 1 15.725 6.28892 18.8699 -8.94961
298 1 4.71702 1.57231 20.4416 -8.94962
299 1 6.28947 -1.45126e-05 18.8693 -8.94964
300 1 7.86196 1.57226 20.4416 -8.94961
332 1 14.1524 7.86156 20.4418 -8.94984
302 1 11.007 1.57223 20.4416 -8.9496
331 1 12.5797 6.28893 18.8699 -8.94955
304 1 14.152 1.57222 20.4416 -8.94961
305 1 15.7245 -8.06499e-05 18.8693 -8.94964
306 1 17.2969 1.57225 20.4416 -8.94961
330 1 11.007 7.86157 20.4418 -8.94965
308 1 20.4416 1.57233 20.4416 -8.94948
309 1 22.0139 3.14466 18.8693 -8.94954
310 1 1.57224 4.71705 20.4415 -8.94958
311 1 3.1445 3.14459 18.8693 -8.94948
312 1 4.71686 4.71689 20.4416 -8.94955
313 1 6.28936 3.14448 18.8694 -8.94962
314 1 7.86185 4.71681 20.4417 -8.94959
315 1 9.43441 3.1444 18.8695 -8.94959
316 1 11.007 4.71677 20.4417 -8.94959
317 1 12.5795 3.14437 18.8695 -8.94959
318 1 14.1521 4.71677 20.4417 -8.9496
319 1 15.7246 3.14438 18.8695 -8.94962
320 1 17.2971 4.71682 20.4417 -8.94952
321 1 18.8694 3.14451 18.8694 -8.94941
322 1 20.4417 4.71704 20.4416 -8.94958
323 1 2.43475e-05 6.28946 18.8693 -8.9496
324 1 1.57223 7.86193 20.4415 -8.9496
325 1 3.14446 6.28938 18.8693 -8.9496
326 1 4.71682 7.86183 20.4415 -8.94964
327 1 6.2891 6.28907 18.8697 -8.94962
328 1 7.86167 7.8616 20.4416 -8.94977
329 1 9.43433 6.28897 18.8698 -8.94954
593 1 14.1529 11.0068 17.2985 -8.94967
592 1 11.0071 11.0067 17.2995 -8.95202
515 1 11.0354 10.9506 11.0971 -9.37604
517 1 17.2998 11.0057 11.0081 -8.94785
518 1 20.4425 11.0065 11.0072 -8.94975
540 1 1.57207 11.0068 14.1523 -8.94964
541 1 4.71601 11.0068 14.1529 -8.94932
542 1 7.86056 11.0064 14.1552 -8.9496
544 1 14.1553 11.0057 14.1561 -8.94785
545 1 17.2985 11.0066 14.1531 -8.94976
546 1 20.4421 11.0068 14.1523 -8.94971
591 1 7.86156 11.0069 17.298 -8.94985
7 1 9.43449 4.24545e-05 22.0137 -8.94961
9 1 12.5795 1.46594e-05 22.0138 -8.94961
13 1 18.8692 3.72612e-05 22.0138 -8.94957
19 1 6.28944 3.14458 22.0138 -8.94963
25 1 15.7245 3.14453 22.0138 -8.94963
31 1 3.14448 6.28939 22.0137 -8.9496
35 1 9.43438 6.28915 22.0137 -8.94957
37 1 12.5796 6.28915 22.0137 -8.94959
41 1 18.8694 6.28941 22.0138 -8.94963
43 1 22.0138 9.43442 22.0138 -8.9496
15 1 22.0139 3.14471 22.0138 -8.94953
176 1 1.57218 1.57249 11.007 -8.94961
687 2 10.9896 12.5409 10.1991 0.652759
511 1 18.8694 18.8695 9.43448 -8.94961
346 1 7.8616 11.007 1.57098 -8.94984
347 1 11.007 11.007 1.56953 -8.9529
348 1 14.1524 11.007 1.57153 -8.94942
510 1 15.725 18.8698 9.43442 -8.94954
539 1 20.4416 20.4418 11.007 -8.94961
154 1 18.8694 22.014 9.43448 -8.9496
352 1 1.57203 14.1519 1.57197 -8.9496
353 1 3.14442 12.5794 -0.000319784 -8.94958
354 1 4.71649 14.1522 1.5715 -8.94961
538 1 17.2971 20.4418 11.007 -8.94959
356 1 7.86137 14.1526 1.57078 -8.94988
357 1 9.43423 12.5798 -0.000996639 -8.94975
358 1 11.007 14.1524 1.57118 -8.94944
359 1 12.5798 12.5798 -0.000789151 -8.9499
360 1 14.1526 14.1525 1.57131 -8.94954
393 1 1.57179 11.0068 4.71659 -8.94951
362 1 17.2971 14.152 1.57205 -8.94969
363 1 18.8693 12.5794 -9.89109e-05 -8.9496
364 1 20.4416 14.1519 1.57213 -8.94961
365 1 -0.000107201 15.7244 -0.000176519 -8.9496
366 1 1.57202 17.297 1.57194 -8.94959
149 1 3.14431 22.0143 9.43449 -8.94958
368 1 4.71655 17.2973 1.57148 -8.94963
369 1 6.28916 15.7247 -0.000683812 -8.94975
370 1 7.8618 17.2974 1.57153 -8.94963
109 1 15.7248 22.0141 6.28924 -8.94961
372 1 11.007 17.2973 1.57167 -8.94955
103 1 6.28894 22.0145 6.28897 -8.94975
374 1 14.1521 17.2972 1.57184 -8.94971
375 1 15.7247 15.7247 -0.000334095 -8.94961
376 1 17.2971 17.2971 1.57196 -8.9495
99 1 -0.000120984 22.0141 6.2895 -8.94961
378 1 20.4415 17.2969 1.5721 -8.94963
394 1 4.71582 11.0067 4.71568 -8.94905
380 1 1.57209 20.4418 1.57204 -8.94941
381 1 3.14446 18.8694 -0.00033057 -8.94957
382 1 4.71689 20.4419 1.57193 -8.94964
62 1 18.8693 22.014 3.14456 -8.94959
384 1 7.86195 20.4418 1.57194 -8.94962
385 1 9.43449 18.8694 -0.000360781 -8.9496
386 1 11.007 20.4418 1.57199 -8.94961
387 1 12.5795 18.8694 -0.000303757 -8.94961
388 1 14.152 20.4417 1.57205 -8.94962
58 1 12.5796 22.014 3.14436 -8.9496
390 1 17.2969 20.4417 1.57212 -8.94959
391 1 18.8693 18.8693 -0.000148003 -8.94954
392 1 20.4415 20.4417 1.57217 -8.94952
509 1 12.5804 18.8714 9.43366 -8.94805
508 1 9.43343 18.8734 9.4336 -8.95088
395 1 7.86101 11.007 4.71363 -8.95243
396 1 11.0073 11.0072 4.70462 -8.96522
397 1 14.1523 11.0069 4.71565 -8.95124
507 1 6.28822 18.8711 9.43436 -8.94931
506 1 3.14391 18.87 9.43448 -8.94955
400 1 -0.000200282 12.5794 3.14438 -8.94959
401 1 1.57161 14.1521 4.71651 -8.94957
402 1 3.14402 12.5795 3.144 -8.94956
403 1 4.71536 14.1528 4.71546 -8.94916
404 1 6.28842 12.5797 3.14299 -8.94976
405 1 7.85994 14.1539 4.71306 -8.95264
406 1 9.43338 12.5807 3.1417 -8.94785
407 1 11.0066 14.1528 4.7149 -8.95053
408 1 12.5807 12.5807 3.14197 -8.94841
409 1 14.1536 14.1536 4.71491 -8.9489
410 1 15.7249 12.5795 3.14415 -8.94961
411 1 17.2975 14.1521 4.71655 -8.95015
412 1 18.8694 12.5794 3.1444 -8.9496
413 1 20.4416 14.152 4.71675 -8.94965
414 1 22.0136 15.7245 3.14434 -8.94961
415 1 1.57158 17.2974 4.71649 -8.94961
416 1 3.14392 15.7248 3.14388 -8.94954
417 1 4.71521 17.2987 4.71523 -8.94787
418 1 6.28839 15.7255 3.14276 -8.95003
419 1 7.86126 17.2984 4.71556 -8.94966
420 1 9.43427 15.7254 3.14324 -8.94974
421 1 11.0071 17.2981 4.71592 -8.9489
422 1 12.5797 15.7251 3.1437 -8.95006
423 1 14.1526 17.2979 4.71618 -8.94954
424 1 15.7251 15.7251 3.14376 -8.94935
425 1 17.2975 17.2975 4.71645 -8.94911
426 1 18.8694 15.7245 3.14434 -8.94975
427 1 20.4416 17.2972 4.71671 -8.94956
428 1 -0.000231121 18.8695 3.14437 -8.94952
429 1 1.57198 20.4419 4.71687 -8.94962
430 1 3.14401 18.8699 3.14395 -8.94909
431 1 4.71639 20.4424 4.71639 -8.94952
432 1 6.2891 18.87 3.14386 -8.94968
433 1 7.86174 20.4423 4.71644 -8.94962
434 1 9.43443 18.8698 3.14401 -8.94957
435 1 11.0071 20.4422 4.71653 -8.94954
436 1 12.5796 18.8697 3.14412 -8.94956
437 1 14.1523 20.442 4.71662 -8.94964
438 1 15.7247 18.8696 3.14424 -8.94958
439 1 17.2971 20.4419 4.71682 -8.94959
440 1 18.8694 18.8695 3.1444 -8.94947
441 1 20.4415 20.4418 4.71697 -8.94963
505 1 -0.000227414 18.8695 9.43451 -8.94959
504 1 18.87 15.7248 9.43448 -8.94939
444 1 7.85058 11.0024 7.85033 -9.0183
503 1 15.726 15.725 9.43457 -8.94945
446 1 14.1561 11.0016 7.85845 -9.03341
502 1 12.5808 15.7265 9.43232 -9.00191
501 1 9.43082 15.7364 9.43177 -9.01838
449 1 22.0136 12.5794 6.28917 -8.94971
450 1 1.57112 14.1523 7.86162 -8.95023
451 1 3.14299 12.5796 6.2886 -8.94967
452 1 4.7126 14.1538 7.86026 -8.95183
453 1 6.28541 12.5806 6.28617 -8.94785
454 1 7.84759 14.1668 7.84754 -8.99998
455 1 9.43069 12.5827 6.28556 -9.05492
456 1 11.0071 14.156 7.85709 -9.04109
457 1 12.583 12.5847 6.28538 -9.03341
458 1 14.1571 14.1573 7.85813 -8.97908
459 1 15.7258 12.5794 6.2892 -8.95124
460 1 17.2996 14.1531 7.86082 -8.9489
461 1 18.87 12.5793 6.28912 -8.94942
462 1 20.4421 14.1522 7.86167 -8.94999
463 1 -0.000346978 15.7248 6.28913 -8.94984
464 1 1.57161 17.2974 7.86181 -8.94955
465 1 3.14274 15.7255 6.28843 -8.95003
466 1 4.71539 17.2984 7.86142 -8.9497
467 1 6.28432 15.7296 6.28456 -8.94335
468 1 7.85921 17.3021 7.85965 -8.95123
469 1 9.43389 15.7278 6.28689 -8.94917
470 1 11.0074 17.2998 7.86092 -8.94865
471 1 12.5803 15.7269 6.28753 -8.95031
472 1 14.1531 17.2987 7.86122 -8.95064
473 1 15.7263 15.7261 6.28793 -8.94762
474 1 17.2975 17.2974 7.86181 -8.94991
475 1 18.87 15.725 6.2889 -8.94945
476 1 20.4416 17.2972 7.86189 -8.94959
477 1 22.0136 18.8696 6.28938 -8.9496
478 1 1.57197 20.442 7.86194 -8.94959
479 1 3.14387 18.87 6.28911 -8.94966
480 1 4.71634 20.4424 7.86175 -8.94953
481 1 6.28809 18.8714 6.28818 -8.94974
482 1 7.86115 20.4434 7.86128 -8.95007
483 1 9.43431 18.8709 6.28858 -8.94979
484 1 11.0072 20.4428 7.8615 -8.94956
485 1 12.5799 18.8704 6.28871 -8.94984
486 1 14.1525 20.4424 7.86155 -8.94956
487 1 15.725 18.87 6.28904 -8.94967
488 1 17.2971 20.4419 7.8619 -8.94964
489 1 18.8694 18.8696 6.28936 -8.94971
490 1 20.4416 20.4418 7.86197 -8.94961
491 1 -4.28699e-05 12.5794 9.43448 -8.95051
492 1 3.14201 12.5796 9.43438 -8.95202
493 1 6.2787 12.5796 9.43351 -9.01711
494 1 9.34434 12.6357 9.40612 -9.37604
495 1 12.6343 12.581 9.41687 -9.22994
496 1 15.7369 12.5791 9.43421 -8.96522
497 1 18.872 12.5793 9.43445 -8.9529
498 1 22.0136 15.7248 9.43449 -8.94965
499 1 3.14304 15.7253 9.43443 -8.94938
500 1 6.28616 15.7273 9.43426 -8.94922
56 1 9.43447 22.0141 3.14432 -8.9496
52 1 3.14437 22.0142 3.14436 -8.94951
516 1 14.1559 11.0036 11.0108 -9.05492
519 1 1.57137 14.1523 11.0072 -8.95
520 1 4.71352 14.1535 11.0078 -8.95046
521 1 7.85209 14.1618 11.0155 -9.02673
529 1 11.0073 17.3077 11.0077 -8.96058
398 1 17.2973 11.0068 4.71653 -8.94961
1 1 -8.16657e-05 22.014 -0.000108721 -8.94948
5 1 6.2895 22.014 -0.000180773 -8.94962
399 1 20.4417 11.0068 4.71676 -8.94956
530 1 14.1525 17.2981 11.0068 -8.95076
532 1 20.4417 17.2972 11.0071 -8.94957
534 1 4.7164 20.4423 11.0072 -8.94949
11 1 15.7244 22.0139 -0.000115696 -8.94962
686 1 20.4416 20.4416 20.4415 -8.94953
685 1 18.8693 18.8693 18.8693 -8.9495
514 1 7.85836 11.0059 11.0137 -9.0327
684 1 17.2968 20.4416 20.4415 -8.94964
307 1 18.8693 22.0139 18.8693 -8.94953
683 1 15.7245 18.8693 18.8693 -8.94975
682 1 14.152 20.4416 20.4415 -8.94962
303 1 12.5795 22.0138 18.8693 -8.94961
301 1 9.43447 22.0138 18.8693 -8.94961
297 1 3.14457 22.014 18.8693 -8.94956
522 1 11.0072 14.1933 11.0246 -9.25748
523 1 14.1564 14.1547 11.0098 -8.99721
524 1 17.2996 14.153 11.008 -8.94835
525 1 20.4423 14.1522 11.0073 -8.94987
526 1 1.5717 17.2973 11.0072 -8.94954
527 1 4.71559 17.2982 11.0073 -8.94936
528 1 7.86003 17.301 11.0078 -8.95063
295 1 -5.75572e-05 22.014 18.8692 -8.94952
639 1 4.71682 11.0069 20.4414 -8.94963
531 1 17.2975 17.2974 11.0071 -8.94955
643 1 17.2971 11.0069 20.4417 -8.94959
256 1 15.7248 22.0139 15.7248 -8.94956
383 1 6.28943 18.8694 22.0135 -8.94965
535 1 7.86131 20.443 11.0072 -8.9499
536 1 11.0071 20.444 11.0072 -8.95233
537 1 14.1524 20.4421 11.007 -8.94951
377 1 18.8693 15.7244 22.0138 -8.94963
389 1 15.7245 18.8693 22.0137 -8.94966
681 1 12.5795 18.8692 18.8692 -8.94962
680 1 11.007 20.4416 20.4415 -8.94961
679 1 9.43451 18.8693 18.8691 -8.94962
543 1 11.008 11.0068 14.1628 -9.01711
678 1 7.862 20.4416 20.4414 -8.94962
677 1 6.28946 18.8693 18.8692 -8.94973
676 1 4.71702 20.4417 20.4415 -8.94964
547 1 22.0139 12.5794 12.5797 -8.94975
548 1 1.57191 14.152 14.1523 -8.94967
549 1 3.14352 12.5795 12.5799 -8.94985
550 1 4.71574 14.1524 14.1529 -8.94957
551 1 6.2863 12.5799 12.5809 -8.9496
552 1 7.85979 14.1532 14.1546 -8.95064
553 1 9.42783 12.5804 12.5831 -9.0327
554 1 11.0066 14.1496 14.1495 -8.99806
555 1 12.5912 12.5839 12.5909 -9.0183
556 1 14.1556 14.1542 14.1554 -8.94588
557 1 15.7278 12.5793 12.5805 -8.95243
558 1 17.2983 14.1523 14.1528 -8.95026
559 1 18.8705 12.5794 12.5799 -8.94984
560 1 20.4419 14.152 14.1523 -8.94975
561 1 -0.00016242 15.7247 12.5798 -8.94977
562 1 1.5718 17.2973 14.1524 -8.94962
563 1 3.14319 15.7252 12.5802 -8.94993
564 1 4.71563 17.2981 14.1532 -8.94862
565 1 6.28548 15.7279 12.5824 -8.94665
566 1 7.86084 17.2983 14.1531 -8.94882
567 1 9.43082 15.7278 12.5813 -8.9812
568 1 11.007 17.2969 14.1516 -8.94972
569 1 12.5832 15.7271 12.5814 -8.982
570 1 14.1531 17.2981 14.153 -8.94907
571 1 15.7265 15.7257 12.5806 -8.94926
572 1 17.2976 17.2974 14.1525 -8.94941
573 1 18.8702 15.725 12.58 -8.94947
574 1 20.4417 17.2971 14.1523 -8.94957
575 1 22.0137 18.8695 12.5796 -8.94959
576 1 1.57205 20.4418 14.1521 -8.94962
577 1 3.14401 18.8698 12.5798 -8.94961
578 1 4.71647 20.4421 14.1524 -8.94963
579 1 6.28833 18.8708 12.5803 -8.94997
580 1 7.86144 20.4423 14.1527 -8.94939
581 1 9.43348 18.8716 12.5806 -8.94842
582 1 11.007 20.4419 14.1524 -8.94917
583 1 12.5807 18.8713 12.5806 -8.94841
584 1 14.1526 20.4421 14.1526 -8.94946
585 1 15.725 18.8698 12.5797 -8.95006
586 1 17.2971 20.4418 14.1521 -8.94973
587 1 18.8695 18.8695 12.5796 -8.94966
588 1 20.4416 20.4417 14.152 -8.94963
589 1 1.57221 11.0069 17.297 -8.9496
590 1 4.71666 11.0069 17.2973 -8.94955
675 1 3.14451 18.8694 18.8693 -8.94958
674 1 1.57222 20.4417 20.4415 -8.94954
673 1 22.0138 18.8693 18.8692 -8.94958
594 1 17.2975 11.0069 17.2975 -8.94956
595 1 20.4418 11.0069 17.2971 -8.94958
596 1 3.7503e-05 12.5794 15.7247 -8.94963
597 1 1.57216 14.1519 17.297 -8.9496
598 1 3.14419 12.5794 15.7248 -8.94955
599 1 4.71663 14.1521 17.2972 -8.94961
600 1 6.28854 12.5796 15.7255 -8.94932
601 1 7.86145 14.1524 17.2976 -8.94989
602 1 9.43361 12.5801 15.7266 -8.94857
603 1 11.007 14.1521 17.2968 -8.94811
604 1 12.5811 12.5803 15.728 -8.95105
605 1 14.1528 14.1526 17.298 -8.94983
606 1 15.7258 12.5796 15.7257 -8.94905
607 1 17.2974 14.1521 17.2973 -8.9496
608 1 18.8699 12.5795 15.7249 -8.94953
609 1 20.4417 14.152 17.297 -8.94959
610 1 22.0138 15.7245 15.7247 -8.94964
611 1 1.57213 17.2969 17.297 -8.9496
612 1 3.14415 15.7247 15.7249 -8.94959
613 1 4.71669 17.2972 17.2973 -8.94958
614 1 6.28863 15.7252 15.7255 -8.94957
615 1 7.86196 17.297 17.297 -8.95002
616 1 9.43467 15.7244 15.7244 -8.95101
617 1 11.007 17.2969 17.2967 -8.94942
618 1 12.5792 15.7242 15.7243 -8.95129
619 1 14.152 17.2969 17.297 -8.9501
620 1 15.7256 15.7254 15.7256 -8.94848
621 1 17.2972 17.2972 17.2972 -8.9493
622 1 18.8697 15.7247 15.7248 -8.94968
623 1 20.4417 17.2969 17.297 -8.9496
624 1 -0.000129997 18.8694 15.7246 -8.94955
625 1 1.57214 20.4417 17.297 -8.94948
626 1 3.14416 18.8697 15.7249 -8.94929
627 1 4.71686 20.4418 17.2971 -8.94956
628 1 6.28904 18.8698 15.725 -8.94942
629 1 7.86195 20.4416 17.297 -8.9497
630 1 9.43451 18.8694 15.7246 -8.94985
631 1 11.007 20.4416 17.297 -8.94961
632 1 12.5795 18.8693 15.7246 -8.94983
633 1 14.152 20.4415 17.297 -8.94971
634 1 15.7249 18.8697 15.7249 -8.94942
635 1 17.297 20.4417 17.297 -8.94953
636 1 18.8694 18.8695 15.7246 -8.94954
637 1 20.4416 20.4417 17.2969 -8.94956
672 1 20.4416 17.2968 20.4415 -8.94961
671 1 18.8694 15.7245 18.8693 -8.94962
670 1 17.297 17.297 20.4415 -8.94955
669 1 15.7248 15.7247 18.8695 -8.94958
668 1 14.152 17.297 20.4414 -8.94965
667 1 12.5795 15.7245 18.8691 -8.94951
666 1 11.007 17.297 20.4413 -8.9496
645 1 22.0139 12.5794 18.8693 -8.9496
646 1 1.5722 14.1519 20.4415 -8.9496
647 1 3.14447 12.5794 18.8693 -8.9496
648 1 4.71681 14.152 20.4414 -8.94965
649 1 6.28918 12.5795 18.8694 -8.94964
650 1 7.86173 14.1522 20.4413 -8.94981
651 1 9.4343 12.5797 18.8696 -8.94982
652 1 11.007 14.1522 20.4412 -8.94938
653 1 12.5798 12.5797 18.87 -8.95023
654 1 14.1523 14.1523 20.4415 -8.94982
655 1 15.7249 12.5796 18.8697 -8.94951
656 1 17.2971 14.152 20.4416 -8.94958
657 1 18.8695 12.5795 18.8694 -8.9496
658 1 20.4416 14.1519 20.4415 -8.9496
659 1 -4.09588e-05 15.7244 18.8692 -8.9496
660 1 1.57219 17.2969 20.4415 -8.9496
661 1 3.14447 15.7245 18.8693 -8.94962
662 1 4.71687 17.297 20.4414 -8.94965
663 1 6.28922 15.7247 18.8694 -8.94971
664 1 7.86196 17.297 20.4413 -8.94967
665 1 9.43448 15.7246 18.869 -8.94956
197 1 -9.09962e-05 22.0141 12.5795 -8.94961
199 1 3.14434 22.0142 12.5796 -8.94958
203 1 9.43422 22.0143 12.58 -8.94982
205 1 12.5799 22.0141 12.58 -8.94988
209 1 18.8694 22.014 12.5795 -8.94961
250 1 6.28918 22.014 15.7248 -8.94955
351 1 22.0138 12.5794 22.0137 -8.9496
355 1 6.28915 12.5795 22.0133 -8.94971
367 1 3.1444 15.7245 22.0135 -8.94961
371 1 9.43442 15.7247 22.0133 -8.94962
373 1 12.5796 15.7247 22.0134 -8.94957
361 1 15.7247 12.5795 22.0137 -8.94956
379 1 22.0138 18.8693 22.0137 -8.94958
533 1 1.572 20.4419 11.0071 -8.94959
