ITEM: TIMESTEP
42
ITEM: NUMBER OF ATOMS
688
ITEM: BOX BOUNDS pp pp pp
0.0000000000000000e+00 2.2013900999999997e+01
0.0000000000000000e+00 2.2013900999999997e+01
0.0000000000000000e+00 2.2013900999999997e+01
ITEM: ATOMS id type x y z c_pot
513 1 4.71713 11.0069 11.007 -8.95031
2 1 1.57242 1.57242 1.57242 -8.94963
175 1 18.8691 9.43453 9.43453 -8.94968
4 1 4.71726 1.57242 1.57242 -8.94963
512 1 1.57242 11.0069 11.0069 -8.94967
6 1 7.86211 1.57242 1.57242 -8.94963
448 1 20.4415 11.0069 7.86211 -8.94962
8 1 11.007 1.57242 1.57242 -8.94963
447 1 17.2966 11.0069 7.86208 -8.94902
10 1 14.1518 1.57242 1.57242 -8.94963
174 1 15.7243 9.43457 9.43454 -8.95117
12 1 17.2966 1.57242 1.57242 -8.94963
445 1 11.0197 11.0045 7.83286 -9.26937
14 1 20.4415 1.57242 1.57242 -8.94963
151 1 9.43453 7.39346e-07 9.43453 -8.94965
16 1 1.57242 4.71726 1.57242 -8.94963
17 1 3.14484 3.14484 2.27864e-09 -8.94963
18 1 4.71726 4.71726 1.57242 -8.94963
443 1 4.71713 11.0069 7.86209 -8.95032
20 1 7.86211 4.71726 1.57242 -8.94963
21 1 9.43453 3.14484 -4.51545e-09 -8.94963
22 1 11.007 4.71726 1.57242 -8.94963
23 1 12.5794 3.14484 -1.3305e-09 -8.94963
24 1 14.1518 4.71726 1.57242 -8.94963
442 1 1.57242 11.0069 7.86211 -8.94967
26 1 17.2966 4.71726 1.57242 -8.94963
27 1 18.8691 3.14484 1.43527e-10 -8.94963
28 1 20.4415 4.71726 1.57242 -8.94963
29 1 1.10619e-09 6.28969 9.75741e-11 -8.94963
30 1 1.57242 7.86211 1.57242 -8.94963
193 1 11.0073 7.86115 11.0069 -9.01164
32 1 4.71726 7.86211 1.57242 -8.94963
33 1 6.28969 6.28969 -1.63617e-09 -8.94963
34 1 7.86211 7.86211 1.57242 -8.94962
192 1 7.86216 7.86257 11.0074 -8.98877
36 1 11.007 7.86211 1.57242 -8.94963
191 1 4.71731 7.86215 11.0069 -8.9499
38 1 14.1518 7.86211 1.57242 -8.94962
39 1 15.7242 6.28969 -8.0094e-09 -8.94963
40 1 17.2966 7.86211 1.57242 -8.94963
190 1 1.57242 7.86211 11.0069 -8.94963
42 1 20.4415 7.86211 1.57242 -8.94963
349 1 17.2966 11.007 1.57242 -8.94963
44 1 3.14484 9.43453 8.25687e-09 -8.94963
345 1 4.71726 11.007 1.57242 -8.94963
688 2 10.2218 11.0065 9.43297 0.919222
47 1 12.5794 9.43453 -5.66182e-07 -8.94963
48 1 15.7242 9.43453 2.51826e-07 -8.94963
49 1 18.8691 9.43453 -1.47928e-08 -8.94963
50 1 22.0139 2.09529e-10 3.14484 -8.94963
51 1 1.57242 1.57242 4.71726 -8.94963
173 1 12.5828 9.43242 9.43428 -9.03972
53 1 4.71726 1.57242 4.71726 -8.94963
54 1 6.28969 1.45093e-08 3.14484 -8.94963
55 1 7.86211 1.57242 4.71726 -8.94963
172 1 9.42175 9.40923 9.43435 -9.29058
57 1 11.007 1.57242 4.71726 -8.94963
171 1 6.29062 9.43528 9.43454 -8.99882
59 1 14.1518 1.57242 4.71726 -8.94963
60 1 15.7242 1.43653e-08 3.14484 -8.94963
61 1 17.2966 1.57242 4.71726 -8.94963
170 1 3.14488 9.43453 9.43453 -8.94934
63 1 20.4415 1.57242 4.71726 -8.94963
64 1 4.73726e-09 3.14484 3.14484 -8.94963
65 1 1.57242 4.71726 4.71726 -8.94963
66 1 3.14484 3.14484 3.14484 -8.94963
67 1 4.71727 4.71727 4.71727 -8.94964
68 1 6.28969 3.14484 3.14484 -8.94963
69 1 7.86211 4.71726 4.71726 -8.94965
70 1 9.43453 3.14484 3.14484 -8.94963
71 1 11.0069 4.71727 4.71726 -8.94963
72 1 12.5794 3.14484 3.14484 -8.94963
73 1 14.1518 4.71727 4.71726 -8.94963
74 1 15.7242 3.14484 3.14484 -8.94963
75 1 17.2966 4.71726 4.71726 -8.94963
76 1 18.8691 3.14484 3.14484 -8.94963
77 1 20.4415 4.71726 4.71726 -8.94963
78 1 22.0139 6.28969 3.14484 -8.94963
79 1 1.57242 7.86211 4.71726 -8.94963
80 1 3.14484 6.28969 3.14484 -8.94963
81 1 4.71726 7.8621 4.71726 -8.94957
82 1 6.28969 6.28969 3.14484 -8.94963
83 1 7.86211 7.86211 4.71725 -8.94967
84 1 9.43453 6.28969 3.14484 -8.94964
85 1 11.0069 7.86215 4.71731 -8.95017
86 1 12.5794 6.28969 3.14484 -8.94966
87 1 14.1518 7.86211 4.71727 -8.94958
88 1 15.7242 6.28969 3.14484 -8.94963
89 1 17.2966 7.86211 4.71727 -8.94965
90 1 18.8691 6.28969 3.14484 -8.94963
91 1 20.4415 7.86211 4.71726 -8.94963
92 1 2.60852e-08 9.43453 3.14484 -8.94963
93 1 3.14484 9.43453 3.14484 -8.94964
94 1 6.28969 9.43453 3.14484 -8.94968
95 1 9.4345 9.4345 3.14482 -8.94934
96 1 12.5794 9.4345 3.14483 -8.94933
97 1 15.7242 9.43453 3.14485 -8.94967
98 1 18.8691 9.43453 3.14484 -8.94963
169 1 9.87289e-07 9.43453 9.43453 -8.94962
100 1 1.57242 1.57242 7.86211 -8.94963
101 1 3.14484 5.28387e-09 6.28969 -8.94963
102 1 4.71726 1.57242 7.86211 -8.94963
168 1 18.8691 6.28969 9.43453 -8.94963
104 1 7.86211 1.57242 7.86211 -8.94963
105 1 9.43453 1.42079e-07 6.28969 -8.94963
106 1 11.007 1.57242 7.86211 -8.94963
107 1 12.5794 1.35319e-07 6.28969 -8.94963
108 1 14.1518 1.57242 7.86211 -8.94963
167 1 15.7242 6.28969 9.43453 -8.94967
110 1 17.2966 1.57242 7.86211 -8.94963
111 1 18.8691 5.45615e-09 6.28969 -8.94963
112 1 20.4415 1.57242 7.86211 -8.94963
113 1 22.0139 3.14484 6.28969 -8.94963
114 1 1.57242 4.71726 7.86211 -8.94963
115 1 3.14484 3.14484 6.28969 -8.94963
116 1 4.71726 4.71727 7.86211 -8.94965
117 1 6.28969 3.14484 6.28969 -8.94962
118 1 7.86209 4.71726 7.86208 -8.9493
119 1 9.43453 3.14485 6.28969 -8.94964
120 1 11.007 4.71725 7.86209 -8.94937
121 1 12.5794 3.14484 6.28969 -8.94963
122 1 14.1518 4.71726 7.8621 -8.94965
123 1 15.7242 3.14484 6.28969 -8.94963
124 1 17.2966 4.71726 7.86211 -8.94964
125 1 18.8691 3.14484 6.28969 -8.94963
126 1 20.4415 4.71726 7.86211 -8.94963
127 1 1.41287e-07 6.28969 6.28969 -8.94963
128 1 1.57242 7.86211 7.86211 -8.94963
129 1 3.14485 6.28969 6.28969 -8.94965
130 1 4.71731 7.86215 7.86214 -8.94993
131 1 6.2897 6.2897 6.2897 -8.94966
132 1 7.86212 7.86252 7.8617 -8.98852
133 1 9.43454 6.28972 6.28972 -8.95015
134 1 11.0073 7.86227 7.86215 -9.00537
135 1 12.5794 6.28967 6.28969 -8.94977
136 1 14.1519 7.86197 7.862 -8.94899
137 1 15.7242 6.28968 6.28968 -8.94957
138 1 17.2966 7.8621 7.86211 -8.94966
139 1 18.8691 6.28969 6.28969 -8.94963
140 1 20.4415 7.86211 7.86211 -8.94963
141 1 22.0139 9.43453 6.28969 -8.94963
142 1 3.14483 9.43453 6.28968 -8.94963
143 1 6.28955 9.43443 6.28956 -8.9489
144 1 9.43406 9.43444 6.28979 -9.00353
145 1 12.5795 9.43396 6.28993 -8.98743
146 1 15.7242 9.43457 6.28974 -8.94992
147 1 18.8691 9.43453 6.28969 -8.94962
148 1 1.54777e-09 -6.48522e-10 9.43453 -8.94963
166 1 12.5794 6.28958 9.43451 -8.95017
150 1 6.28969 -8.79182e-08 9.43453 -8.94963
165 1 9.43455 6.28844 9.43451 -8.95619
152 1 12.5794 8.0625e-07 9.43453 -8.94963
153 1 15.7242 -8.94242e-08 9.43453 -8.94963
164 1 6.28977 6.28979 9.43453 -8.9503
155 1 -2.59485e-09 3.14484 9.43453 -8.94963
156 1 3.14484 3.14484 9.43453 -8.94963
157 1 6.28969 3.14485 9.43453 -8.94962
158 1 9.43453 3.14481 9.43453 -8.94998
159 1 12.5794 3.14484 9.43453 -8.94967
160 1 15.7242 3.14484 9.43453 -8.94963
161 1 18.8691 3.14484 9.43453 -8.94963
162 1 22.0139 6.28969 9.43453 -8.94963
163 1 3.14484 6.28968 9.43453 -8.9496
344 1 1.57242 11.007 1.57242 -8.94963
350 1 20.4415 11.007 1.57242 -8.94963
181 1 17.2966 1.57242 11.007 -8.94963
188 1 17.2966 4.71726 11.007 -8.94964
177 1 4.71726 1.57242 11.007 -8.94963
184 1 4.71726 4.71727 11.0069 -8.94965
189 1 20.4415 4.71726 11.007 -8.94963
644 1 20.4415 11.007 20.4415 -8.94963
3 1 3.14484 4.81932e-11 22.0139 -8.94963
178 1 7.86211 1.57242 11.007 -8.94963
179 1 11.007 1.57242 11.007 -8.94965
180 1 14.1518 1.57242 11.007 -8.94963
46 1 9.43453 9.43453 22.0139 -8.94963
182 1 20.4415 1.57242 11.007 -8.94963
183 1 1.57242 4.71726 11.007 -8.94963
252 1 9.43453 -1.16298e-07 15.7242 -8.94963
185 1 7.86209 4.71727 11.007 -8.94931
186 1 11.007 4.71722 11.007 -8.94967
187 1 14.1518 4.71726 11.007 -8.94966
642 1 14.1518 11.007 20.4415 -8.94963
254 1 12.5794 -1.17511e-07 15.7242 -8.94963
641 1 11.007 11.007 20.4415 -8.94964
640 1 7.86211 11.007 20.4415 -8.94963
45 1 6.28969 9.43453 22.0139 -8.94963
638 1 1.57242 11.007 20.4415 -8.94963
194 1 14.1519 7.86201 11.0071 -8.94938
195 1 17.2966 7.8621 11.007 -8.94965
196 1 20.4415 7.86211 11.007 -8.94963
343 1 18.8691 9.43453 18.8691 -8.94963
198 1 1.57242 1.57242 14.1518 -8.94963
342 1 15.7242 9.43453 18.8691 -8.94963
200 1 4.71726 1.57242 14.1518 -8.94963
201 1 6.28969 -5.57904e-08 12.5794 -8.94963
202 1 7.86211 1.57242 14.1518 -8.94963
341 1 12.5794 9.43453 18.8691 -8.94962
204 1 11.007 1.57242 14.1518 -8.94963
340 1 9.43453 9.43453 18.8691 -8.94962
206 1 14.1518 1.57242 14.1518 -8.94963
207 1 15.7242 -5.08191e-08 12.5794 -8.94963
208 1 17.2966 1.57242 14.1518 -8.94963
339 1 6.28969 9.43453 18.8691 -8.94963
210 1 20.4415 1.57242 14.1518 -8.94963
211 1 22.0139 3.14484 12.5794 -8.94963
212 1 1.57242 4.71726 14.1518 -8.94963
213 1 3.14484 3.14484 12.5794 -8.94963
214 1 4.71727 4.71726 14.1518 -8.94964
215 1 6.28969 3.14484 12.5794 -8.94962
216 1 7.86211 4.71726 14.1518 -8.94964
217 1 9.43453 3.14485 12.5794 -8.94963
218 1 11.0069 4.71727 14.1518 -8.94963
219 1 12.5794 3.14484 12.5794 -8.94962
220 1 14.1518 4.71727 14.1518 -8.94962
221 1 15.7242 3.14484 12.5794 -8.94963
222 1 17.2966 4.71726 14.1518 -8.94963
223 1 18.8691 3.14484 12.5794 -8.94963
224 1 20.4415 4.71726 14.1518 -8.94963
225 1 1.41465e-07 6.28969 12.5794 -8.94963
226 1 1.57242 7.86211 14.1518 -8.94963
227 1 3.14485 6.28969 12.5794 -8.94965
228 1 4.71726 7.8621 14.1518 -8.94957
229 1 6.2897 6.28969 12.5794 -8.94968
230 1 7.86212 7.86212 14.1518 -8.94975
231 1 9.43452 6.28973 12.5794 -8.94981
232 1 11.0069 7.86224 14.1517 -8.95092
233 1 12.5794 6.28968 12.5794 -8.94946
234 1 14.1518 7.86212 14.1518 -8.94961
235 1 15.7242 6.28968 12.5794 -8.94959
236 1 17.2966 7.86211 14.1518 -8.94965
237 1 18.8691 6.28969 12.5794 -8.94963
238 1 20.4415 7.86211 14.1518 -8.94963
239 1 22.0139 9.43453 12.5794 -8.94963
240 1 3.14483 9.43453 12.5794 -8.94964
241 1 6.28954 9.43443 12.5795 -8.94902
242 1 9.43371 9.43496 12.5791 -9.04171
243 1 12.5799 9.43437 12.5791 -9.02412
244 1 15.7242 9.43457 12.5793 -8.95007
245 1 18.8691 9.43453 12.5794 -8.94962
246 1 22.0139 4.36366e-10 15.7242 -8.94963
247 1 1.57242 1.57242 17.2966 -8.94963
248 1 3.14484 2.91961e-09 15.7242 -8.94963
249 1 4.71726 1.57242 17.2966 -8.94963
338 1 3.14484 9.43453 18.8691 -8.94963
251 1 7.86211 1.57242 17.2966 -8.94963
337 1 22.0139 9.43453 18.8691 -8.94963
253 1 11.007 1.57242 17.2966 -8.94963
336 1 20.4415 7.86211 20.4415 -8.94963
255 1 14.1518 1.57242 17.2966 -8.94963
335 1 18.8691 6.28969 18.8691 -8.94963
257 1 17.2966 1.57242 17.2966 -8.94963
258 1 18.8691 3.06586e-09 15.7242 -8.94963
259 1 20.4415 1.57242 17.2966 -8.94963
260 1 4.74533e-09 3.14484 15.7242 -8.94963
261 1 1.57242 4.71726 17.2966 -8.94963
262 1 3.14484 3.14484 15.7242 -8.94963
263 1 4.71726 4.71726 17.2966 -8.94963
264 1 6.28969 3.14484 15.7242 -8.94963
265 1 7.86211 4.71726 17.2966 -8.94963
266 1 9.43453 3.14484 15.7242 -8.94963
267 1 11.007 4.71726 17.2966 -8.94963
268 1 12.5794 3.14484 15.7242 -8.94963
269 1 14.1518 4.71726 17.2966 -8.94963
270 1 15.7242 3.14484 15.7242 -8.94963
271 1 17.2966 4.71726 17.2966 -8.94963
272 1 18.8691 3.14484 15.7242 -8.94963
273 1 20.4415 4.71726 17.2966 -8.94963
274 1 22.0139 6.28969 15.7242 -8.94963
275 1 1.57242 7.86211 17.2966 -8.94963
276 1 3.14484 6.28969 15.7242 -8.94963
277 1 4.71726 7.86211 17.2966 -8.94963
278 1 6.28969 6.28969 15.7242 -8.94964
279 1 7.86211 7.86211 17.2966 -8.94964
280 1 9.43453 6.28969 15.7242 -8.94965
281 1 11.007 7.86211 17.2966 -8.94961
282 1 12.5794 6.28969 15.7242 -8.94967
283 1 14.1518 7.86211 17.2966 -8.94964
284 1 15.7242 6.28969 15.7242 -8.94964
285 1 17.2966 7.86211 17.2966 -8.94963
286 1 18.8691 6.28969 15.7242 -8.94963
287 1 20.4415 7.86211 17.2966 -8.94963
288 1 2.64719e-08 9.43453 15.7242 -8.94963
289 1 3.14484 9.43453 15.7242 -8.94964
290 1 6.28968 9.43452 15.7242 -8.9496
291 1 9.43454 9.43455 15.7242 -8.9496
292 1 12.5794 9.43455 15.7242 -8.94961
293 1 15.7242 9.43452 15.7242 -8.94959
294 1 18.8691 9.43453 15.7242 -8.94963
334 1 17.2966 7.86211 20.4415 -8.94963
296 1 1.57242 1.57242 20.4415 -8.94963
333 1 15.7242 6.28969 18.8691 -8.94963
298 1 4.71726 1.57242 20.4415 -8.94963
299 1 6.28969 5.67087e-10 18.8691 -8.94963
300 1 7.86211 1.57242 20.4415 -8.94963
332 1 14.1518 7.86211 20.4415 -8.94963
302 1 11.007 1.57242 20.4415 -8.94963
331 1 12.5794 6.28969 18.8691 -8.94963
304 1 14.1518 1.57242 20.4415 -8.94963
305 1 15.7242 5.17205e-10 18.8691 -8.94963
306 1 17.2966 1.57242 20.4415 -8.94963
330 1 11.007 7.86211 20.4415 -8.94963
308 1 20.4415 1.57242 20.4415 -8.94963
309 1 22.0139 3.14484 18.8691 -8.94963
310 1 1.57242 4.71726 20.4415 -8.94963
311 1 3.14484 3.14484 18.8691 -8.94963
312 1 4.71726 4.71726 20.4415 -8.94963
313 1 6.28969 3.14484 18.8691 -8.94963
314 1 7.86211 4.71726 20.4415 -8.94963
315 1 9.43453 3.14484 18.8691 -8.94963
316 1 11.007 4.71726 20.4415 -8.94963
317 1 12.5794 3.14484 18.8691 -8.94963
318 1 14.1518 4.71726 20.4415 -8.94963
319 1 15.7242 3.14484 18.8691 -8.94963
320 1 17.2966 4.71726 20.4415 -8.94963
321 1 18.8691 3.14484 18.8691 -8.94963
322 1 20.4415 4.71726 20.4415 -8.94963
323 1 1.1049e-09 6.28969 18.8691 -8.94963
324 1 1.57242 7.86211 20.4415 -8.94963
325 1 3.14484 6.28969 18.8691 -8.94963
326 1 4.71726 7.86211 20.4415 -8.94963
327 1 6.28969 6.28969 18.8691 -8.94963
328 1 7.86211 7.86211 20.4415 -8.94963
329 1 9.43453 6.28969 18.8691 -8.94963
593 1 14.1518 11.0069 17.2966 -8.94964
592 1 11.007 11.0069 17.2966 -8.94972
515 1 11.0205 10.9794 11.0485 -9.44297
517 1 17.2966 11.0069 11.007 -8.94901
518 1 20.4415 11.0069 11.007 -8.94962
540 1 1.57242 11.007 14.1518 -8.94963
541 1 4.71726 11.0069 14.1518 -8.94969
542 1 7.86196 11.0068 14.152 -8.94976
544 1 14.1519 11.0068 14.1518 -8.9496
545 1 17.2966 11.0069 14.1518 -8.94963
546 1 20.4415 11.007 14.1518 -8.94963
591 1 7.86211 11.0069 17.2966 -8.94969
7 1 9.43453 7.74357e-10 22.0139 -8.94963
9 1 12.5794 8.73199e-10 22.0139 -8.94963
13 1 18.8691 4.89266e-11 22.0139 -8.94963
19 1 6.28969 3.14484 22.0139 -8.94963
25 1 15.7242 3.14484 22.0139 -8.94963
31 1 3.14484 6.28969 22.0139 -8.94963
35 1 9.43453 6.28969 22.0139 -8.94963
37 1 12.5794 6.28969 22.0139 -8.94963
41 1 18.8691 6.28969 22.0139 -8.94963
43 1 22.0139 9.43453 22.0139 -8.94963
15 1 22.0139 3.14484 22.0139 -8.94963
176 1 1.57242 1.57242 11.007 -8.94963
687 2 11.0085 12.5798 10.2197 0.919222
511 1 18.8691 18.8691 9.43453 -8.94963
346 1 7.86211 11.007 1.57242 -8.94967
347 1 11.007 11.007 1.57238 -8.95003
348 1 14.1518 11.007 1.57243 -8.94962
510 1 15.7242 18.8691 9.43453 -8.94963
539 1 20.4415 20.4415 11.007 -8.94963
154 1 18.8691 22.0139 9.43453 -8.94963
352 1 1.57242 14.1518 1.57242 -8.94963
353 1 3.14484 12.5794 1.68335e-08 -8.94963
354 1 4.71726 14.1518 1.57242 -8.94963
538 1 17.2966 20.4415 11.007 -8.94963
356 1 7.86211 14.1518 1.57242 -8.94962
357 1 9.43453 12.5794 2.71938e-07 -8.94962
358 1 11.007 14.1518 1.57242 -8.94968
359 1 12.5794 12.5794 6.91511e-07 -8.94962
360 1 14.1518 14.1518 1.57242 -8.94962
393 1 1.57242 11.007 4.71726 -8.94963
362 1 17.2966 14.1518 1.57242 -8.94963
363 1 18.8691 12.5794 -1.06711e-08 -8.94963
364 1 20.4415 14.1518 1.57242 -8.94963
365 1 1.03407e-09 15.7242 4.55949e-10 -8.94963
366 1 1.57242 17.2966 1.57242 -8.94963
149 1 3.14484 22.0139 9.43453 -8.94963
368 1 4.71726 17.2966 1.57242 -8.94963
369 1 6.28969 15.7242 1.69973e-07 -8.94963
370 1 7.86211 17.2966 1.57242 -8.94963
109 1 15.7242 22.0139 6.28969 -8.94963
372 1 11.007 17.2966 1.57242 -8.94963
103 1 6.28969 22.0139 6.28969 -8.94963
374 1 14.1518 17.2966 1.57242 -8.94963
375 1 15.7242 15.7242 1.55463e-07 -8.94963
376 1 17.2966 17.2966 1.57242 -8.94963
99 1 1.20688e-10 22.0139 6.28969 -8.94963
378 1 20.4415 17.2966 1.57242 -8.94963
394 1 4.71727 11.007 4.71727 -8.94968
380 1 1.57242 20.4415 1.57242 -8.94963
381 1 3.14484 18.8691 7.36029e-09 -8.94963
382 1 4.71726 20.4415 1.57242 -8.94963
62 1 18.8691 22.0139 3.14484 -8.94963
384 1 7.86211 20.4415 1.57242 -8.94963
385 1 9.43453 18.8691 2.28444e-08 -8.94963
386 1 11.007 20.4415 1.57242 -8.94963
387 1 12.5794 18.8691 2.59963e-08 -8.94963
388 1 14.1518 20.4415 1.57242 -8.94963
58 1 12.5794 22.0139 3.14484 -8.94963
390 1 17.2966 20.4415 1.57242 -8.94963
391 1 18.8691 18.8691 5.14093e-09 -8.94963
392 1 20.4415 20.4415 1.57242 -8.94963
509 1 12.5794 18.8691 9.43451 -8.94937
508 1 9.43451 18.8691 9.43451 -8.94967
395 1 7.86214 11.007 4.71721 -8.95076
396 1 11.0069 11.007 4.71588 -8.95743
397 1 14.1517 11.007 4.71741 -8.95058
507 1 6.28969 18.8691 9.43453 -8.94963
506 1 3.14484 18.8691 9.43453 -8.94963
400 1 2.44074e-08 12.5794 3.14484 -8.94963
401 1 1.57242 14.1518 4.71726 -8.94963
402 1 3.14484 12.5794 3.14484 -8.94964
403 1 4.71726 14.1518 4.71726 -8.94959
404 1 6.28968 12.5794 3.14484 -8.94963
405 1 7.86215 14.1517 4.7173 -8.95007
406 1 9.4345 12.5794 3.14486 -8.94901
407 1 11.0069 14.1517 4.71718 -8.95117
408 1 12.5794 12.5794 3.14487 -8.94902
409 1 14.1517 14.1517 4.71731 -8.94992
410 1 15.7242 12.5794 3.14485 -8.94962
411 1 17.2966 14.1518 4.71727 -8.94967
412 1 18.8691 12.5794 3.14484 -8.94963
413 1 20.4415 14.1518 4.71726 -8.94963
414 1 22.0139 15.7242 3.14484 -8.94963
415 1 1.57242 17.2966 4.71726 -8.94963
416 1 3.14484 15.7242 3.14484 -8.94963
417 1 4.71727 17.2966 4.71727 -8.94964
418 1 6.28969 15.7242 3.14485 -8.94965
419 1 7.8621 17.2966 4.71726 -8.94959
420 1 9.43453 15.7242 3.14483 -8.94965
421 1 11.0069 17.2966 4.71727 -8.94967
422 1 12.5794 15.7242 3.14483 -8.94966
423 1 14.1518 17.2966 4.71726 -8.94957
424 1 15.7242 15.7242 3.14485 -8.94965
425 1 17.2966 17.2966 4.71727 -8.94963
426 1 18.8691 15.7242 3.14484 -8.94963
427 1 20.4415 17.2966 4.71726 -8.94963
428 1 4.73688e-09 18.8691 3.14484 -8.94963
429 1 1.57242 20.4415 4.71726 -8.94963
430 1 3.14484 18.8691 3.14484 -8.94963
431 1 4.71726 20.4415 4.71726 -8.94963
432 1 6.28969 18.8691 3.14484 -8.94963
433 1 7.86211 20.4415 4.71726 -8.94963
434 1 9.43453 18.8691 3.14484 -8.94964
435 1 11.007 20.4415 4.71726 -8.94963
436 1 12.5794 18.8691 3.14484 -8.94964
437 1 14.1518 20.4415 4.71726 -8.94963
438 1 15.7242 18.8691 3.14484 -8.94963
439 1 17.2966 20.4415 4.71726 -8.94963
440 1 18.8691 18.8691 3.14484 -8.94963
441 1 20.4415 20.4415 4.71726 -8.94963
505 1 -2.08434e-09 18.8691 9.43453 -8.94963
504 1 18.8691 15.7242 9.43453 -8.94963
444 1 7.85908 11.0066 7.85975 -9.02367
503 1 15.7242 15.7242 9.43454 -8.95017
446 1 14.1505 11.0065 7.86279 -9.0372
502 1 12.5793 15.7241 9.43418 -9.00537
501 1 9.43462 15.7252 9.43418 -9.01164
449 1 22.0139 12.5794 6.28969 -8.94963
450 1 1.57242 14.1518 7.86211 -8.94962
451 1 3.14484 12.5794 6.28968 -8.94964
452 1 4.7173 14.1518 7.86212 -8.94961
453 1 6.28964 12.5795 6.28963 -8.9496
454 1 7.86239 14.1519 7.86154 -9.02412
455 1 9.43487 12.5793 6.29091 -9.05331
456 1 11.0072 14.1539 7.85871 -9.03972
457 1 12.5787 12.5798 6.29095 -9.0372
458 1 14.1515 14.1524 7.86198 -8.98743
459 1 15.7241 12.5793 6.28981 -8.95058
460 1 17.2966 14.1518 7.86208 -8.94933
461 1 18.8691 12.5794 6.28969 -8.94962
462 1 20.4415 14.1518 7.86211 -8.94963
463 1 1.41934e-07 15.7242 6.28969 -8.94963
464 1 1.57242 17.2966 7.86211 -8.94963
465 1 3.14485 15.7242 6.28969 -8.94964
466 1 4.71726 17.2966 7.86211 -8.94967
467 1 6.2897 15.7242 6.28971 -8.94961
468 1 7.86209 17.2966 7.86209 -8.94946
469 1 9.43443 15.7243 6.28958 -8.94938
470 1 11.007 17.2967 7.86207 -8.95017
471 1 12.5795 15.7244 6.28955 -8.94899
472 1 14.1518 17.2966 7.86211 -8.94977
473 1 15.7242 15.7242 6.28969 -8.94958
474 1 17.2966 17.2966 7.86211 -8.94966
475 1 18.8691 15.7242 6.28969 -8.94962
476 1 20.4415 17.2966 7.86211 -8.94963
477 1 22.0139 18.8691 6.28969 -8.94963
478 1 1.57242 20.4415 7.86211 -8.94963
479 1 3.14484 18.8691 6.28969 -8.94963
480 1 4.71726 20.4415 7.86211 -8.94963
481 1 6.28969 18.8691 6.28969 -8.94962
482 1 7.86211 20.4415 7.86211 -8.94962
483 1 9.43453 18.8691 6.28968 -8.94966
484 1 11.007 20.4415 7.86211 -8.94967
485 1 12.5794 18.8691 6.28968 -8.94965
486 1 14.1518 20.4415 7.86211 -8.94963
487 1 15.7242 18.8691 6.28969 -8.94963
488 1 17.2966 20.4415 7.86211 -8.94963
489 1 18.8691 18.8691 6.28969 -8.94963
490 1 20.4415 20.4415 7.86211 -8.94963
491 1 9.89681e-07 12.5794 9.43453 -8.94964
492 1 3.14484 12.5794 9.43453 -8.94972
493 1 6.28924 12.5787 9.43458 -9.00497
494 1 9.39295 12.6069 9.42098 -9.44297
495 1 12.6086 12.5818 9.42181 -9.26937
496 1 15.7256 12.5794 9.43458 -8.95743
497 1 18.8691 12.5794 9.43453 -8.95003
498 1 22.0139 15.7242 9.43453 -8.94963
499 1 3.14485 15.7242 9.43453 -8.94961
500 1 6.2898 15.7241 9.43454 -8.95092
56 1 9.43453 22.0139 3.14484 -8.94963
52 1 3.14484 22.0139 3.14484 -8.94963
516 1 14.1506 11.007 11.0066 -9.05331
519 1 1.57242 14.1518 11.007 -8.94962
520 1 4.71729 14.1518 11.0069 -8.9496
521 1 7.86234 14.1514 11.0078 -9.04171
529 1 11.007 17.2979 11.0069 -8.95619
398 1 17.2966 11.007 4.71726 -8.94962
1 1 2.96107e-11 22.0139 4.07129e-11 -8.94963
5 1 6.28969 22.0139 1.49396e-09 -8.94963
399 1 20.4415 11.007 4.71726 -8.94963
530 1 14.1518 17.2966 11.0069 -8.95015
532 1 20.4415 17.2966 11.007 -8.94963
534 1 4.71726 20.4415 11.007 -8.94963
11 1 15.7242 22.0139 6.88715e-10 -8.94963
686 1 20.4415 20.4415 20.4415 -8.94963
685 1 18.8691 18.8691 18.8691 -8.94963
514 1 7.85905 11.0071 11.0097 -9.03937
684 1 17.2966 20.4415 20.4415 -8.94963
307 1 18.8691 22.0139 18.8691 -8.94963
683 1 15.7242 18.8691 18.8691 -8.94963
682 1 14.1518 20.4415 20.4415 -8.94963
303 1 12.5794 22.0139 18.8691 -8.94963
301 1 9.43453 22.0139 18.8691 -8.94963
297 1 3.14484 22.0139 18.8691 -8.94963
522 1 11.0071 14.1771 11.0197 -9.29058
523 1 14.1517 14.1519 11.0074 -9.00353
524 1 17.2967 14.1518 11.007 -8.94934
525 1 20.4415 14.1518 11.007 -8.94963
526 1 1.57242 17.2966 11.007 -8.94963
527 1 4.71726 17.2966 11.0069 -8.94965
528 1 7.86213 17.2966 11.007 -8.94981
295 1 3.11176e-11 22.0139 18.8691 -8.94963
639 1 4.71726 11.007 20.4415 -8.94963
531 1 17.2966 17.2966 11.0069 -8.94964
643 1 17.2966 11.007 20.4415 -8.94963
256 1 15.7242 22.0139 15.7242 -8.94963
383 1 6.28969 18.8691 22.0139 -8.94963
535 1 7.86211 20.4415 11.007 -8.94963
536 1 11.007 20.4415 11.007 -8.94998
537 1 14.1518 20.4415 11.007 -8.94964
377 1 18.8691 15.7242 22.0139 -8.94963
389 1 15.7242 18.8691 22.0139 -8.94963
681 1 12.5794 18.8691 18.8691 -8.94963
680 1 11.007 20.4415 20.4415 -8.94963
679 1 9.43453 18.8691 18.8691 -8.94963
543 1 11.0069 11.0077 14.1522 -9.00497
678 1 7.86211 20.4415 20.4415 -8.94963
677 1 6.28969 18.8691 18.8691 -8.94963
676 1 4.71726 20.4415 20.4415 -8.94963
547 1 22.0139 12.5794 12.5794 -8.94963
548 1 1.57242 14.1518 14.1518 -8.94963
549 1 3.14483 12.5794 12.5794 -8.94969
550 1 4.71725 14.1518 14.1518 -8.9496
551 1 6.28945 12.5795 12.5795 -8.94976
552 1 7.86198 14.1519 14.1519 -8.94902
553 1 9.43179 12.5792 12.5824 -9.03937
554 1 11.0069 14.151 14.1509 -8.99882
555 1 12.5817 12.5797 12.5824 -9.02367
556 1 14.1519 14.1519 14.1519 -8.9489
557 1 15.7243 12.5793 12.5793 -8.95076
558 1 17.2966 14.1518 14.1518 -8.94968
559 1 18.8691 12.5794 12.5794 -8.94967
560 1 20.4415 14.1518 14.1518 -8.94963
561 1 1.44604e-07 15.7242 12.5794 -8.94963
562 1 1.57242 17.2966 14.1518 -8.94963
563 1 3.14485 15.7242 12.5794 -8.94964
564 1 4.71727 17.2966 14.1518 -8.94964
565 1 6.28969 15.7242 12.5794 -8.94975
566 1 7.86212 17.2966 14.1518 -8.94968
567 1 9.43412 15.7237 12.5793 -8.98877
568 1 11.0069 17.2965 14.1517 -8.9503
569 1 12.5798 15.7238 12.5794 -8.98852
570 1 14.1518 17.2966 14.1518 -8.94966
571 1 15.7242 15.7242 12.5794 -8.94967
572 1 17.2966 17.2966 14.1518 -8.94963
573 1 18.8691 15.7242 12.5794 -8.94962
574 1 20.4415 17.2966 14.1518 -8.94963
575 1 22.0139 18.8691 12.5794 -8.94963
576 1 1.57242 20.4415 14.1518 -8.94963
577 1 3.14484 18.8691 12.5794 -8.94963
578 1 4.71726 20.4415 14.1518 -8.94963
579 1 6.28968 18.8691 12.5794 -8.94964
580 1 7.86211 20.4415 14.1518 -8.94962
581 1 9.43451 18.8691 12.5794 -8.94931
582 1 11.007 20.4415 14.1518 -8.94962
583 1 12.5794 18.8691 12.5794 -8.9493
584 1 14.1518 20.4415 14.1518 -8.94962
585 1 15.7242 18.8691 12.5794 -8.94965
586 1 17.2966 20.4415 14.1518 -8.94963
587 1 18.8691 18.8691 12.5794 -8.94963
588 1 20.4415 20.4415 14.1518 -8.94963
589 1 1.57242 11.007 17.2966 -8.94963
590 1 4.71726 11.007 17.2966 -8.94964
675 1 3.14484 18.8691 18.8691 -8.94963
674 1 1.57242 20.4415 20.4415 -8.94963
673 1 22.0139 18.8691 18.8691 -8.94963
594 1 17.2966 11.007 17.2966 -8.94964
595 1 20.4415 11.007 17.2966 -8.94963
596 1 2.46987e-08 12.5794 15.7242 -8.94963
597 1 1.57242 14.1518 17.2966 -8.94963
598 1 3.14484 12.5794 15.7242 -8.94964
599 1 4.71726 14.1518 17.2966 -8.94964
600 1 6.28969 12.5794 15.7242 -8.94969
601 1 7.8621 14.1518 17.2966 -8.94964
602 1 9.43451 12.5794 15.7244 -8.95031
603 1 11.007 14.1518 17.2966 -8.94934
604 1 12.5794 12.5794 15.7243 -8.95032
605 1 14.1518 14.1518 17.2966 -8.94963
606 1 15.7242 12.5794 15.7242 -8.94968
607 1 17.2966 14.1518 17.2966 -8.94964
608 1 18.8691 12.5794 15.7242 -8.94963
609 1 20.4415 14.1518 17.2966 -8.94963
610 1 22.0139 15.7242 15.7242 -8.94963
611 1 1.57242 17.2966 17.2966 -8.94963
612 1 3.14484 15.7242 15.7242 -8.94963
613 1 4.71726 17.2966 17.2966 -8.94963
614 1 6.28968 15.7242 15.7242 -8.94957
615 1 7.86211 17.2966 17.2966 -8.94965
616 1 9.43456 15.7242 15.7242 -8.9499
617 1 11.007 17.2966 17.2966 -8.9496
618 1 12.5793 15.7242 15.7242 -8.94993
619 1 14.1518 17.2966 17.2966 -8.94965
620 1 15.7242 15.7242 15.7242 -8.94957
621 1 17.2966 17.2966 17.2966 -8.94963
622 1 18.8691 15.7242 15.7242 -8.94963
623 1 20.4415 17.2966 17.2966 -8.94963
624 1 4.89946e-09 18.8691 15.7242 -8.94963
625 1 1.57242 20.4415 17.2966 -8.94963
626 1 3.14484 18.8691 15.7242 -8.94963
627 1 4.71726 20.4415 17.2966 -8.94963
628 1 6.28969 18.8691 15.7242 -8.94964
629 1 7.86211 20.4415 17.2966 -8.94963
630 1 9.43453 18.8691 15.7242 -8.94965
631 1 11.007 20.4415 17.2966 -8.94963
632 1 12.5794 18.8691 15.7242 -8.94965
633 1 14.1518 20.4415 17.2966 -8.94963
634 1 15.7242 18.8691 15.7242 -8.94964
635 1 17.2966 20.4415 17.2966 -8.94963
636 1 18.8691 18.8691 15.7242 -8.94963
637 1 20.4415 20.4415 17.2966 -8.94963
672 1 20.4415 17.2966 20.4415 -8.94963
671 1 18.8691 15.7242 18.8691 -8.94963
670 1 17.2966 17.2966 20.4415 -8.94963
669 1 15.7242 15.7242 18.8691 -8.94963
668 1 14.1518 17.2966 20.4415 -8.94963
667 1 12.5794 15.7242 18.8691 -8.94963
666 1 11.007 17.2966 20.4415 -8.94963
645 1 22.0139 12.5794 18.8691 -8.94963
646 1 1.57242 14.1518 20.4415 -8.94963
647 1 3.14484 12.5794 18.8691 -8.94963
648 1 4.71726 14.1518 20.4415 -8.94963
649 1 6.28969 12.5794 18.8691 -8.94963
650 1 7.86211 14.1518 20.4415 -8.94963
651 1 9.43453 12.5794 18.8691 -8.94967
652 1 11.007 14.1518 20.4415 -8.94962
653 1 12.5794 12.5794 18.8691 -8.94967
654 1 14.1518 14.1518 20.4415 -8.94963
655 1 15.7242 12.5794 18.8691 -8.94963
656 1 17.2966 14.1518 20.4415 -8.94963
657 1 18.8691 12.5794 18.8691 -8.94963
658 1 20.4415 14.1518 20.4415 -8.94963
659 1 1.05833e-09 15.7242 18.8691 -8.94963
660 1 1.57242 17.2966 20.4415 -8.94963
661 1 3.14484 15.7242 18.8691 -8.94963
662 1 4.71726 17.2966 20.4415 -8.94963
663 1 6.28969 15.7242 18.8691 -8.94963
664 1 7.86211 17.2966 20.4415 -8.94963
665 1 9.43453 15.7242 18.8691 -8.94963
197 1 1.53137e-10 22.0139 12.5794 -8.94963
199 1 3.14484 22.0139 12.5794 -8.94963
203 1 9.43453 22.0139 12.5794 -8.94963
205 1 12.5794 22.0139 12.5794 -8.94963
209 1 18.8691 22.0139 12.5794 -8.94963
250 1 6.28969 22.0139 15.7242 -8.94963
351 1 22.0139 12.5794 22.0139 -8.94963
355 1 6.28969 12.5794 22.0139 -8.94963
367 1 3.14484 15.7242 22.0139 -8.94963
371 1 9.43453 15.7242 22.0139 -8.94963
373 1 12.5794 15.7242 22.0139 -8.94963
361 1 15.7242 12.5794 22.0139 -8.94963
379 1 22.0139 18.8691 22.0139 -8.94963
533 1 1.57242 20.4415 11.007 -8.94963
