ITEM: TIMESTEP
90
ITEM: NUMBER OF ATOMS
688
ITEM: BOX BOUNDS pp pp pp
0.0000000000000000e+00 2.2013900999999997e+01
0.0000000000000000e+00 2.2013900999999997e+01
0.0000000000000000e+00 2.2013900999999997e+01
ITEM: ATOMS id type x y z c_pot
513 1 4.71513 11.0065 11.0077 -8.94856
2 1 1.57219 1.57253 1.5722 -8.94954
175 1 18.8705 9.43381 9.43459 -8.94942
4 1 4.71698 1.57252 1.57211 -8.94964
512 1 1.57202 11.0067 11.0071 -8.94981
6 1 7.86198 1.57246 1.57212 -8.94961
448 1 20.4423 11.0065 7.8617 -8.9499
8 1 11.007 1.57236 1.57217 -8.9496
447 1 17.2995 11.0055 7.86096 -8.94837
10 1 14.152 1.57228 1.57222 -8.94963
174 1 15.7268 9.43338 9.43517 -8.9505
12 1 17.2969 1.57229 1.57228 -8.94959
445 1 11.0234 11.0063 7.80833 -9.2264
14 1 20.4415 1.57241 1.57231 -8.94958
151 1 9.43422 0.000796282 9.43422 -8.95045
16 1 1.57221 4.71705 1.57219 -8.94948
17 1 3.14459 3.14469 -7.86164e-05 -8.94956
18 1 4.7169 4.71696 1.5721 -8.94954
443 1 4.71326 11.0064 7.86013 -8.95157
20 1 7.86193 4.7169 1.57213 -8.94967
21 1 9.43449 3.14454 -1.41728e-05 -8.94961
22 1 11.007 4.71686 1.57219 -8.94961
23 1 12.5795 3.14448 4.54855e-05 -8.94961
24 1 14.1521 4.71679 1.57226 -8.94971
442 1 1.57147 11.0067 7.86161 -8.9503
26 1 17.2971 4.71685 1.57229 -8.9495
27 1 18.8693 3.14457 6.30457e-05 -8.94953
28 1 20.4416 4.71701 1.57229 -8.94954
29 1 -1.40852e-05 6.28946 -4.5624e-05 -8.9496
30 1 1.57212 7.86186 1.57207 -8.94961
193 1 11.0101 7.85034 11.0111 -9.01917
32 1 4.71663 7.8617 1.57169 -8.94967
33 1 6.28925 6.28919 -0.000220133 -8.94954
34 1 7.86149 7.86143 1.57133 -8.94943
192 1 7.86115 7.85963 11.0104 -8.98121
36 1 11.007 7.86159 1.57161 -8.94938
191 1 4.71762 7.8623 11.0067 -8.95093
38 1 14.1525 7.86137 1.57171 -8.94943
39 1 15.7248 6.2891 7.80133e-05 -8.94957
40 1 17.2971 7.86178 1.57224 -8.94976
190 1 1.57278 7.86187 11.007 -8.94952
42 1 20.4416 7.86188 1.57225 -8.94964
349 1 17.297 11.0069 1.57221 -8.94961
44 1 3.14442 9.43437 -0.000343049 -8.94958
345 1 4.71645 11.0069 1.57136 -8.94952
688 2 10.2481 11.0567 9.45941 0.642018
47 1 12.5798 9.43412 -0.000475724 -8.94996
48 1 15.7247 9.43431 7.50369e-05 -8.94966
49 1 18.8694 9.43438 5.83013e-05 -8.94961
50 1 22.0137 0.000285313 3.14458 -8.9496
51 1 1.57218 1.57269 4.71703 -8.94964
173 1 12.5847 9.43065 9.43519 -9.04244
53 1 4.71674 1.57275 4.71673 -8.94958
54 1 6.28933 0.000517353 3.14424 -8.94964
55 1 7.86189 1.57269 4.71674 -8.94966
172 1 9.41845 9.39672 9.43493 -9.25578
57 1 11.0071 1.57248 4.71677 -8.94961
171 1 6.29284 9.4376 9.43491 -8.99683
59 1 14.1522 1.57226 4.71681 -8.9496
60 1 15.7245 9.0686e-05 3.14448 -8.9496
61 1 17.297 1.57233 4.71697 -8.9496
170 1 3.14495 9.43443 9.43446 -8.94791
63 1 20.4416 1.57248 4.71708 -8.94962
64 1 -1.99387e-05 3.1448 3.14468 -8.94965
65 1 1.57234 4.71718 4.71709 -8.94977
66 1 3.14452 3.14482 3.14452 -8.94958
67 1 4.71681 4.71694 4.71675 -8.94956
68 1 6.28942 3.14477 3.14442 -8.94974
69 1 7.86196 4.7169 4.71667 -8.95008
70 1 9.4345 3.14467 3.14446 -8.9496
71 1 11.0071 4.71677 4.71668 -8.94956
72 1 12.5796 3.14457 3.14449 -8.94965
73 1 14.1524 4.71647 4.7167 -8.94967
74 1 15.7246 3.14449 3.14454 -8.9496
75 1 17.2972 4.71675 4.71691 -8.94958
76 1 18.8693 3.14464 3.14466 -8.94959
77 1 20.4417 4.71703 4.71708 -8.94965
78 1 22.0139 6.28936 3.14451 -8.94954
79 1 1.57195 7.86164 4.71666 -8.94959
80 1 3.1443 6.28923 3.14427 -8.94925
81 1 4.71589 7.86107 4.71582 -8.94833
82 1 6.28909 6.28909 3.14398 -8.94937
83 1 7.86103 7.861 4.71506 -8.94906
84 1 9.43445 6.28913 3.14417 -8.94956
85 1 11.0069 7.86165 4.71573 -8.94945
86 1 12.5797 6.28907 3.14426 -8.94991
87 1 14.1533 7.8605 4.71563 -8.94787
88 1 15.7249 6.28896 3.14425 -8.94919
89 1 17.2976 7.86131 4.71656 -8.94934
90 1 18.8695 6.28925 3.14452 -8.94951
91 1 20.4418 7.86164 4.71682 -8.9496
92 1 -0.000197686 9.43432 3.14441 -8.94958
93 1 3.14408 9.43426 3.14397 -8.94959
94 1 6.28856 9.43412 3.14295 -8.95027
95 1 9.43347 9.43353 3.14177 -8.94837
96 1 12.5806 9.43337 3.14219 -8.94872
97 1 15.7248 9.43425 3.14422 -8.95016
98 1 18.8694 9.43432 3.1445 -8.9497
169 1 0.000447757 9.43414 9.43447 -8.94935
100 1 1.57223 1.57271 7.86198 -8.94961
101 1 3.14427 0.000674279 6.28932 -8.94958
102 1 4.7168 1.57291 7.86188 -8.94955
168 1 18.87 6.28898 9.4345 -8.94955
104 1 7.86159 1.57253 7.86158 -8.94984
105 1 9.43438 0.000683921 6.28903 -8.94963
106 1 11.0072 1.57212 7.86164 -8.94963
107 1 12.5797 0.000288581 6.28911 -8.94965
108 1 14.1524 1.57213 7.86177 -8.94965
167 1 15.7258 6.28815 9.43454 -8.94888
110 1 17.2971 1.57222 7.86193 -8.9496
111 1 18.8693 0.000138599 6.28947 -8.94963
112 1 20.4416 1.57245 7.86199 -8.94961
113 1 22.014 3.14486 6.28955 -8.94962
114 1 1.57253 4.71726 7.86203 -8.94962
115 1 3.14463 3.14506 6.28952 -8.94972
116 1 4.71719 4.71747 7.86207 -8.94984
117 1 6.28911 3.14464 6.28904 -8.94949
118 1 7.86125 4.71573 7.86104 -8.94826
119 1 9.43455 3.14453 6.28924 -8.94952
120 1 11.0079 4.71538 7.86134 -8.94809
121 1 12.5799 3.14414 6.28909 -8.94956
122 1 14.1528 4.71596 7.86176 -8.94985
123 1 15.7248 3.14435 6.28932 -8.94964
124 1 17.2974 4.71658 7.86192 -8.94955
125 1 18.8694 3.14461 6.2895 -8.94961
126 1 20.4419 4.71698 7.86199 -8.9496
127 1 0.000219254 6.28945 6.28953 -8.94963
128 1 1.57262 7.86192 7.862 -8.94945
129 1 3.14478 6.28965 6.28958 -8.95011
130 1 4.71762 7.86259 7.86233 -8.95116
131 1 6.28898 6.28878 6.28865 -8.94955
132 1 7.86117 7.86082 7.85893 -8.98207
133 1 9.43484 6.28883 6.28926 -8.95085
134 1 11.0092 7.86055 7.8612 -9.00179
135 1 12.5802 6.28803 6.28876 -8.95059
136 1 14.154 7.85956 7.86157 -8.95039
137 1 15.7253 6.28856 6.28909 -8.94955
138 1 17.2979 7.86116 7.86195 -8.95003
139 1 18.8697 6.28916 6.28944 -8.94969
140 1 20.4421 7.86163 7.86195 -8.94954
141 1 22.0138 9.43411 6.28918 -8.94983
142 1 3.1434 9.4339 6.28854 -8.94991
143 1 6.28576 9.43225 6.28542 -8.94541
144 1 9.43169 9.43225 6.28498 -8.99654
145 1 12.5828 9.42975 6.28522 -8.97915
146 1 15.7264 9.43284 6.28817 -8.94882
147 1 18.8701 9.43376 6.28899 -8.94952
148 1 -0.000133604 0.000303669 9.43447 -8.9496
166 1 12.5808 6.28674 9.43441 -8.94868
150 1 6.28895 0.000873355 9.43437 -8.94955
165 1 9.43426 6.27973 9.43442 -8.95981
152 1 12.5798 0.000298777 9.43425 -8.94963
153 1 15.7247 -5.82645e-05 9.43442 -8.94961
164 1 6.29046 6.29009 9.43447 -8.94982
155 1 0.000162821 3.14481 9.43449 -8.94961
156 1 3.1447 3.14502 9.43448 -8.94962
157 1 6.28935 3.14483 9.43445 -8.94915
158 1 9.43443 3.1427 9.43442 -8.95216
159 1 12.5801 3.14355 9.43443 -8.94954
160 1 15.725 3.14404 9.43447 -8.94954
161 1 18.8696 3.14449 9.43448 -8.94961
162 1 22.0144 6.28941 9.43449 -8.94959
163 1 3.14512 6.28968 9.43447 -8.94942
344 1 1.57199 11.0069 1.57193 -8.94959
350 1 20.4415 11.0069 1.57219 -8.9496
181 1 17.2972 1.57205 11.007 -8.9496
188 1 17.2977 4.7163 11.0071 -8.94957
177 1 4.71682 1.57275 11.007 -8.94955
184 1 4.7172 4.7173 11.0069 -8.94989
189 1 20.442 4.71687 11.007 -8.9496
644 1 20.4417 11.0069 20.4416 -8.9496
3 1 3.14457 0.000190616 22.0137 -8.9496
178 1 7.8616 1.57216 11.0072 -8.94979
179 1 11.0073 1.57163 11.0073 -8.95045
180 1 14.1524 1.57174 11.0071 -8.94963
46 1 9.43422 9.43413 22.0131 -8.94989
182 1 20.4417 1.57237 11.007 -8.94961
183 1 1.5726 4.71719 11.0069 -8.94962
252 1 9.43446 -0.000325727 15.7247 -8.94955
185 1 7.86124 4.71513 11.008 -8.94831
186 1 11.0081 4.71307 11.0082 -8.95086
187 1 14.1531 4.71524 11.0073 -8.9498
642 1 14.1524 11.0069 20.4419 -8.94973
254 1 12.5796 -0.000491248 15.7247 -8.94955
641 1 11.007 11.0069 20.4415 -8.95049
640 1 7.86175 11.0069 20.4413 -8.94978
45 1 6.28916 9.43432 22.0133 -8.94977
638 1 1.57222 11.0069 20.4414 -8.94959
194 1 14.1551 7.85827 11.0079 -8.94905
195 1 17.2986 7.86069 11.0074 -8.94974
196 1 20.4424 7.86151 11.0071 -8.94961
343 1 18.8697 9.43428 18.8696 -8.9496
198 1 1.57228 1.5725 14.152 -8.94964
342 1 15.7252 9.43406 18.8702 -8.94956
200 1 4.71675 1.57237 14.1522 -8.94957
201 1 6.28902 0.000456327 12.5798 -8.94973
202 1 7.8617 1.57197 14.1525 -8.94973
341 1 12.58 9.43386 18.8706 -8.95028
204 1 11.0071 1.57155 14.1525 -8.94955
340 1 9.43432 9.43392 18.8702 -8.95005
206 1 14.1525 1.57145 14.1525 -8.94976
207 1 15.7247 -0.000263658 12.5796 -8.94966
208 1 17.2972 1.5719 14.1521 -8.94964
339 1 6.28921 9.43423 18.8695 -8.94968
210 1 20.4417 1.57228 14.152 -8.94962
211 1 22.0141 3.14472 12.5795 -8.94962
212 1 1.57246 4.71703 14.152 -8.94974
213 1 3.14466 3.14487 12.5795 -8.94972
214 1 4.71672 4.71664 14.1524 -8.94951
215 1 6.28904 3.14418 12.58 -8.94939
216 1 7.86139 4.71543 14.1532 -8.95001
217 1 9.43439 3.14324 12.5802 -8.94995
218 1 11.0073 4.71498 14.1535 -8.94933
219 1 12.5803 3.14272 12.5804 -8.95012
220 1 14.1535 4.71449 14.1536 -8.94981
221 1 15.7252 3.14372 12.5798 -8.94962
222 1 17.2979 4.71609 14.1525 -8.94967
223 1 18.8697 3.14435 12.5796 -8.94961
224 1 20.4421 4.71677 14.1521 -8.94964
225 1 0.00048774 6.28932 12.5795 -8.94966
226 1 1.57238 7.86166 14.1522 -8.94974
227 1 3.14483 6.28949 12.5794 -8.95001
228 1 4.71614 7.86118 14.1528 -8.94963
229 1 6.28882 6.28836 12.5805 -8.94907
230 1 7.85913 7.85816 14.1563 -8.94618
231 1 9.43399 6.28531 12.5817 -8.95096
232 1 11.0076 7.85856 14.1559 -8.94903
233 1 12.5822 6.2839 12.5826 -8.95159
234 1 14.1577 7.856 14.1579 -8.94286
235 1 15.7263 6.28758 12.5805 -8.94963
236 1 17.2992 7.86046 14.1534 -8.95003
237 1 18.8703 6.28879 12.5798 -8.94962
238 1 20.4425 7.86144 14.1524 -8.94976
239 1 22.0144 9.43409 12.5798 -8.94983
240 1 3.14413 9.43407 12.5799 -8.94997
241 1 6.28712 9.4333 12.5817 -8.95092
242 1 9.42578 9.42376 12.5905 -9.02569
243 1 12.5956 9.41826 12.5954 -8.99796
244 1 15.7292 9.43195 12.582 -8.95278
245 1 18.8711 9.43356 12.5803 -8.94995
246 1 22.0138 0.000112537 15.7244 -8.94962
247 1 1.57226 1.57236 17.2969 -8.94957
248 1 3.14442 0.000215743 15.7246 -8.94956
249 1 4.71689 1.57221 17.2971 -8.94956
338 1 3.14454 9.43435 18.8693 -8.9496
251 1 7.86192 1.57197 17.2971 -8.94957
337 1 22.014 9.43437 18.8693 -8.9496
253 1 11.007 1.5718 17.2972 -8.94958
336 1 20.4417 7.86188 20.4417 -8.9496
255 1 14.1522 1.57175 17.2972 -8.94958
335 1 18.8697 6.28918 18.8696 -8.94958
257 1 17.2972 1.57191 17.2972 -8.94952
258 1 18.8694 -0.000101962 15.7245 -8.94964
259 1 20.4417 1.57223 17.2969 -8.9496
260 1 0.000149638 3.14462 15.7245 -8.94964
261 1 1.57232 4.71692 17.297 -8.94958
262 1 3.14453 3.14459 15.7246 -8.94959
263 1 4.71668 4.71658 17.2973 -8.94925
264 1 6.28914 3.1441 15.725 -8.94964
265 1 7.86177 4.71632 17.2976 -8.94959
266 1 9.43442 3.14377 15.7251 -8.94948
267 1 11.0071 4.71611 17.2977 -8.94954
268 1 12.5798 3.14356 15.7253 -8.94952
269 1 14.1525 4.71602 17.2978 -8.94964
270 1 15.7252 3.14356 15.7252 -8.94953
271 1 17.2977 4.71617 17.2977 -8.94903
272 1 18.8697 3.14427 15.7247 -8.94963
273 1 20.442 4.71677 17.2971 -8.94956
274 1 22.0142 6.28923 15.7247 -8.94966
275 1 1.57236 7.86181 17.297 -8.94962
276 1 3.14439 6.28914 15.7248 -8.94959
277 1 4.71671 7.8616 17.2973 -8.94959
278 1 6.28843 6.2881 15.7259 -8.94848
279 1 7.8614 7.86093 17.2984 -8.94996
280 1 9.43432 6.28785 15.7261 -8.9493
281 1 11.0072 7.86071 17.2988 -8.94939
282 1 12.5803 6.28756 15.7264 -8.9496
283 1 14.1533 7.86051 17.2991 -8.95009
284 1 15.7266 6.28719 15.7267 -8.94771
285 1 17.2979 7.86128 17.2979 -8.94951
286 1 18.8703 6.28876 15.7251 -8.94962
287 1 20.4421 7.86171 17.2972 -8.9496
288 1 0.000329836 9.43425 15.7247 -8.94965
289 1 3.14442 9.43422 15.7248 -8.9496
290 1 6.28874 9.43384 15.7258 -8.94954
291 1 9.43384 9.4326 15.7283 -8.95074
292 1 12.5816 9.43215 15.7294 -8.95218
293 1 15.7265 9.4332 15.7266 -8.94904
294 1 18.8703 9.43399 15.7252 -8.9496
334 1 17.2972 7.86171 20.442 -8.9496
296 1 1.57227 1.57237 20.4415 -8.94952
333 1 15.7252 6.28871 18.8702 -8.94962
298 1 4.71704 1.57231 20.4415 -8.94962
299 1 6.2895 -7.41583e-05 18.8692 -8.94964
300 1 7.86199 1.57221 20.4416 -8.9496
332 1 14.1524 7.86145 20.4421 -8.94984
302 1 11.007 1.57212 20.4416 -8.9496
331 1 12.5798 6.28871 18.8701 -8.94953
304 1 14.152 1.57208 20.4417 -8.94961
305 1 15.7244 -0.000263955 18.8693 -8.94964
306 1 17.2969 1.57214 20.4417 -8.9496
330 1 11.0071 7.86147 20.4419 -8.94966
308 1 20.4416 1.57229 20.4416 -8.94948
309 1 22.014 3.14461 18.8693 -8.94953
310 1 1.57228 4.71702 20.4416 -8.94957
311 1 3.14456 3.14456 18.8693 -8.94947
312 1 4.7169 4.71686 20.4416 -8.94954
313 1 6.28941 3.1444 18.8694 -8.94961
314 1 7.8619 4.71675 20.4418 -8.94958
315 1 9.43447 3.14424 18.8695 -8.94959
316 1 11.007 4.71666 20.4419 -8.94958
317 1 12.5796 3.14415 18.8696 -8.94959
318 1 14.1522 4.71663 20.4419 -8.94959
319 1 15.7247 3.14417 18.8696 -8.94962
320 1 17.2972 4.7167 20.4419 -8.94952
321 1 18.8695 3.14437 18.8695 -8.9494
322 1 20.4417 4.71697 20.4417 -8.94957
323 1 0.000135021 6.28939 18.8694 -8.9496
324 1 1.57227 7.8619 20.4415 -8.94959
325 1 3.14454 6.28933 18.8694 -8.9496
326 1 4.71685 7.86179 20.4415 -8.94964
327 1 6.28915 6.28898 18.8697 -8.94961
328 1 7.86171 7.86154 20.4417 -8.94977
329 1 9.43441 6.28881 18.8699 -8.94953
593 1 14.1532 11.0065 17.2988 -8.94974
592 1 11.0073 11.0065 17.2995 -8.95186
515 1 11.0374 10.949 11.102 -9.37365
517 1 17.3002 11.0055 11.0083 -8.94803
518 1 20.4427 11.0065 11.0073 -8.94978
540 1 1.57224 11.0068 14.1523 -8.94965
541 1 4.71611 11.0068 14.1529 -8.94927
542 1 7.86065 11.0063 14.1553 -8.94954
544 1 14.1561 11.0053 14.1568 -8.94752
545 1 17.299 11.0064 14.1534 -8.94975
546 1 20.4424 11.0067 14.1524 -8.94973
591 1 7.86165 11.0068 17.2979 -8.94989
7 1 9.4345 5.25127e-05 22.0137 -8.94961
9 1 12.5795 -3.23325e-05 22.0137 -8.94961
13 1 18.8692 1.11047e-05 22.0138 -8.94958
19 1 6.28947 3.14462 22.0138 -8.94962
25 1 15.7245 3.14447 22.014 -8.94963
31 1 3.1445 6.28938 22.0137 -8.94959
35 1 9.43443 6.28915 22.0138 -8.94957
37 1 12.5796 6.28912 22.014 -8.94959
41 1 18.8694 6.28936 22.014 -8.94962
43 1 22.0138 9.4344 22.0138 -8.9496
15 1 22.0139 3.14471 22.0139 -8.94952
176 1 1.57227 1.57263 11.007 -8.94961
687 2 10.9821 12.5296 10.1934 0.642018
511 1 18.8693 18.8695 9.43445 -8.94961
346 1 7.86148 11.0071 1.57069 -8.94991
347 1 11.007 11.0071 1.56949 -8.95286
348 1 14.1523 11.007 1.5717 -8.94942
510 1 15.7248 18.8695 9.43438 -8.94956
539 1 20.4415 20.4418 11.007 -8.94961
154 1 18.8693 22.014 9.43447 -8.9496
352 1 1.57185 14.152 1.57182 -8.9496
353 1 3.14432 12.5795 -0.000497713 -8.94958
354 1 4.71627 14.1523 1.57117 -8.9496
538 1 17.297 20.4416 11.007 -8.9496
356 1 7.8612 14.1528 1.57037 -8.94995
357 1 9.4342 12.5798 -0.00122506 -8.94978
358 1 11.0069 14.1525 1.57097 -8.94942
359 1 12.5798 12.5798 -0.00079177 -8.9499
360 1 14.1525 14.1526 1.57135 -8.94952
393 1 1.57163 11.0068 4.71646 -8.94951
362 1 17.297 14.152 1.57213 -8.9497
363 1 18.8693 12.5794 -2.16642e-05 -8.9496
364 1 20.4414 14.1519 1.57212 -8.94961
365 1 -0.000213724 15.7244 -0.000250135 -8.9496
366 1 1.57184 17.2971 1.57179 -8.94958
149 1 3.14431 22.0145 9.43445 -8.94958
368 1 4.71637 17.2976 1.57119 -8.94962
369 1 6.28906 15.7249 -0.00100969 -8.94976
370 1 7.86169 17.2975 1.57122 -8.94962
109 1 15.7247 22.0141 6.28929 -8.9496
372 1 11.007 17.2973 1.57146 -8.94955
103 1 6.28893 22.0149 6.28894 -8.94976
374 1 14.152 17.2972 1.5718 -8.94969
375 1 15.7247 15.7247 -0.000323174 -8.9496
376 1 17.297 17.2971 1.57199 -8.94951
99 1 -0.000182339 22.0142 6.28948 -8.94961
378 1 20.4414 17.297 1.57207 -8.94962
394 1 4.71553 11.0069 4.71535 -8.94898
380 1 1.57199 20.442 1.57196 -8.9494
381 1 3.14436 18.8696 -0.000488645 -8.94956
382 1 4.71682 20.4421 1.57179 -8.94963
62 1 18.8692 22.014 3.1446 -8.94959
384 1 7.86191 20.442 1.5718 -8.94961
385 1 9.43447 18.8695 -0.000567114 -8.9496
386 1 11.007 20.4418 1.57191 -8.94961
387 1 12.5795 18.8693 -0.000430097 -8.9496
388 1 14.152 20.4417 1.57203 -8.94961
58 1 12.5795 22.0141 3.14438 -8.9496
390 1 17.2968 20.4417 1.57214 -8.94959
391 1 18.8692 18.8693 -0.00014658 -8.94954
392 1 20.4414 20.4418 1.57216 -8.94953
509 1 12.5801 18.8709 9.43355 -8.94809
508 1 9.4333 18.8733 9.43341 -8.95086
395 1 7.86061 11.0072 4.71299 -8.9526
396 1 11.0071 11.0075 4.70463 -8.96484
397 1 14.152 11.007 4.71595 -8.95128
507 1 6.28803 18.8713 9.43418 -8.94933
506 1 3.14373 18.8702 9.43437 -8.94954
400 1 -0.000371551 12.5794 3.14431 -8.94959
401 1 1.57131 14.1523 4.71632 -8.94956
402 1 3.14378 12.5796 3.14375 -8.94956
403 1 4.7149 14.1531 4.715 -8.94904
404 1 6.2881 12.5799 3.14251 -8.94975
405 1 7.85943 14.1544 4.71228 -8.95278
406 1 9.43317 12.5809 3.14127 -8.94803
407 1 11.0063 14.1529 4.71464 -8.9505
408 1 12.5805 12.5808 3.14198 -8.94837
409 1 14.1533 14.1535 4.71507 -8.94882
410 1 15.7248 12.5795 3.14431 -8.94963
411 1 17.2973 14.1521 4.71666 -8.95016
412 1 18.8693 12.5794 3.14447 -8.94961
413 1 20.4414 14.152 4.71674 -8.94966
414 1 22.0134 15.7246 3.14424 -8.9496
415 1 1.5713 17.2976 4.71633 -8.94962
416 1 3.14363 15.725 3.1436 -8.94951
417 1 4.71482 17.2991 4.71484 -8.94771
418 1 6.28806 15.7259 3.14228 -8.95003
419 1 7.86101 17.2987 4.71521 -8.94963
420 1 9.4341 15.7256 3.14288 -8.94974
421 1 11.0069 17.2982 4.71571 -8.94888
422 1 12.5795 15.7252 3.14361 -8.95003
423 1 14.1524 17.2978 4.71621 -8.94955
424 1 15.7249 15.725 3.14385 -8.94934
425 1 17.2972 17.2974 4.71653 -8.94919
426 1 18.8692 15.7245 3.14437 -8.94976
427 1 20.4414 17.2972 4.71669 -8.94957
428 1 -0.000408617 18.8696 3.1443 -8.94952
429 1 1.57185 20.4422 4.71679 -8.94962
430 1 3.14381 18.8701 3.14376 -8.94903
431 1 4.71627 20.4428 4.71626 -8.94953
432 1 6.28895 18.8702 3.14362 -8.94967
433 1 7.86166 20.4426 4.71631 -8.94962
434 1 9.43434 18.87 3.14382 -8.94957
435 1 11.007 20.4423 4.71647 -8.94954
436 1 12.5796 18.8697 3.14405 -8.94955
437 1 14.1522 20.442 4.71664 -8.94964
438 1 15.7246 18.8696 3.14427 -8.94958
439 1 17.2969 20.4418 4.71686 -8.9496
440 1 18.8692 18.8695 3.14442 -8.9495
441 1 20.4414 20.4419 4.71696 -8.94963
505 1 -0.000383486 18.8697 9.43445 -8.94958
504 1 18.8699 15.7247 9.43446 -8.94938
444 1 7.84919 11.0026 7.84882 -9.01881
503 1 15.7257 15.7247 9.43454 -8.94945
446 1 14.1559 11.0017 7.85893 -9.03351
502 1 12.5803 15.7258 9.43226 -9.00179
501 1 9.43036 15.736 9.43137 -9.01917
449 1 22.0135 12.5794 6.2891 -8.94973
450 1 1.57087 14.1525 7.86149 -8.95028
451 1 3.14264 12.5798 6.28833 -8.94974
452 1 4.71208 14.1542 7.85992 -8.95218
453 1 6.28464 12.581 6.28539 -8.94752
454 1 7.84606 14.1681 7.84593 -8.99796
455 1 9.42982 12.5831 6.28451 -9.05556
456 1 11.0063 14.1557 7.85682 -9.04244
457 1 12.5825 12.5847 6.28557 -9.03351
458 1 14.1563 14.1566 7.85865 -8.97915
459 1 15.7255 12.5794 6.28944 -8.95128
460 1 17.2993 14.153 7.86092 -8.94872
461 1 18.8698 12.5793 6.28919 -8.94942
462 1 20.442 14.1522 7.86165 -8.94996
463 1 -0.000608706 15.7249 6.28904 -8.94984
464 1 1.57135 17.2976 7.86169 -8.94953
465 1 3.14234 15.7258 6.28817 -8.95009
466 1 4.71504 17.2988 7.86116 -8.9496
467 1 6.28358 15.7303 6.28381 -8.94286
468 1 7.85889 17.3024 7.85932 -8.95159
469 1 9.43354 15.7281 6.28637 -8.94905
470 1 11.0071 17.2996 7.8607 -8.94868
471 1 12.5799 15.7268 6.28752 -8.95039
472 1 14.1527 17.2983 7.86126 -8.95059
473 1 15.7258 15.7258 6.28815 -8.94787
474 1 17.2972 17.2973 7.86182 -8.94991
475 1 18.8698 15.725 6.28894 -8.94943
476 1 20.4414 17.2972 7.86185 -8.94959
477 1 22.0134 18.8697 6.28931 -8.94959
478 1 1.57185 20.4422 7.86188 -8.94959
479 1 3.14365 18.8703 6.28895 -8.94964
480 1 4.71623 20.4428 7.86165 -8.94952
481 1 6.28786 18.8718 6.28794 -8.94981
482 1 7.86107 20.4436 7.86117 -8.95012
483 1 9.43415 18.8711 6.28839 -8.9498
484 1 11.0071 20.4428 7.86142 -8.94954
485 1 12.5797 18.8704 6.28867 -8.94985
486 1 14.1524 20.4422 7.86155 -8.94956
487 1 15.7248 18.8698 6.28909 -8.94967
488 1 17.297 20.4418 7.8619 -8.94965
489 1 18.8692 18.8695 6.28936 -8.94971
490 1 20.4414 20.4418 7.86195 -8.94961
491 1 -6.08059e-05 12.5794 9.43443 -8.95049
492 1 3.14194 12.5798 9.43423 -8.95186
493 1 6.27887 12.5801 9.43319 -9.01795
494 1 9.33943 12.6373 9.40405 -9.37365
495 1 12.6332 12.58 9.41811 -9.2264
496 1 15.7368 12.5788 9.43442 -8.96484
497 1 18.872 12.5792 9.4345 -8.95286
498 1 22.0134 15.7249 9.43442 -8.94966
499 1 3.14273 15.7256 9.43426 -8.94939
500 1 6.28561 15.7278 9.43392 -8.94903
56 1 9.43446 22.0143 3.1443 -8.9496
52 1 3.14433 22.0144 3.14431 -8.94952
516 1 14.157 11.0032 11.0117 -9.05556
519 1 1.57127 14.1524 11.0072 -8.95005
520 1 4.71321 14.1537 11.0076 -8.95074
521 1 7.85103 14.1626 11.0157 -9.02569
529 1 11.0071 17.3066 11.0072 -8.95981
398 1 17.2972 11.0068 4.7167 -8.94963
1 1 -0.000125242 22.014 -0.000114519 -8.94948
5 1 6.2895 22.014 -0.000256419 -8.94962
399 1 20.4415 11.0068 4.71679 -8.94957
530 1 14.1522 17.2975 11.0066 -8.95085
532 1 20.4415 17.2972 11.0071 -8.94957
534 1 4.71634 20.4426 11.0071 -8.94948
11 1 15.7244 22.0138 -9.0506e-05 -8.94962
686 1 20.4415 20.4416 20.4415 -8.94952
685 1 18.8693 18.8693 18.8693 -8.94948
514 1 7.85876 11.0063 11.0139 -9.03163
684 1 17.2968 20.4415 20.4415 -8.94965
307 1 18.8693 22.0138 18.8693 -8.94954
683 1 15.7244 18.8691 18.8691 -8.94977
682 1 14.1519 20.4415 20.4414 -8.94962
303 1 12.5795 22.0136 18.8693 -8.94961
301 1 9.4345 22.0137 18.8692 -8.94961
297 1 3.14459 22.014 18.8692 -8.94957
522 1 11.0066 14.1896 11.023 -9.25578
523 1 14.1565 14.1541 11.0098 -8.99654
524 1 17.2997 14.1528 11.008 -8.94837
525 1 20.4423 14.1522 11.0073 -8.94989
526 1 1.57153 17.2975 11.0071 -8.94953
527 1 4.71537 17.2985 11.0072 -8.9493
528 1 7.85983 17.301 11.0075 -8.95096
295 1 -5.86232e-05 22.014 18.8692 -8.94952
639 1 4.71681 11.0069 20.4413 -8.94963
531 1 17.2973 17.2972 11.007 -8.94956
643 1 17.2972 11.0069 20.4419 -8.94959
256 1 15.7248 22.0136 15.7247 -8.94958
383 1 6.28938 18.8696 22.0133 -8.94964
535 1 7.86128 20.4431 11.0071 -8.94995
536 1 11.0071 20.4436 11.0071 -8.95216
537 1 14.1522 20.4418 11.0069 -8.94952
377 1 18.8692 15.7244 22.0138 -8.94964
389 1 15.7244 18.8693 22.0136 -8.94965
681 1 12.5794 18.8691 18.8689 -8.94962
680 1 11.007 20.4415 20.4413 -8.94961
679 1 9.43454 18.8691 18.8689 -8.94962
543 1 11.0083 11.0063 14.1626 -9.01795
678 1 7.86201 20.4416 20.4413 -8.94962
677 1 6.28949 18.8693 18.869 -8.94974
676 1 4.71701 20.4417 20.4413 -8.94964
547 1 22.0141 12.5794 12.5797 -8.94978
548 1 1.57193 14.1521 14.1523 -8.94968
549 1 3.14353 12.5796 12.5798 -8.94989
550 1 4.7157 14.1525 14.1527 -8.94954
551 1 6.28617 12.58 12.5808 -8.94954
552 1 7.85976 14.153 14.1544 -8.95092
553 1 9.4276 12.5801 12.5827 -9.03163
554 1 11.0066 14.1487 14.1486 -8.99683
555 1 12.5927 12.5837 12.5923 -9.01881
556 1 14.1561 14.1541 14.1557 -8.94541
557 1 15.7285 12.5791 12.5809 -8.9526
558 1 17.2985 14.1522 14.1529 -8.95027
559 1 18.8708 12.5792 12.58 -8.94991
560 1 20.4421 14.152 14.1523 -8.94977
561 1 -0.000214305 15.7248 12.5798 -8.94977
562 1 1.57174 17.2973 14.1523 -8.94961
563 1 3.14305 15.7254 12.5801 -8.94996
564 1 4.71556 17.2982 14.1531 -8.94848
565 1 6.28517 15.7282 12.5823 -8.94618
566 1 7.86101 17.298 14.1527 -8.94907
567 1 9.43112 15.7267 12.5803 -8.98121
568 1 11.007 17.2962 14.151 -8.94982
569 1 12.5825 15.7255 12.5803 -8.98207
570 1 14.1528 17.2975 14.1525 -8.94955
571 1 15.7264 15.7253 12.5805 -8.94906
572 1 17.2975 17.2972 14.1524 -8.94937
573 1 18.8702 15.7249 12.58 -8.94943
574 1 20.4417 17.2971 14.1522 -8.94954
575 1 22.0136 18.8696 12.5796 -8.94958
576 1 1.57203 20.4419 14.1521 -8.94961
577 1 3.14392 18.87 12.5797 -8.94959
578 1 4.71648 20.4422 14.1523 -8.94964
579 1 6.28827 18.8709 12.5801 -8.95001
580 1 7.8615 20.4421 14.1524 -8.94939
581 1 9.43349 18.8712 12.5802 -8.94831
582 1 11.007 20.4415 14.1521 -8.94915
583 1 12.5804 18.8706 12.5802 -8.94826
584 1 14.1524 20.4417 14.1524 -8.94949
585 1 15.7248 18.8694 12.5795 -8.95008
586 1 17.2971 20.4416 14.1521 -8.94974
587 1 18.8693 18.8694 12.5796 -8.94967
588 1 20.4415 20.4417 14.152 -8.94962
589 1 1.57232 11.0069 17.297 -8.9496
590 1 4.71673 11.0068 17.2972 -8.94955
675 1 3.14449 18.8694 18.8692 -8.94958
674 1 1.57218 20.4417 20.4414 -8.94953
673 1 22.0138 18.8693 18.8692 -8.94957
594 1 17.2977 11.0067 17.2977 -8.94956
595 1 20.442 11.0068 17.2972 -8.94958
596 1 0.000175131 12.5794 15.7247 -8.94963
597 1 1.5722 14.152 17.2969 -8.9496
598 1 3.14426 12.5795 15.7248 -8.94955
599 1 4.71665 14.1521 17.2971 -8.9496
600 1 6.28859 12.5795 15.7254 -8.94927
601 1 7.86153 14.1522 17.2973 -8.94997
602 1 9.43379 12.5798 15.7263 -8.94856
603 1 11.007 14.1519 17.2965 -8.94791
604 1 12.5814 12.58 15.7282 -8.95157
605 1 14.1529 14.1524 17.2981 -8.94991
606 1 15.7261 12.5794 15.726 -8.94898
607 1 17.2975 14.1521 17.2974 -8.94959
608 1 18.8701 12.5794 15.725 -8.94952
609 1 20.4418 14.152 17.2971 -8.94958
610 1 22.0139 15.7245 15.7246 -8.94964
611 1 1.57212 17.297 17.2969 -8.9496
612 1 3.14414 15.7247 15.7248 -8.94959
613 1 4.7167 17.2972 17.2971 -8.94959
614 1 6.28865 15.7251 15.7253 -8.94963
615 1 7.86204 17.2968 17.2967 -8.95001
616 1 9.43478 15.724 15.7239 -8.95093
617 1 11.007 17.2966 17.2964 -8.94942
618 1 12.5791 15.7237 15.7239 -8.95116
619 1 14.1519 17.2967 17.2967 -8.95011
620 1 15.7257 15.7253 15.7256 -8.94833
621 1 17.2972 17.2971 17.2972 -8.94925
622 1 18.8698 15.7246 15.7249 -8.94967
623 1 20.4417 17.2969 17.297 -8.94959
624 1 -0.000163042 18.8695 15.7246 -8.94954
625 1 1.57214 20.4418 17.2969 -8.94947
626 1 3.14414 18.8697 15.7248 -8.94925
627 1 4.7169 20.4417 17.297 -8.94959
628 1 6.28913 18.8697 15.7248 -8.94951
629 1 7.86201 20.4415 17.2968 -8.94972
630 1 9.43457 18.869 15.7243 -8.94989
631 1 11.007 20.4413 17.2968 -8.94962
632 1 12.5794 18.8689 15.7243 -8.94984
633 1 14.152 20.4413 17.2969 -8.94972
634 1 15.7247 18.8694 15.7247 -8.94956
635 1 17.297 20.4415 17.297 -8.94958
636 1 18.8694 18.8694 15.7246 -8.94954
637 1 20.4416 20.4416 17.2969 -8.94956
672 1 20.4415 17.2969 20.4415 -8.9496
671 1 18.8694 15.7245 18.8694 -8.94961
670 1 17.297 17.297 20.4415 -8.94954
669 1 15.7248 15.7247 18.8695 -8.94959
668 1 14.152 17.2969 20.4413 -8.94963
667 1 12.5795 15.7244 18.8689 -8.94945
666 1 11.007 17.2969 20.441 -8.94959
645 1 22.0139 12.5794 18.8693 -8.94959
646 1 1.57215 14.152 20.4414 -8.9496
647 1 3.14449 12.5795 18.8692 -8.9496
648 1 4.71676 14.1521 20.4411 -8.94965
649 1 6.28921 12.5795 18.8692 -8.94965
650 1 7.86173 14.1522 20.441 -8.94983
651 1 9.43438 12.5796 18.8695 -8.94981
652 1 11.007 14.1522 20.441 -8.94935
653 1 12.5799 12.5796 18.87 -8.9503
654 1 14.1523 14.1522 20.4415 -8.94983
655 1 15.725 12.5795 18.8699 -8.94951
656 1 17.2971 14.152 20.4417 -8.94958
657 1 18.8696 12.5794 18.8695 -8.94959
658 1 20.4416 14.1519 20.4415 -8.9496
659 1 -4.78468e-05 15.7244 18.8692 -8.94959
660 1 1.57212 17.2969 20.4413 -8.9496
661 1 3.14445 15.7245 18.8691 -8.94962
662 1 4.71682 17.2971 20.4412 -8.94966
663 1 6.28924 15.7247 18.8691 -8.94974
664 1 7.86195 17.297 20.441 -8.94966
665 1 9.43452 15.7245 18.8687 -8.94952
197 1 -8.15729e-05 22.0141 12.5795 -8.9496
199 1 3.14437 22.0143 12.5796 -8.94957
203 1 9.43425 22.0142 12.5799 -8.94979
205 1 12.5799 22.0138 12.5799 -8.94984
209 1 18.8694 22.0139 12.5795 -8.94961
250 1 6.28925 22.014 15.7247 -8.94957
351 1 22.0138 12.5794 22.0137 -8.9496
355 1 6.28906 12.5796 22.013 -8.94973
367 1 3.14427 15.7246 22.0133 -8.9496
371 1 9.43437 15.7248 22.013 -8.94961
373 1 12.5795 15.7247 22.0133 -8.94954
361 1 15.7247 12.5795 22.0138 -8.94957
379 1 22.0137 18.8694 22.0137 -8.94957
533 1 1.57193 20.4421 11.007 -8.94959
