ITEM: TIMESTEP
40
ITEM: NUMBER OF ATOMS
688
ITEM: BOX BOUNDS pp pp pp
0.0000000000000000e+00 2.2013900999999997e+01
0.0000000000000000e+00 2.2013900999999997e+01
0.0000000000000000e+00 2.2013900999999997e+01
ITEM: ATOMS id type x y z c_pot
175 1 18.8691 9.43453 9.43453 -8.9497
2 1 1.57242 1.57242 1.57242 -8.94963
517 1 17.2966 11.0069 11.0069 -8.94891
4 1 4.71726 1.57242 1.57242 -8.94963
174 1 15.7245 9.43452 9.43452 -8.95102
6 1 7.86211 1.57242 1.57242 -8.94963
448 1 20.4415 11.007 7.86211 -8.94963
8 1 11.007 1.57242 1.57242 -8.94963
9 1 12.5794 2.49824e-09 3.19132e-09 -8.94963
10 1 14.1518 1.57242 1.57242 -8.94963
173 1 12.5847 9.43154 9.43424 -9.02086
12 1 17.2966 1.57242 1.57242 -8.94963
13 1 18.8691 1.81069e-10 1.64669e-09 -8.94963
14 1 20.4415 1.57242 1.57242 -8.94963
447 1 17.2966 11.0069 7.86209 -8.94936
16 1 1.57242 4.71726 1.57242 -8.94963
17 1 3.14484 3.14484 8.08885e-09 -8.94963
18 1 4.71726 4.71726 1.57242 -8.94963
446 1 14.1512 11.0068 7.86268 -8.99801
20 1 7.86211 4.71726 1.57242 -8.94963
21 1 9.43453 3.14484 -9.64815e-09 -8.94963
22 1 11.007 4.71726 1.57242 -8.94963
23 1 12.5794 3.14484 -1.18177e-09 -8.94963
24 1 14.1518 4.71726 1.57242 -8.94963
444 1 7.85742 11.0068 7.85867 -8.98297
26 1 17.2966 4.71726 1.57242 -8.94963
27 1 18.8691 3.14484 2.10446e-09 -8.94963
28 1 20.4415 4.71726 1.57242 -8.94963
29 1 3.72486e-09 6.28969 1.26873e-09 -8.94963
30 1 1.57242 7.86211 1.57242 -8.94963
443 1 4.71701 11.0069 7.8621 -8.95095
32 1 4.71726 7.86211 1.57242 -8.94963
33 1 6.28969 6.28969 7.13709e-08 -8.94963
34 1 7.86211 7.86211 1.57242 -8.94962
442 1 1.57241 11.007 7.86211 -8.94972
36 1 11.007 7.86211 1.57243 -8.94963
397 1 14.1517 11.0069 4.71741 -8.95039
38 1 14.1518 7.86211 1.57242 -8.94961
39 1 15.7242 6.28969 6.89875e-08 -8.94963
40 1 17.2966 7.86211 1.57242 -8.94963
396 1 11.0069 11.0069 4.71533 -8.9578
42 1 20.4415 7.86211 1.57242 -8.94963
395 1 7.86207 11.0069 4.71707 -8.9507
44 1 3.14484 9.43453 7.42076e-08 -8.94963
350 1 20.4415 11.007 1.57242 -8.94963
518 1 20.4415 11.0069 11.0069 -8.94962
47 1 12.5794 9.43453 -5.89025e-07 -8.94963
348 1 14.1518 11.007 1.57243 -8.94961
49 1 18.8691 9.43453 -9.07505e-10 -8.94963
172 1 9.4181 9.40309 9.43478 -9.26893
51 1 1.57242 1.57242 4.71726 -8.94963
171 1 6.29049 9.43534 9.43453 -8.99921
53 1 4.71726 1.57242 4.71726 -8.94963
54 1 6.28969 -4.88102e-09 3.14484 -8.94963
55 1 7.86211 1.57242 4.71726 -8.94963
170 1 3.14488 9.43452 9.43453 -8.9493
57 1 11.007 1.57242 4.71726 -8.94963
169 1 1.74547e-06 9.43453 9.43453 -8.94962
59 1 14.1518 1.57242 4.71726 -8.94963
60 1 15.7242 -4.56072e-09 3.14484 -8.94963
61 1 17.2966 1.57242 4.71726 -8.94963
168 1 18.8691 6.28969 9.43453 -8.94963
63 1 20.4415 1.57242 4.71726 -8.94963
64 1 1.56648e-08 3.14484 3.14484 -8.94963
65 1 1.57242 4.71726 4.71726 -8.94963
66 1 3.14484 3.14484 3.14484 -8.94963
67 1 4.71727 4.71726 4.71727 -8.94963
68 1 6.28969 3.14484 3.14484 -8.94963
69 1 7.86211 4.71727 4.71726 -8.94968
70 1 9.43453 3.14484 3.14484 -8.94963
71 1 11.0069 4.71727 4.71726 -8.94964
72 1 12.5794 3.14484 3.14484 -8.94963
73 1 14.1518 4.71727 4.71726 -8.94963
74 1 15.7242 3.14484 3.14484 -8.94963
75 1 17.2966 4.71726 4.71726 -8.94963
76 1 18.8691 3.14484 3.14484 -8.94963
77 1 20.4415 4.71726 4.71726 -8.94963
78 1 22.0139 6.28969 3.14484 -8.94963
79 1 1.57242 7.86211 4.71726 -8.94963
80 1 3.14484 6.28969 3.14484 -8.94962
81 1 4.71725 7.86209 4.71725 -8.94952
82 1 6.28969 6.28969 3.14484 -8.94963
83 1 7.8621 7.86211 4.71723 -8.9498
84 1 9.43453 6.28969 3.14485 -8.94964
85 1 11.0069 7.86217 4.71732 -8.95014
86 1 12.5794 6.28969 3.14484 -8.94967
87 1 14.1518 7.86211 4.71726 -8.94953
88 1 15.7242 6.28969 3.14484 -8.94963
89 1 17.2966 7.86211 4.71727 -8.94966
90 1 18.8691 6.28969 3.14484 -8.94963
91 1 20.4415 7.86211 4.71726 -8.94963
92 1 6.52548e-08 9.43453 3.14484 -8.94963
93 1 3.14484 9.43453 3.14484 -8.94964
94 1 6.28968 9.43452 3.14483 -8.94968
95 1 9.43449 9.43448 3.1448 -8.94923
96 1 12.5794 9.43448 3.14482 -8.94925
97 1 15.7242 9.43453 3.14485 -8.94967
98 1 18.8691 9.43453 3.14484 -8.94963
99 1 -5.44127e-10 1.14696e-09 6.28969 -8.94963
100 1 1.57242 1.57242 7.86211 -8.94963
101 1 3.14484 6.345e-09 6.28969 -8.94963
102 1 4.71726 1.57242 7.86211 -8.94963
167 1 15.7242 6.2897 9.43453 -8.94969
104 1 7.86211 1.57242 7.86211 -8.94963
105 1 9.43453 -4.10162e-07 6.28969 -8.94963
106 1 11.007 1.57242 7.86211 -8.94963
107 1 12.5794 -4.07657e-07 6.28969 -8.94963
108 1 14.1518 1.57242 7.86211 -8.94964
166 1 12.5794 6.28949 9.43448 -8.95024
110 1 17.2966 1.57242 7.86211 -8.94963
111 1 18.8691 6.58668e-09 6.28969 -8.94963
112 1 20.4415 1.57242 7.86211 -8.94963
113 1 22.0139 3.14484 6.28969 -8.94963
114 1 1.57242 4.71726 7.86211 -8.94963
115 1 3.14484 3.14484 6.28969 -8.94963
116 1 4.71727 4.71727 7.86211 -8.94968
117 1 6.28968 3.14484 6.28968 -8.94961
118 1 7.86206 4.71724 7.86206 -8.94923
119 1 9.43453 3.14485 6.28969 -8.94964
120 1 11.007 4.71723 7.86206 -8.94921
121 1 12.5794 3.14484 6.28968 -8.94962
122 1 14.1518 4.71725 7.8621 -8.94966
123 1 15.7242 3.14484 6.28969 -8.94963
124 1 17.2966 4.71727 7.86211 -8.94965
125 1 18.8691 3.14484 6.28969 -8.94963
126 1 20.4415 4.71726 7.86211 -8.94963
127 1 3.54856e-07 6.28969 6.28969 -8.94963
128 1 1.57243 7.86211 7.86211 -8.94962
129 1 3.14485 6.28969 6.28969 -8.94966
130 1 4.71732 7.86217 7.86216 -8.95001
131 1 6.28969 6.28968 6.28968 -8.9495
132 1 7.86174 7.86223 7.86122 -8.9866
133 1 9.43455 6.28974 6.28975 -8.95024
134 1 11.0076 7.86234 7.86212 -9.00463
135 1 12.5794 6.28966 6.28968 -8.94982
136 1 14.1521 7.86186 7.86192 -8.94848
137 1 15.7242 6.28968 6.28967 -8.94953
138 1 17.2967 7.8621 7.8621 -8.94966
139 1 18.8691 6.28969 6.28969 -8.94963
140 1 20.4415 7.86211 7.86211 -8.94963
141 1 22.0139 9.43453 6.28969 -8.94964
142 1 3.14482 9.43452 6.28968 -8.94966
143 1 6.28941 9.43432 6.28943 -8.94848
144 1 9.43398 9.43445 6.28981 -9.00441
145 1 12.5797 9.43369 6.28986 -8.98696
146 1 15.7242 9.43457 6.28973 -8.94992
147 1 18.8691 9.43453 6.28969 -8.94962
165 1 9.43452 6.28764 9.43448 -8.95763
164 1 6.28982 6.28985 9.43453 -8.95041
150 1 6.28969 -1.80981e-07 9.43453 -8.94963
163 1 3.14485 6.28968 9.43453 -8.94959
162 1 22.0139 6.28969 9.43453 -8.94963
153 1 15.7242 -1.8329e-07 9.43453 -8.94963
161 1 18.8691 3.14484 9.43453 -8.94963
155 1 -1.52746e-08 3.14484 9.43453 -8.94963
156 1 3.14484 3.14484 9.43453 -8.94963
157 1 6.28969 3.14485 9.43453 -8.94961
158 1 9.43453 3.14476 9.43453 -8.9502
159 1 12.5794 3.14484 9.43453 -8.94969
160 1 15.7242 3.14484 9.43453 -8.94963
344 1 1.57242 11.007 1.57242 -8.94963
345 1 4.71726 11.007 1.57242 -8.94963
346 1 7.86211 11.007 1.57242 -8.9497
347 1 11.007 11.007 1.57235 -8.95018
513 1 4.71699 11.0069 11.0069 -8.95046
181 1 17.2966 1.57242 11.007 -8.94963
188 1 17.2966 4.71727 11.007 -8.94964
190 1 1.57243 7.86211 11.0069 -8.94963
191 1 4.71732 7.86217 11.0069 -8.95002
192 1 7.86181 7.86231 11.0079 -8.98685
193 1 11.0076 7.85989 11.0071 -9.01306
512 1 1.57241 11.0069 11.0069 -8.94971
177 1 4.71726 1.57242 11.007 -8.94963
184 1 4.71727 4.71727 11.0069 -8.94967
189 1 20.4415 4.71726 11.007 -8.94963
7 1 9.43453 2.55341e-09 4.61529e-09 -8.94963
643 1 17.2966 11.007 20.4415 -8.94963
644 1 20.4415 11.007 20.4415 -8.94963
178 1 7.86211 1.57242 11.007 -8.94962
179 1 11.007 1.57242 11.007 -8.94967
180 1 14.1518 1.57242 11.007 -8.94964
639 1 4.71726 11.007 20.4415 -8.94963
182 1 20.4415 1.57242 11.007 -8.94963
183 1 1.57242 4.71726 11.007 -8.94963
638 1 1.57242 11.007 20.4415 -8.94963
185 1 7.86207 4.71725 11.007 -8.94925
186 1 11.007 4.71713 11.007 -8.94987
187 1 14.1518 4.71726 11.007 -8.94969
48 1 15.7242 9.43453 22.0139 -8.94963
35 1 9.43453 6.28969 22.0139 -8.94963
46 1 9.43453 9.43453 22.0139 -8.94963
45 1 6.28969 9.43453 22.0139 -8.94964
43 1 22.0139 9.43453 22.0139 -8.94963
546 1 20.4415 11.0069 14.1518 -8.94963
194 1 14.152 7.86191 11.0072 -8.9493
195 1 17.2967 7.8621 11.007 -8.94967
196 1 20.4415 7.86211 11.007 -8.94964
197 1 -4.87553e-10 -1.37427e-09 12.5794 -8.94963
198 1 1.57242 1.57242 14.1518 -8.94963
343 1 18.8691 9.43453 18.8691 -8.94963
200 1 4.71726 1.57242 14.1518 -8.94963
41 1 18.8691 6.28969 22.0139 -8.94963
202 1 7.86211 1.57242 14.1518 -8.94963
203 1 9.43453 2.72002e-06 12.5794 -8.94963
204 1 11.007 1.57242 14.1518 -8.94964
205 1 12.5794 2.71888e-06 12.5794 -8.94963
206 1 14.1518 1.57242 14.1518 -8.94963
37 1 12.5794 6.28969 22.0139 -8.94963
208 1 17.2966 1.57242 14.1518 -8.94963
342 1 15.7242 9.43453 18.8691 -8.94966
210 1 20.4415 1.57242 14.1518 -8.94963
211 1 22.0139 3.14484 12.5794 -8.94963
212 1 1.57242 4.71726 14.1518 -8.94963
213 1 3.14484 3.14484 12.5794 -8.94963
214 1 4.71727 4.71726 14.1518 -8.94963
215 1 6.28968 3.14484 12.5794 -8.94962
216 1 7.86211 4.71726 14.1518 -8.94966
217 1 9.43453 3.14485 12.5794 -8.94963
218 1 11.0069 4.71726 14.1518 -8.94971
219 1 12.5794 3.14484 12.5794 -8.94962
220 1 14.1518 4.71726 14.1518 -8.94962
221 1 15.7242 3.14484 12.5794 -8.94963
222 1 17.2966 4.71726 14.1518 -8.94963
223 1 18.8691 3.14484 12.5794 -8.94963
224 1 20.4415 4.71726 14.1518 -8.94963
225 1 3.56469e-07 6.28969 12.5794 -8.94963
226 1 1.57242 7.86211 14.1518 -8.94963
227 1 3.14485 6.28969 12.5794 -8.94966
228 1 4.71725 7.86209 14.1518 -8.94957
229 1 6.28968 6.28968 12.5794 -8.94952
230 1 7.86209 7.86206 14.1518 -8.94985
231 1 9.43449 6.28969 12.5794 -8.9498
232 1 11.0069 7.86198 14.1518 -8.95137
233 1 12.5794 6.28959 12.5794 -8.9494
234 1 14.1518 7.86206 14.1518 -8.94951
235 1 15.7242 6.28968 12.5794 -8.94954
236 1 17.2966 7.86211 14.1518 -8.94971
237 1 18.8691 6.28969 12.5794 -8.94963
238 1 20.4415 7.86211 14.1518 -8.94963
239 1 22.0139 9.43453 12.5794 -8.94963
240 1 3.14483 9.43453 12.5794 -8.94967
241 1 6.28948 9.4344 12.5796 -8.94922
242 1 9.43367 9.43432 12.5801 -9.05667
243 1 12.5801 9.43341 12.5801 -9.03716
244 1 15.7241 9.43464 12.5793 -8.95066
245 1 18.869 9.43453 12.5794 -8.94963
341 1 12.5794 9.43452 18.8691 -8.94966
247 1 1.57242 1.57242 17.2966 -8.94963
248 1 3.14484 8.38217e-09 15.7242 -8.94963
249 1 4.71726 1.57242 17.2966 -8.94963
340 1 9.43452 9.43452 18.8691 -8.94966
251 1 7.86211 1.57242 17.2966 -8.94963
252 1 9.43453 3.89096e-07 15.7242 -8.94964
253 1 11.007 1.57242 17.2966 -8.94963
254 1 12.5794 3.88187e-07 15.7242 -8.94964
255 1 14.1518 1.57242 17.2966 -8.94963
339 1 6.28969 9.43453 18.8691 -8.94967
257 1 17.2966 1.57242 17.2966 -8.94963
258 1 18.8691 8.479e-09 15.7242 -8.94963
259 1 20.4415 1.57242 17.2966 -8.94963
260 1 1.5717e-08 3.14484 15.7242 -8.94963
261 1 1.57242 4.71726 17.2966 -8.94963
262 1 3.14484 3.14484 15.7242 -8.94963
263 1 4.71726 4.71726 17.2966 -8.94963
264 1 6.28969 3.14484 15.7242 -8.94963
265 1 7.86211 4.71726 17.2966 -8.94963
266 1 9.43453 3.14484 15.7242 -8.94963
267 1 11.007 4.71726 17.2966 -8.94962
268 1 12.5794 3.14484 15.7242 -8.94964
269 1 14.1518 4.71726 17.2966 -8.94963
270 1 15.7242 3.14484 15.7242 -8.94963
271 1 17.2966 4.71726 17.2966 -8.94963
272 1 18.8691 3.14484 15.7242 -8.94963
273 1 20.4415 4.71726 17.2966 -8.94963
274 1 22.0139 6.28969 15.7242 -8.94963
275 1 1.57242 7.86211 17.2966 -8.94963
276 1 3.14484 6.28969 15.7242 -8.94963
277 1 4.71726 7.86211 17.2966 -8.94963
278 1 6.28969 6.28969 15.7242 -8.94963
279 1 7.86209 7.86209 17.2967 -8.94952
280 1 9.43453 6.28967 15.7242 -8.94969
281 1 11.007 7.86212 17.2966 -8.94966
282 1 12.5794 6.28967 15.7242 -8.94973
283 1 14.1518 7.86209 17.2967 -8.94951
284 1 15.7242 6.28969 15.7242 -8.94962
285 1 17.2966 7.86211 17.2966 -8.94963
286 1 18.8691 6.28969 15.7242 -8.94964
287 1 20.4415 7.86211 17.2966 -8.94963
288 1 6.27424e-08 9.43453 15.7242 -8.94963
289 1 3.14484 9.43453 15.7242 -8.94963
290 1 6.28967 9.43452 15.7242 -8.94955
291 1 9.43429 9.43424 15.7245 -8.94822
292 1 12.5796 9.43424 15.7245 -8.94826
293 1 15.7242 9.43453 15.7242 -8.94956
294 1 18.8691 9.43453 15.7242 -8.94961
295 1 1.14544e-10 7.06205e-10 18.8691 -8.94963
296 1 1.57242 1.57242 20.4415 -8.94963
338 1 3.14484 9.43453 18.8691 -8.94963
298 1 4.71726 1.57242 20.4415 -8.94963
299 1 6.28969 4.37169e-08 18.8691 -8.94963
300 1 7.86211 1.57242 20.4415 -8.94963
337 1 22.0139 9.43453 18.8691 -8.94963
302 1 11.007 1.57242 20.4415 -8.94963
336 1 20.4415 7.86211 20.4415 -8.94963
304 1 14.1518 1.57242 20.4415 -8.94963
305 1 15.7242 4.38068e-08 18.8691 -8.94963
306 1 17.2966 1.57242 20.4415 -8.94963
335 1 18.8691 6.28969 18.8691 -8.94963
308 1 20.4415 1.57242 20.4415 -8.94963
309 1 22.0139 3.14484 18.8691 -8.94963
310 1 1.57242 4.71726 20.4415 -8.94963
311 1 3.14484 3.14484 18.8691 -8.94963
312 1 4.71726 4.71726 20.4415 -8.94963
313 1 6.28969 3.14484 18.8691 -8.94963
314 1 7.86211 4.71726 20.4415 -8.94963
315 1 9.43453 3.14484 18.8691 -8.94963
316 1 11.007 4.71726 20.4415 -8.94963
317 1 12.5794 3.14484 18.8691 -8.94963
318 1 14.1518 4.71726 20.4415 -8.94963
319 1 15.7242 3.14484 18.8691 -8.94963
320 1 17.2966 4.71726 20.4415 -8.94963
321 1 18.8691 3.14484 18.8691 -8.94963
322 1 20.4415 4.71726 20.4415 -8.94963
323 1 3.61582e-09 6.28969 18.8691 -8.94963
324 1 1.57242 7.86211 20.4415 -8.94963
325 1 3.14484 6.28969 18.8691 -8.94963
326 1 4.71726 7.86211 20.4415 -8.94963
327 1 6.28969 6.28969 18.8691 -8.94962
328 1 7.86211 7.86211 20.4415 -8.94963
329 1 9.43453 6.28969 18.8691 -8.94965
330 1 11.007 7.86211 20.4415 -8.94962
331 1 12.5794 6.28969 18.8691 -8.94965
332 1 14.1518 7.86211 20.4415 -8.94963
333 1 15.7242 6.28969 18.8691 -8.94962
334 1 17.2966 7.86211 20.4415 -8.94963
545 1 17.2967 11.0069 14.1518 -8.9492
543 1 11.0069 11.0037 14.1582 -8.99441
515 1 11.0252 10.9701 11.0252 -9.46275
541 1 4.71725 11.0069 14.1518 -8.94926
540 1 1.57242 11.0069 14.1518 -8.94962
31 1 3.14484 6.28969 22.0139 -8.94963
15 1 22.0139 3.14484 22.0139 -8.94963
19 1 6.28969 3.14484 22.0139 -8.94963
25 1 15.7242 3.14484 22.0139 -8.94963
3 1 3.14484 1.74666e-10 22.0139 -8.94963
176 1 1.57242 1.57242 11.007 -8.94963
688 2 10.2181 11.0079 9.42967 0.955871
511 1 18.8691 18.8691 9.43453 -8.94963
510 1 15.7242 18.8691 9.43453 -8.94967
509 1 12.5794 18.8691 9.43448 -8.94932
508 1 9.43448 18.8692 9.43448 -8.94983
507 1 6.28969 18.869 9.43453 -8.94965
506 1 3.14484 18.8691 9.43453 -8.94963
349 1 17.2966 11.007 1.57242 -8.94963
352 1 1.57242 14.1518 1.57242 -8.94963
154 1 18.8691 22.0139 9.43453 -8.94963
354 1 4.71726 14.1518 1.57242 -8.94963
152 1 12.5794 22.0139 9.43453 -8.94963
356 1 7.86211 14.1518 1.57242 -8.94962
151 1 9.43453 22.0139 9.43453 -8.94967
358 1 11.007 14.1518 1.57243 -8.94962
149 1 3.14484 22.0139 9.43453 -8.94963
360 1 14.1518 14.1518 1.57242 -8.94962
361 1 15.7242 12.5794 3.18602e-07 -8.94963
362 1 17.2966 14.1518 1.57242 -8.94963
537 1 14.1518 20.4415 11.0069 -8.94964
364 1 20.4415 14.1518 1.57242 -8.94963
148 1 3.72783e-09 22.0139 9.43453 -8.94963
366 1 1.57242 17.2966 1.57242 -8.94963
109 1 15.7242 22.0139 6.28969 -8.94963
368 1 4.71726 17.2966 1.57242 -8.94963
103 1 6.28969 22.0139 6.28969 -8.94963
370 1 7.86211 17.2966 1.57242 -8.94963
371 1 9.43453 15.7242 1.11523e-06 -8.94964
372 1 11.007 17.2966 1.57242 -8.94963
373 1 12.5794 15.7242 1.01378e-06 -8.94964
374 1 14.1518 17.2966 1.57242 -8.94963
62 1 18.8691 22.0139 3.14484 -8.94963
376 1 17.2966 17.2966 1.57242 -8.94963
377 1 18.8691 15.7242 3.04137e-08 -8.94963
378 1 20.4415 17.2966 1.57242 -8.94963
379 1 22.0139 18.8691 2.54921e-10 -8.94963
380 1 1.57242 20.4415 1.57242 -8.94963
58 1 12.5794 22.0139 3.14484 -8.94963
382 1 4.71726 20.4415 1.57242 -8.94963
383 1 6.28969 18.8691 7.75746e-08 -8.94963
384 1 7.86211 20.4415 1.57242 -8.94963
56 1 9.43453 22.0139 3.14484 -8.94963
386 1 11.007 20.4415 1.57242 -8.94963
52 1 3.14484 22.0139 3.14484 -8.94963
388 1 14.1518 20.4415 1.57242 -8.94963
389 1 15.7242 18.8691 7.96471e-08 -8.94963
390 1 17.2966 20.4415 1.57242 -8.94963
50 1 22.0139 22.0139 3.14484 -8.94963
392 1 20.4415 20.4415 1.57242 -8.94963
393 1 1.57242 11.007 4.71726 -8.94963
394 1 4.71727 11.007 4.71727 -8.94966
505 1 -1.43325e-08 18.8691 9.43453 -8.94963
504 1 18.8691 15.7242 9.43453 -8.94961
503 1 15.7242 15.7242 9.43452 -8.94979
398 1 17.2966 11.007 4.71726 -8.9496
399 1 20.4415 11.007 4.71726 -8.94963
400 1 6.53489e-08 12.5794 3.14484 -8.94963
401 1 1.57242 14.1518 4.71726 -8.94963
402 1 3.14484 12.5794 3.14484 -8.94964
403 1 4.71725 14.1518 4.71725 -8.94954
404 1 6.28968 12.5794 3.14483 -8.94968
405 1 7.86209 14.1518 4.71721 -8.94981
406 1 9.43449 12.5794 3.14479 -8.94932
407 1 11.0069 14.1517 4.71736 -8.94987
408 1 12.5794 12.5794 3.14481 -8.94934
409 1 14.1518 14.1518 4.71724 -8.94952
410 1 15.7242 12.5794 3.14485 -8.94967
411 1 17.2966 14.1518 4.71727 -8.94967
412 1 18.8691 12.5794 3.14484 -8.94963
413 1 20.4415 14.1518 4.71726 -8.94963
414 1 22.0139 15.7242 3.14484 -8.94963
415 1 1.57242 17.2966 4.71726 -8.94963
416 1 3.14484 15.7242 3.14484 -8.94963
417 1 4.71726 17.2966 4.71726 -8.94962
418 1 6.28969 15.7242 3.14484 -8.94963
419 1 7.86211 17.2966 4.71727 -8.9497
420 1 9.43453 15.7242 3.14485 -8.94963
421 1 11.0069 17.2966 4.71727 -8.9496
422 1 12.5794 15.7242 3.14485 -8.94967
423 1 14.1518 17.2966 4.71727 -8.94966
424 1 15.7242 15.7242 3.14484 -8.94963
425 1 17.2966 17.2966 4.71726 -8.94962
426 1 18.8691 15.7242 3.14484 -8.94964
427 1 20.4415 17.2966 4.71726 -8.94963
428 1 1.5536e-08 18.8691 3.14484 -8.94963
429 1 1.57242 20.4415 4.71726 -8.94963
430 1 3.14484 18.8691 3.14484 -8.94963
431 1 4.71726 20.4415 4.71726 -8.94963
432 1 6.28969 18.8691 3.14484 -8.94964
433 1 7.86211 20.4415 4.71726 -8.94964
434 1 9.43453 18.8691 3.14484 -8.94963
435 1 11.007 20.4415 4.71726 -8.94963
436 1 12.5794 18.8691 3.14484 -8.94963
437 1 14.1518 20.4415 4.71726 -8.94963
438 1 15.7242 18.8691 3.14484 -8.94963
439 1 17.2966 20.4415 4.71726 -8.94963
440 1 18.8691 18.8691 3.14484 -8.94963
441 1 20.4415 20.4415 4.71726 -8.94963
502 1 12.5803 15.7243 9.43413 -8.98742
501 1 9.43366 15.7261 9.43415 -8.99495
500 1 6.28977 15.7241 9.43452 -8.9505
445 1 11.0231 11.0079 7.83151 -9.28085
499 1 3.14484 15.7242 9.43453 -8.94958
498 1 22.0139 15.7242 9.43453 -8.94963
497 1 18.8691 12.5794 9.43453 -8.94977
449 1 22.0139 12.5794 6.28969 -8.94964
450 1 1.57242 14.1518 7.86211 -8.94963
451 1 3.14482 12.5794 6.28968 -8.94966
452 1 4.7173 14.1517 7.86215 -8.95007
453 1 6.28943 12.5796 6.28945 -8.94862
454 1 7.86145 14.1519 7.86091 -8.98528
455 1 9.43392 12.5795 6.28949 -9.0054
456 1 11.0076 14.151 7.8628 -9.05353
457 1 12.5798 12.5803 6.28956 -8.98775
458 1 14.1523 14.1522 7.86166 -8.94756
459 1 15.7242 12.5793 6.28975 -8.95005
460 1 17.2967 14.1518 7.86209 -8.94971
461 1 18.8691 12.5794 6.28969 -8.94962
462 1 20.4415 14.1518 7.86211 -8.94964
463 1 3.52861e-07 15.7242 6.28969 -8.94963
464 1 1.57242 17.2966 7.86211 -8.94963
465 1 3.14485 15.7242 6.28969 -8.94966
466 1 4.71727 17.2966 7.86211 -8.94967
467 1 6.28967 15.7242 6.28967 -8.94938
468 1 7.86206 17.2967 7.86206 -8.94912
469 1 9.4346 15.7241 6.28979 -8.95058
470 1 11.007 17.2965 7.86219 -8.94998
471 1 12.5793 15.7242 6.28973 -8.95016
472 1 14.1518 17.2967 7.8621 -8.94954
473 1 15.7242 15.7242 6.28966 -8.94943
474 1 17.2966 17.2966 7.86211 -8.94964
475 1 18.8691 15.7242 6.28968 -8.94963
476 1 20.4415 17.2966 7.86211 -8.94963
477 1 22.0139 18.8691 6.28969 -8.94963
478 1 1.57242 20.4415 7.86211 -8.94963
479 1 3.14484 18.8691 6.28969 -8.94963
480 1 4.71726 20.4415 7.86211 -8.94963
481 1 6.28969 18.8691 6.28969 -8.94961
482 1 7.8621 20.4415 7.8621 -8.94961
483 1 9.43453 18.869 6.28969 -8.94968
484 1 11.007 20.4415 7.86211 -8.94961
485 1 12.5794 18.8691 6.28969 -8.94967
486 1 14.1518 20.4415 7.86211 -8.94962
487 1 15.7242 18.8691 6.28969 -8.94963
488 1 17.2966 20.4415 7.86211 -8.94963
489 1 18.8691 18.8691 6.28969 -8.94963
490 1 20.4415 20.4415 7.86211 -8.94963
491 1 1.72149e-06 12.5794 9.43453 -8.94962
492 1 3.14488 12.5794 9.43453 -8.94938
493 1 6.29033 12.5786 9.43451 -9.00018
494 1 9.41553 12.6111 9.43022 -9.26641
495 1 12.587 12.5824 9.43017 -9.01942
496 1 15.7246 12.5794 9.43451 -8.95193
536 1 11.007 20.4416 11.007 -8.9502
5 1 6.28969 22.0139 -2.87713e-09 -8.94963
516 1 14.1509 11.0068 11.0055 -9.05334
519 1 1.57242 14.1518 11.0069 -8.94962
520 1 4.71727 14.1518 11.0069 -8.94961
521 1 7.86177 14.1518 11.0072 -9.04073
522 1 11.0076 14.1838 10.991 -9.28416
523 1 14.152 14.1522 11.0065 -9.00283
524 1 17.2967 14.1519 11.0069 -8.94927
525 1 20.4415 14.1518 11.0069 -8.94963
527 1 4.71727 17.2966 11.0069 -8.94968
535 1 7.86211 20.4415 11.007 -8.94963
531 1 17.2966 17.2966 11.007 -8.94965
353 1 3.14484 12.5794 6.39297e-08 -8.94963
687 2 11.0065 12.5843 11.7948 0.953924
686 1 20.4415 20.4415 20.4415 -8.94963
514 1 7.85784 11.0068 11.0095 -9.03749
685 1 18.8691 18.8691 18.8691 -8.94963
307 1 18.8691 22.0139 18.8691 -8.94963
684 1 17.2966 20.4415 20.4415 -8.94963
683 1 15.7242 18.8691 18.8691 -8.94963
303 1 12.5794 22.0139 18.8691 -8.94963
301 1 9.43453 22.0139 18.8691 -8.94963
297 1 3.14484 22.0139 18.8691 -8.94963
256 1 15.7242 22.0139 15.7242 -8.94963
250 1 6.28969 22.0139 15.7242 -8.94963
246 1 22.0139 22.0139 15.7242 -8.94963
209 1 18.8691 22.0139 12.5794 -8.94963
526 1 1.57242 17.2966 11.007 -8.94963
199 1 3.14484 22.0139 12.5794 -8.94963
528 1 7.86212 17.2966 11.007 -8.94982
529 1 11.007 17.2987 11.007 -8.95782
671 1 18.8691 15.7242 18.8691 -8.94963
670 1 17.2966 17.2966 20.4415 -8.94963
669 1 15.7242 15.7242 18.8691 -8.94966
533 1 1.57242 20.4415 11.007 -8.94963
534 1 4.71726 20.4415 11.007 -8.94963
668 1 14.1518 17.2966 20.4415 -8.94963
667 1 12.5794 15.7242 18.8691 -8.94966
666 1 11.007 17.2966 20.4415 -8.94963
538 1 17.2966 20.4415 11.007 -8.94963
539 1 20.4415 20.4415 11.007 -8.94963
682 1 14.1518 20.4415 20.4415 -8.94963
681 1 12.5794 18.8691 18.8691 -8.94964
542 1 7.86222 11.006 14.1523 -8.98728
680 1 11.007 20.4415 20.4415 -8.94963
544 1 14.1515 11.0061 14.152 -8.98709
679 1 9.43453 18.8691 18.8691 -8.94964
678 1 7.86211 20.4415 20.4415 -8.94963
547 1 22.0139 12.5794 12.5794 -8.94968
548 1 1.57242 14.1518 14.1518 -8.94962
549 1 3.14475 12.5794 12.5794 -8.95023
550 1 4.71723 14.1519 14.1519 -8.94915
551 1 6.2874 12.5796 12.5796 -8.95711
552 1 7.86221 14.1527 14.1522 -8.98671
553 1 9.40201 12.5792 12.5951 -9.28586
554 1 11.0069 14.1549 14.1562 -8.98445
555 1 12.6114 12.5797 12.5946 -9.26896
556 1 14.1517 14.1527 14.1522 -8.98659
557 1 15.7262 12.5793 12.5793 -8.95843
558 1 17.2967 14.1518 14.1518 -8.94928
559 1 18.8691 12.5794 12.5794 -8.9502
560 1 20.4415 14.1518 14.1518 -8.94963
561 1 3.52092e-07 15.7242 12.5794 -8.94963
562 1 1.57242 17.2966 14.1518 -8.94964
563 1 3.14485 15.7242 12.5794 -8.94967
564 1 4.71727 17.2966 14.1518 -8.94967
565 1 6.28974 15.7242 12.5794 -8.95006
566 1 7.8621 17.2967 14.1518 -8.94981
567 1 9.43439 15.7241 12.5799 -9.00456
568 1 11.0069 17.2968 14.1518 -8.95069
569 1 12.5795 15.7242 12.58 -9.00402
570 1 14.1518 17.2967 14.1518 -8.94976
571 1 15.7242 15.7242 12.5794 -8.95009
572 1 17.2966 17.2966 14.1518 -8.94967
573 1 18.8691 15.7242 12.5794 -8.94963
574 1 20.4415 17.2966 14.1518 -8.94963
575 1 22.0139 18.8691 12.5794 -8.94963
576 1 1.57242 20.4415 14.1518 -8.94963
577 1 3.14484 18.8691 12.5794 -8.94963
578 1 4.71726 20.4415 14.1518 -8.94963
579 1 6.28968 18.8691 12.5794 -8.94962
580 1 7.86211 20.4415 14.1518 -8.94962
581 1 9.43448 18.8691 12.5794 -8.94924
582 1 11.007 20.4415 14.1518 -8.9497
583 1 12.5794 18.8691 12.5794 -8.94922
584 1 14.1518 20.4415 14.1518 -8.94962
585 1 15.7242 18.8691 12.5794 -8.94964
586 1 17.2966 20.4415 14.1518 -8.94963
587 1 18.8691 18.8691 12.5794 -8.94963
588 1 20.4415 20.4415 14.1518 -8.94963
677 1 6.28969 18.8691 18.8691 -8.94963
676 1 4.71726 20.4415 20.4415 -8.94963
591 1 7.86217 11.007 17.2966 -8.95008
592 1 11.007 11.007 17.297 -8.95145
593 1 14.1517 11.007 17.2966 -8.94999
675 1 3.14484 18.8691 18.8691 -8.94963
674 1 1.57242 20.4415 20.4415 -8.94963
596 1 5.89331e-08 12.5794 15.7242 -8.94963
597 1 1.57242 14.1518 17.2966 -8.94963
598 1 3.14485 12.5794 15.7242 -8.94962
599 1 4.71727 14.1518 17.2966 -8.94968
600 1 6.28984 12.5794 15.7241 -8.95042
601 1 7.86216 14.1517 17.2966 -8.95001
602 1 9.4353 12.5794 15.7234 -8.99874
603 1 11.007 14.1518 17.2969 -8.95091
604 1 12.5786 12.5794 15.7234 -8.99863
605 1 14.1517 14.1517 17.2966 -8.95
606 1 15.7241 12.5794 15.7241 -8.95041
607 1 17.2966 14.1518 17.2966 -8.94968
608 1 18.869 12.5794 15.7242 -8.94961
609 1 20.4415 14.1518 17.2966 -8.94963
610 1 22.0139 15.7242 15.7242 -8.94963
611 1 1.57242 17.2966 17.2966 -8.94963
612 1 3.14484 15.7242 15.7242 -8.94961
613 1 4.71726 17.2966 17.2966 -8.94963
614 1 6.28968 15.7242 15.7242 -8.94949
615 1 7.86209 17.2966 17.2966 -8.94953
616 1 9.43434 15.7245 15.7245 -8.9486
617 1 11.007 17.2966 17.2966 -8.94965
618 1 12.5796 15.7245 15.7245 -8.94863
619 1 14.1518 17.2966 17.2966 -8.94953
620 1 15.7242 15.7242 15.7242 -8.9495
621 1 17.2966 17.2966 17.2966 -8.94963
622 1 18.8691 15.7242 15.7242 -8.94962
623 1 20.4415 17.2966 17.2966 -8.94963
624 1 1.57264e-08 18.8691 15.7242 -8.94963
625 1 1.57242 20.4415 17.2966 -8.94963
626 1 3.14484 18.8691 15.7242 -8.94963
627 1 4.71726 20.4415 17.2966 -8.94963
628 1 6.28969 18.8691 15.7242 -8.94963
629 1 7.86211 20.4415 17.2966 -8.94963
630 1 9.43452 18.8691 15.7242 -8.94968
631 1 11.007 20.4415 17.2966 -8.94963
632 1 12.5794 18.8691 15.7242 -8.94968
633 1 14.1518 20.4415 17.2966 -8.94963
634 1 15.7242 18.8691 15.7242 -8.94963
635 1 17.2966 20.4415 17.2966 -8.94963
636 1 18.8691 18.8691 15.7242 -8.94963
637 1 20.4415 20.4415 17.2966 -8.94963
11 1 15.7242 22.0139 22.0139 -8.94963
673 1 22.0139 18.8691 18.8691 -8.94963
640 1 7.86211 11.007 20.4415 -8.94963
641 1 11.007 11.007 20.4415 -8.94975
642 1 14.1518 11.007 20.4415 -8.94962
672 1 20.4415 17.2966 20.4415 -8.94963
391 1 18.8691 18.8691 22.0139 -8.94963
645 1 22.0139 12.5794 18.8691 -8.94963
646 1 1.57242 14.1518 20.4415 -8.94963
647 1 3.14484 12.5794 18.8691 -8.94963
648 1 4.71726 14.1518 20.4415 -8.94963
649 1 6.28968 12.5794 18.8691 -8.9496
650 1 7.86211 14.1518 20.4415 -8.94962
651 1 9.43452 12.5794 18.869 -8.94931
652 1 11.007 14.1518 20.4415 -8.94971
653 1 12.5794 12.5794 18.869 -8.9493
654 1 14.1518 14.1518 20.4415 -8.94962
655 1 15.7242 12.5794 18.8691 -8.94959
656 1 17.2966 14.1518 20.4415 -8.94963
657 1 18.8691 12.5794 18.8691 -8.94963
658 1 20.4415 14.1518 20.4415 -8.94963
659 1 3.5686e-09 15.7242 18.8691 -8.94963
660 1 1.57242 17.2966 20.4415 -8.94963
661 1 3.14484 15.7242 18.8691 -8.94963
662 1 4.71726 17.2966 20.4415 -8.94963
663 1 6.28969 15.7242 18.8691 -8.94966
664 1 7.86211 17.2966 20.4415 -8.94963
665 1 9.43452 15.7242 18.8691 -8.94966
207 1 15.7242 22.0139 12.5794 -8.94963
355 1 6.28969 12.5794 22.0139 -8.94964
357 1 9.43453 12.5794 22.0139 -8.94962
359 1 12.5794 12.5794 22.0139 -8.94962
365 1 3.71517e-09 15.7242 22.0139 -8.94963
367 1 3.14484 15.7242 22.0139 -8.94963
369 1 6.28969 15.7242 22.0139 -8.94963
375 1 15.7242 15.7242 22.0139 -8.94963
381 1 3.14484 18.8691 22.0139 -8.94963
385 1 9.43453 18.8691 22.0139 -8.94963
387 1 12.5794 18.8691 22.0139 -8.94963
595 1 20.4415 11.007 17.2966 -8.94963
594 1 17.2966 11.007 17.2966 -8.94967
590 1 4.71727 11.007 17.2966 -8.94967
589 1 1.57242 11.007 17.2966 -8.94963
201 1 6.28969 22.0139 12.5794 -8.94963
351 1 22.0139 12.5794 22.0139 -8.94963
363 1 18.8691 12.5794 22.0139 -8.94963
1 1 1.11633e-10 22.0139 22.0139 -8.94963
530 1 14.1517 17.2966 11.007 -8.95025
532 1 20.4415 17.2966 11.007 -8.94963
