ITEM: TIMESTEP
76
ITEM: NUMBER OF ATOMS
688
ITEM: BOX BOUNDS pp pp pp
0.0000000000000000e+00 2.2013900999999997e+01
0.0000000000000000e+00 2.2013900999999997e+01
0.0000000000000000e+00 2.2013900999999997e+01
ITEM: ATOMS id type x y z c_pot
175 1 18.8704 9.43387 9.43401 -8.9498
2 1 1.57223 1.57237 1.57224 -8.94948
517 1 17.2991 11.0058 11.0062 -8.94744
4 1 4.71699 1.57234 1.57217 -8.94964
174 1 15.7275 9.43259 9.43359 -8.95157
6 1 7.86196 1.57232 1.57216 -8.94961
448 1 20.4419 11.0068 7.86172 -8.94955
8 1 11.007 1.57231 1.57216 -8.9496
9 1 12.5795 4.12955e-05 -5.21188e-05 -8.94962
10 1 14.152 1.5723 1.57216 -8.94962
173 1 12.5902 9.42331 9.43158 -9.01488
12 1 17.2969 1.57231 1.57219 -8.94958
13 1 18.8693 4.39283e-05 -3.03476e-05 -8.94955
14 1 20.4416 1.57236 1.57229 -8.94952
447 1 17.2978 11.0067 7.8615 -8.94933
16 1 1.57223 4.71709 1.57227 -8.9496
17 1 3.14458 3.14465 -2.38081e-05 -8.94957
18 1 4.71686 4.71694 1.57211 -8.94961
446 1 14.153 11.0063 7.86147 -9.00122
20 1 7.86189 4.71689 1.57213 -8.94965
21 1 9.43445 3.14459 -1.10609e-05 -8.94961
22 1 11.007 4.71687 1.5721 -8.94961
23 1 12.5795 3.14458 -2.16052e-05 -8.94962
24 1 14.1521 4.71683 1.57209 -8.94973
444 1 7.85934 11.0069 7.85906 -8.9811
26 1 17.2971 4.71687 1.57211 -8.94944
27 1 18.8693 3.14464 -1.56868e-05 -8.94951
28 1 20.4416 4.71708 1.57228 -8.9496
29 1 -2.51243e-05 6.28953 2.92324e-05 -8.94961
30 1 1.57224 7.86199 1.57229 -8.94962
443 1 4.71631 11.0068 7.86161 -8.95023
32 1 4.71686 7.86192 1.57219 -8.94969
33 1 6.28927 6.28929 -1.76614e-05 -8.94965
34 1 7.86165 7.8616 1.57184 -8.94968
442 1 1.57213 11.0068 7.86174 -8.94964
36 1 11.007 7.86166 1.57184 -8.94947
397 1 14.1527 11.0068 4.7158 -8.94941
38 1 14.1525 7.86143 1.57154 -8.94967
39 1 15.7247 6.2892 -0.000114406 -8.9496
40 1 17.2971 7.86188 1.57213 -8.94969
396 1 11.0076 11.0071 4.70794 -8.96414
42 1 20.4416 7.86198 1.57228 -8.94961
395 1 7.86222 11.0069 4.71621 -8.95055
44 1 3.14455 9.43443 3.93234e-05 -8.9496
350 1 20.4416 11.0069 1.57227 -8.9496
518 1 20.4422 11.0066 11.0067 -8.94968
47 1 12.5797 9.4342 -0.000416401 -8.95004
348 1 14.1524 11.0069 1.57159 -8.94932
49 1 18.8693 9.43444 -9.6658e-06 -8.9496
172 1 9.41111 9.37806 9.4341 -9.24036
51 1 1.57215 1.57236 4.71699 -8.94962
171 1 6.28853 9.43356 9.43392 -9.00217
53 1 4.71658 1.57222 4.71658 -8.94942
54 1 6.28936 0.000116683 3.14434 -8.94961
55 1 7.86179 1.57224 4.71658 -8.94953
170 1 3.14396 9.43391 9.43405 -8.94912
57 1 11.007 1.57221 4.71657 -8.94954
169 1 7.07833e-05 9.43417 9.43418 -8.94965
59 1 14.1523 1.57217 4.71658 -8.94957
60 1 15.7246 9.84025e-05 3.14437 -8.9496
61 1 17.2972 1.5723 4.7168 -8.94951
168 1 18.8699 6.28902 9.43432 -8.94962
63 1 20.4416 1.57236 4.71703 -8.94961
64 1 -4.87426e-05 3.14469 3.14462 -8.94958
65 1 1.5721 4.71698 4.7169 -8.94964
66 1 3.1444 3.14459 3.14441 -8.94937
67 1 4.71633 4.71648 4.71633 -8.94888
68 1 6.28933 3.14454 3.14432 -8.94972
69 1 7.86177 4.71651 4.7164 -8.95
70 1 9.43443 3.14448 3.14433 -8.94958
71 1 11.0071 4.71641 4.71635 -8.94949
72 1 12.5796 3.14446 3.14429 -8.94961
73 1 14.1526 4.71622 4.71628 -8.94972
74 1 15.7247 3.14444 3.14433 -8.9496
75 1 17.2974 4.7167 4.71664 -8.94937
76 1 18.8694 3.14463 3.14454 -8.94952
77 1 20.4417 4.71698 4.71694 -8.9496
78 1 22.0139 6.28951 3.1446 -8.94964
79 1 1.57217 7.86192 4.71689 -8.94964
80 1 3.14444 6.28944 3.14447 -8.94961
81 1 4.71658 7.86168 4.71655 -8.94944
82 1 6.28908 6.28911 3.14398 -8.94979
83 1 7.86136 7.86102 4.71553 -8.95096
84 1 9.43442 6.28902 3.14418 -8.94954
85 1 11.0069 7.86137 4.71596 -8.9498
86 1 12.5796 6.28902 3.14408 -8.94994
87 1 14.1538 7.86008 4.7149 -8.94789
88 1 15.7251 6.28885 3.14389 -8.9491
89 1 17.2976 7.86164 4.71657 -8.94994
90 1 18.8695 6.28939 3.14447 -8.94967
91 1 20.4418 7.8619 4.7169 -8.9497
92 1 -7.93846e-06 9.43444 3.14459 -8.9496
93 1 3.14451 9.43442 3.14451 -8.9496
94 1 6.28924 9.43439 3.14423 -8.94994
95 1 9.43391 9.43366 3.14322 -8.94815
96 1 12.5806 9.43345 3.14238 -8.94956
97 1 15.725 9.43429 3.14412 -8.94971
98 1 18.8695 9.43441 3.14448 -8.9496
99 1 -5.75356e-05 9.04601e-05 6.28948 -8.94961
100 1 1.57214 1.57235 7.86194 -8.94961
101 1 3.14432 0.000145307 6.28933 -8.9496
102 1 4.71655 1.57223 7.86176 -8.94953
167 1 15.7259 6.28789 9.43418 -8.94934
104 1 7.86128 1.57172 7.86129 -8.95005
105 1 9.43434 0.000314122 6.28885 -8.94949
106 1 11.0072 1.57173 7.8613 -8.94968
107 1 12.5799 0.000291618 6.28884 -8.94958
108 1 14.1526 1.57208 7.86148 -8.94975
166 1 12.5814 6.28417 9.43326 -8.94964
110 1 17.2972 1.57224 7.86182 -8.94959
111 1 18.8694 0.000106156 6.2894 -8.94962
112 1 20.4417 1.57234 7.86196 -8.94962
113 1 22.0139 3.14466 6.28947 -8.94963
114 1 1.57211 4.71693 7.86188 -8.94964
115 1 3.1443 3.14455 6.28932 -8.94969
116 1 4.71635 4.71649 7.86169 -8.94985
117 1 6.28858 3.14373 6.28858 -8.94934
118 1 7.86015 4.71356 7.8602 -8.94881
119 1 9.43438 3.14382 6.28882 -8.94935
120 1 11.0079 4.71402 7.86062 -8.94757
121 1 12.58 3.14373 6.28868 -8.94946
122 1 14.1532 4.71524 7.86109 -8.94964
123 1 15.7251 3.14417 6.28898 -8.94952
124 1 17.2975 4.71651 7.86168 -8.94965
125 1 18.8695 3.14455 6.28937 -8.94963
126 1 20.4418 4.71691 7.86188 -8.94963
127 1 -1.84729e-08 6.28937 6.28934 -8.94968
128 1 1.57206 7.86171 7.86172 -8.94974
129 1 3.14408 6.28918 6.28913 -8.9499
130 1 4.71589 7.86121 7.86149 -8.95113
131 1 6.28753 6.28733 6.28745 -8.94691
132 1 7.85641 7.85495 7.85599 -8.97992
133 1 9.4347 6.28779 6.28886 -8.95018
134 1 11.0098 7.85834 7.86028 -9.00052
135 1 12.5806 6.28728 6.28809 -8.95059
136 1 14.1555 7.85828 7.85982 -8.94632
137 1 15.7258 6.28828 6.28845 -8.94868
138 1 17.2983 7.86105 7.86134 -8.94977
139 1 18.8698 6.28915 6.28916 -8.94957
140 1 20.442 7.86167 7.86169 -8.94969
141 1 22.0139 9.43437 6.28931 -8.94967
142 1 3.14429 9.43432 6.28915 -8.94979
143 1 6.28841 9.43391 6.28831 -8.9489
144 1 9.4332 9.43232 6.28849 -9.00406
145 1 12.5845 9.42886 6.28414 -8.98235
146 1 15.7258 9.43392 6.28873 -8.95108
147 1 18.8697 9.4343 6.28918 -8.94977
165 1 9.43285 6.27485 9.43345 -8.96316
164 1 6.2886 6.28766 9.43439 -8.94974
150 1 6.28884 0.00030145 9.43434 -8.94954
163 1 3.14417 6.28903 9.43434 -8.94947
162 1 22.0139 6.28931 9.43436 -8.94965
153 1 15.725 0.000214984 9.43433 -8.94959
161 1 18.8695 3.1445 9.43441 -8.94961
155 1 -3.2576e-05 3.14463 9.43444 -8.94962
156 1 3.14429 3.14449 9.43441 -8.94959
157 1 6.28873 3.14371 9.43434 -8.94927
158 1 9.43406 3.14131 9.43409 -8.95297
159 1 12.5802 3.14288 9.43407 -8.94994
160 1 15.7251 3.14399 9.4343 -8.94952
344 1 1.57225 11.0069 1.57228 -8.94962
345 1 4.71688 11.0069 1.57216 -8.94958
346 1 7.86185 11.0069 1.57194 -8.94953
347 1 11.007 11.007 1.5704 -8.95213
513 1 4.71433 11.0059 11.0065 -8.9491
181 1 17.2973 1.5722 11.007 -8.94958
188 1 17.2976 4.71639 11.007 -8.94956
190 1 1.572 7.86167 11.0069 -8.94973
191 1 4.71582 7.861 11.007 -8.95103
192 1 7.85715 7.85471 11.0126 -8.98047
193 1 11.0098 7.84364 11.0099 -9.0162
512 1 1.57159 11.0066 11.0067 -8.94986
177 1 4.71653 1.57218 11.007 -8.94953
184 1 4.71628 4.71634 11.0071 -8.9497
189 1 20.4418 4.71688 11.0069 -8.94961
7 1 9.43448 4.37732e-05 -4.7819e-05 -8.94961
643 1 17.297 11.0069 20.4417 -8.94958
644 1 20.4416 11.0069 20.4417 -8.94959
178 1 7.8613 1.57158 11.0073 -8.94992
179 1 11.0072 1.57143 11.0073 -8.95087
180 1 14.1526 1.57191 11.0071 -8.94967
639 1 4.71684 11.0069 20.4418 -8.94961
182 1 20.4417 1.57233 11.007 -8.94961
183 1 1.57208 4.71689 11.0069 -8.94961
638 1 1.57221 11.0069 20.4417 -8.94959
185 1 7.8603 4.71333 11.0082 -8.94878
186 1 11.0079 4.71118 11.0081 -8.95203
187 1 14.1531 4.71488 11.0072 -8.9498
48 1 15.7247 9.43438 22.0138 -8.9496
35 1 9.43439 6.28926 22.0139 -8.9496
46 1 9.43427 9.43421 22.0137 -8.94979
45 1 6.28932 9.4344 22.0139 -8.94972
43 1 22.0139 9.43445 22.0139 -8.9496
546 1 20.4422 11.0066 14.1523 -8.94989
194 1 14.155 7.85741 11.0079 -8.94862
195 1 17.2983 7.86086 11.007 -8.94986
196 1 20.442 7.86164 11.0069 -8.94971
197 1 -6.46024e-05 8.79807e-05 12.5795 -8.94961
198 1 1.57212 1.57233 14.152 -8.94963
343 1 18.8694 9.43437 18.8695 -8.94965
200 1 4.71651 1.57211 14.1524 -8.94953
41 1 18.8693 6.28946 22.0139 -8.94964
202 1 7.86151 1.57195 14.1526 -8.94966
203 1 9.43413 0.000520353 12.5801 -8.94977
204 1 11.0071 1.57183 14.1526 -8.94959
205 1 12.5801 0.000470182 12.5801 -8.94987
206 1 14.1526 1.57187 14.1526 -8.94966
37 1 12.5795 6.28925 22.0139 -8.94961
208 1 17.2972 1.57218 14.1521 -8.9496
342 1 15.7248 9.43428 18.8697 -8.94989
210 1 20.4417 1.57232 14.152 -8.94962
211 1 22.0139 3.14463 12.5795 -8.94962
212 1 1.57201 4.71686 14.1521 -8.94969
213 1 3.14423 3.14446 12.5796 -8.94965
214 1 4.71605 4.71612 14.1527 -8.94909
215 1 6.28851 3.1435 12.5802 -8.94943
216 1 7.86104 4.71516 14.1532 -8.94979
217 1 9.43407 3.14278 12.5803 -8.94968
218 1 11.0071 4.71489 14.1532 -8.94958
219 1 12.5804 3.14265 12.5804 -8.94984
220 1 14.1533 4.71493 14.1533 -8.94934
221 1 15.7252 3.14393 12.5798 -8.94959
222 1 17.2976 4.71641 14.1523 -8.94954
223 1 18.8696 3.14448 12.5795 -8.94961
224 1 20.4418 4.71688 14.152 -8.94965
225 1 -2.62445e-05 6.2893 12.5795 -8.94973
226 1 1.57185 7.86163 14.1522 -8.94966
227 1 3.1439 6.289 12.5797 -8.94994
228 1 4.71565 7.8609 14.1528 -8.94971
229 1 6.28717 6.28681 12.5814 -8.94756
230 1 7.85937 7.85804 14.1555 -8.95013
231 1 9.43324 6.28439 12.5815 -8.94853
232 1 11.007 7.85789 14.1545 -8.95119
233 1 12.582 6.2837 12.5821 -8.94869
234 1 14.1554 7.85754 14.1553 -8.94735
235 1 15.7261 6.2878 12.5802 -8.94907
236 1 17.2981 7.86112 14.1524 -8.95041
237 1 18.8699 6.28901 12.5796 -8.94964
238 1 20.4419 7.86168 14.1521 -8.94972
239 1 22.0138 9.43417 12.5795 -8.94968
240 1 3.14344 9.43393 12.5797 -8.94971
241 1 6.28644 9.43287 12.5811 -8.94942
242 1 9.42886 9.42641 12.5864 -9.04949
243 1 12.5873 9.42285 12.5877 -9.02399
244 1 15.7267 9.43334 12.5796 -8.95214
245 1 18.8702 9.43401 12.5795 -8.9496
341 1 12.5799 9.4339 18.8704 -8.95025
247 1 1.57217 1.57233 17.2969 -8.94954
248 1 3.14435 0.000116649 15.7246 -8.94954
249 1 4.7168 1.57224 17.2972 -8.94959
340 1 9.43417 9.43388 18.8705 -8.9501
251 1 7.86183 1.57216 17.2972 -8.94962
252 1 9.43437 8.94486e-05 15.7249 -8.94962
253 1 11.007 1.57212 17.2972 -8.9496
254 1 12.5797 6.32696e-05 15.7249 -8.94962
255 1 14.1521 1.57213 17.2972 -8.94963
339 1 6.28907 9.4342 18.87 -8.94998
257 1 17.2971 1.57222 17.2971 -8.94952
258 1 18.8694 7.33622e-05 15.7245 -8.94961
259 1 20.4416 1.57233 17.2969 -8.94959
260 1 -5.56383e-05 3.14461 15.7245 -8.94962
261 1 1.57211 4.71691 17.297 -8.94963
262 1 3.14425 3.14443 15.7247 -8.94946
263 1 4.7165 4.71653 17.2975 -8.94946
264 1 6.28895 3.14407 15.7251 -8.94964
265 1 7.86162 4.71634 17.2976 -8.94961
266 1 9.43429 3.14389 15.7251 -8.9496
267 1 11.007 4.71628 17.2976 -8.94951
268 1 12.5798 3.14388 15.7252 -8.94965
269 1 14.1524 4.71632 17.2976 -8.94968
270 1 15.7251 3.14401 15.7251 -8.94947
271 1 17.2974 4.71655 17.2974 -8.94933
272 1 18.8695 3.14449 15.7246 -8.9496
273 1 20.4417 4.71692 17.297 -8.94964
274 1 22.0138 6.28931 15.7246 -8.94967
275 1 1.57196 7.86166 17.2972 -8.94954
276 1 3.14404 6.28903 15.7249 -8.94966
277 1 4.71611 7.86122 17.2978 -8.94909
278 1 6.28822 6.28794 15.726 -8.94939
279 1 7.86102 7.8607 17.2986 -8.94923
280 1 9.43406 6.28761 15.726 -8.94973
281 1 11.007 7.86071 17.2985 -8.94903
282 1 12.5801 6.28761 15.726 -8.95015
283 1 14.1531 7.86066 17.2985 -8.94918
284 1 15.7258 6.28793 15.7258 -8.94879
285 1 17.2977 7.86137 17.2976 -8.94924
286 1 18.8698 6.2891 15.7247 -8.94979
287 1 20.4418 7.8617 17.2972 -8.94954
288 1 -0.000102614 9.43415 15.7248 -8.94971
289 1 3.14353 9.43379 15.7253 -8.94946
290 1 6.28716 9.43246 15.7269 -8.94792
291 1 9.43287 9.43123 15.7287 -8.94742
292 1 12.5815 9.43106 15.7287 -8.94814
293 1 15.7264 9.43281 15.7261 -8.94821
294 1 18.8701 9.43388 15.7251 -8.94945
295 1 -4.46762e-05 6.84169e-05 18.8693 -8.94955
296 1 1.57226 1.57235 20.4416 -8.94954
338 1 3.14437 9.43433 18.8696 -8.94963
298 1 4.71702 1.57231 20.4417 -8.94961
299 1 6.28944 5.56029e-05 18.8694 -8.94962
300 1 7.86197 1.57229 20.4417 -8.94961
337 1 22.0138 9.43438 18.8694 -8.94958
302 1 11.007 1.57228 20.4417 -8.9496
336 1 20.4416 7.86194 20.4417 -8.94962
304 1 14.152 1.57228 20.4417 -8.94961
305 1 15.7245 3.175e-05 18.8694 -8.94962
306 1 17.2969 1.57229 20.4416 -8.9496
335 1 18.8695 6.28929 18.8695 -8.9495
308 1 20.4416 1.57235 20.4416 -8.94951
309 1 22.0139 3.14466 18.8693 -8.94959
310 1 1.57222 4.71703 20.4417 -8.94954
311 1 3.14447 3.14455 18.8694 -8.94953
312 1 4.71687 4.71689 20.4418 -8.94957
313 1 6.28934 3.14446 18.8695 -8.94961
314 1 7.86187 4.71684 20.4418 -8.94962
315 1 9.43441 3.14442 18.8696 -8.94958
316 1 11.007 4.71683 20.4418 -8.94961
317 1 12.5795 3.14442 18.8696 -8.94959
318 1 14.1521 4.71683 20.4418 -8.94963
319 1 15.7246 3.14444 18.8695 -8.94962
320 1 17.2971 4.71686 20.4417 -8.94952
321 1 18.8694 3.14456 18.8694 -8.94949
322 1 20.4416 4.71704 20.4417 -8.94955
323 1 -4.7508e-05 6.28938 18.8694 -8.94954
324 1 1.57221 7.86193 20.4417 -8.94961
325 1 3.14433 6.28924 18.8696 -8.94945
326 1 4.71682 7.86183 20.4419 -8.9497
327 1 6.28903 6.28899 18.8699 -8.94952
328 1 7.86168 7.86161 20.442 -8.94973
329 1 9.43432 6.28894 18.8699 -8.94958
330 1 11.007 7.8616 20.442 -8.9496
331 1 12.5797 6.28894 18.8699 -8.94959
332 1 14.1523 7.86159 20.4419 -8.9498
333 1 15.7249 6.28897 18.8699 -8.94947
334 1 17.2971 7.86185 20.4417 -8.94967
545 1 17.2994 11.0057 14.1532 -8.94867
543 1 11.0074 10.9999 14.1667 -9.00232
515 1 11.031 10.9454 11.0376 -9.42611
541 1 4.71401 11.0057 14.1537 -8.94862
540 1 1.57144 11.0066 14.1524 -8.94988
31 1 3.14454 6.28947 22.0139 -8.94963
15 1 22.0139 3.14471 22.0139 -8.94954
19 1 6.28946 3.14461 22.0139 -8.94963
25 1 15.7245 3.14458 22.0139 -8.94965
3 1 3.14463 5.39889e-05 22.0139 -8.94959
176 1 1.57213 1.57234 11.007 -8.9496
688 2 10.1984 11.0157 9.40981 0.803657
511 1 18.8696 18.8696 9.43435 -8.94962
510 1 15.7254 18.8702 9.43423 -8.94982
509 1 12.581 18.8732 9.43307 -8.9495
508 1 9.43316 18.8749 9.43312 -8.95247
507 1 6.28835 18.8708 9.43425 -8.94958
506 1 3.14407 18.8697 9.43434 -8.94959
349 1 17.2971 11.0069 1.57211 -8.9496
352 1 1.57223 14.1519 1.57226 -8.94962
154 1 18.8695 22.014 9.43443 -8.9496
354 1 4.71684 14.1519 1.57212 -8.94966
152 1 12.5801 22.0146 9.43409 -8.95005
356 1 7.86162 14.1523 1.57164 -8.94969
151 1 9.43412 22.0147 9.4341 -8.95096
358 1 11.007 14.1522 1.57157 -8.94943
149 1 3.14432 22.0141 9.43443 -8.94958
360 1 14.1526 14.1524 1.57132 -8.94962
361 1 15.7247 12.5795 -0.000226003 -8.94953
362 1 17.2971 14.152 1.57208 -8.94966
537 1 14.1527 20.4426 11.0071 -8.9495
364 1 20.4416 14.1519 1.57227 -8.94961
148 1 -5.60209e-05 22.014 9.43446 -8.94961
366 1 1.57221 17.2968 1.57224 -8.94962
109 1 15.725 22.0142 6.28903 -8.94954
368 1 4.71682 17.297 1.572 -8.94963
103 1 6.28881 22.0142 6.28881 -8.94962
370 1 7.86187 17.2971 1.57194 -8.94974
371 1 9.43442 15.7246 -0.000208873 -8.94968
372 1 11.007 17.2971 1.57191 -8.94964
373 1 12.5795 15.7246 -0.000271037 -8.94969
374 1 14.1521 17.2971 1.5719 -8.94983
62 1 18.8694 22.014 3.14455 -8.94951
376 1 17.2971 17.297 1.57203 -8.94944
377 1 18.8693 15.7244 -4.00029e-05 -8.94963
378 1 20.4416 17.2968 1.57226 -8.94962
379 1 22.0139 18.8692 1.44835e-06 -8.94959
380 1 1.57221 20.4416 1.57223 -8.9495
58 1 12.5796 22.014 3.14434 -8.94959
382 1 4.71696 20.4417 1.57212 -8.94963
383 1 6.28945 18.8693 -7.90926e-05 -8.94967
384 1 7.86195 20.4417 1.5721 -8.94961
56 1 9.43445 22.014 3.14435 -8.94959
386 1 11.007 20.4417 1.5721 -8.9496
52 1 3.14442 22.014 3.14442 -8.94943
388 1 14.152 20.4417 1.5721 -8.94962
389 1 15.7245 18.8694 -9.98552e-05 -8.94968
390 1 17.297 20.4417 1.57214 -8.94958
50 1 22.0138 22.014 3.14463 -8.94957
392 1 20.4416 20.4416 1.57228 -8.94957
393 1 1.57219 11.0069 4.71688 -8.94956
394 1 4.71675 11.0069 4.71661 -8.94912
505 1 -7.87292e-05 18.8694 9.43438 -8.94961
504 1 18.8703 15.725 9.43403 -8.9496
503 1 15.727 15.7262 9.43344 -8.95013
398 1 17.2974 11.0069 4.71661 -8.94941
399 1 20.4417 11.0069 4.71689 -8.94961
400 1 -1.60736e-05 12.5794 3.14458 -8.9496
401 1 1.57211 14.1519 4.71686 -8.94962
402 1 3.14449 12.5794 3.14449 -8.9496
403 1 4.71646 14.1521 4.71649 -8.94946
404 1 6.28918 12.5794 3.14417 -8.94987
405 1 7.86109 14.153 4.71518 -8.95094
406 1 9.43386 12.5803 3.14304 -8.94814
407 1 11.0069 14.1526 4.71556 -8.9498
408 1 12.5806 12.5805 3.14213 -8.94968
409 1 14.1541 14.1538 4.71461 -8.94749
410 1 15.725 12.5795 3.1441 -8.94965
411 1 17.2976 14.1521 4.71659 -8.94998
412 1 18.8695 12.5794 3.14449 -8.94959
413 1 20.4417 14.1519 4.7169 -8.94968
414 1 22.0139 15.7244 3.14457 -8.94964
415 1 1.57202 17.2969 4.71682 -8.94968
416 1 3.14438 15.7244 3.1444 -8.94962
417 1 4.71614 17.2976 4.71611 -8.94887
418 1 6.28896 15.7248 3.14376 -8.94976
419 1 7.86153 17.2977 4.71592 -8.95024
420 1 9.43438 15.7249 3.14386 -8.94971
421 1 11.0071 17.2978 4.71598 -8.9493
422 1 12.5797 15.7249 3.14375 -8.95014
423 1 14.1528 17.2979 4.71582 -8.94999
424 1 15.7252 15.725 3.14374 -8.94897
425 1 17.2974 17.2972 4.71657 -8.94952
426 1 18.8695 15.7245 3.14445 -8.94969
427 1 20.4417 17.2969 4.7169 -8.94965
428 1 -7.46926e-05 18.8693 3.14457 -8.94961
429 1 1.57211 20.4417 4.71691 -8.94959
430 1 3.14433 18.8694 3.14433 -8.9494
431 1 4.71647 20.442 4.71645 -8.94929
432 1 6.28922 18.8696 3.14411 -8.94975
433 1 7.86173 20.442 4.71644 -8.94959
434 1 9.43442 18.8696 3.14415 -8.94958
435 1 11.0071 20.4421 4.71646 -8.94954
436 1 12.5796 18.8696 3.14412 -8.94959
437 1 14.1524 20.442 4.71645 -8.94964
438 1 15.7248 18.8696 3.14414 -8.94962
439 1 17.2973 20.4419 4.71669 -8.94937
440 1 18.8694 18.8693 3.1445 -8.9496
441 1 20.4417 20.4417 4.71697 -8.94958
502 1 12.5862 15.7336 9.42824 -8.98071
501 1 9.42775 15.7432 9.42879 -8.99662
500 1 6.28678 15.7271 9.43362 -8.95008
445 1 11.0326 11.0085 7.8151 -9.27107
499 1 3.14343 15.7251 9.43403 -8.94943
498 1 22.0138 15.7247 9.4342 -8.94974
497 1 18.8702 12.5794 9.43422 -8.94973
449 1 22.0139 12.5794 6.28931 -8.94967
450 1 1.57193 14.152 7.86172 -8.94983
451 1 3.14418 12.5794 6.28915 -8.94971
452 1 4.7155 14.1525 7.86143 -8.95161
453 1 6.28817 12.5798 6.28834 -8.94855
454 1 7.8553 14.1593 7.8552 -8.98068
455 1 9.43274 12.5821 6.28811 -9.00375
456 1 11.0098 14.1555 7.85941 -9.05533
457 1 12.585 12.5853 6.28337 -8.98176
458 1 14.1553 14.1542 7.85978 -8.94749
459 1 15.7258 12.5795 6.28883 -8.95093
460 1 17.2981 14.1523 7.86143 -8.95014
461 1 18.8697 12.5794 6.28921 -8.9497
462 1 20.4419 14.152 7.86173 -8.94975
463 1 -7.26332e-05 15.7244 6.2893 -8.94974
464 1 1.57187 17.2972 7.86168 -8.94961
465 1 3.14388 15.7247 6.28901 -8.94999
466 1 4.71566 17.2979 7.86127 -8.94977
467 1 6.28709 15.7268 6.28703 -8.94675
468 1 7.85858 17.3021 7.85871 -8.94665
469 1 9.43445 15.7266 6.28791 -8.95161
470 1 11.0079 17.3009 7.86012 -8.9476
471 1 12.5809 15.727 6.28711 -8.95223
472 1 14.1547 17.3 7.85961 -8.94707
473 1 15.7258 15.7253 6.2884 -8.94901
474 1 17.298 17.2976 7.86135 -8.94969
475 1 18.8698 15.7246 6.28915 -8.94967
476 1 20.4419 17.2971 7.86171 -8.94964
477 1 22.0138 18.8694 6.28934 -8.94961
478 1 1.57208 20.4418 7.86189 -8.94961
479 1 3.14407 18.8696 6.28911 -8.94962
480 1 4.7164 20.4421 7.86167 -8.94961
481 1 6.28809 18.8709 6.28808 -8.94872
482 1 7.86094 20.4434 7.86095 -8.94989
483 1 9.43428 18.8707 6.28845 -8.94949
484 1 11.0072 20.4432 7.86111 -8.94943
485 1 12.5801 18.8707 6.28834 -8.94964
486 1 14.1529 20.4428 7.86115 -8.94956
487 1 15.7255 18.8703 6.28855 -8.94884
488 1 17.2973 20.4419 7.86176 -8.94968
489 1 18.8697 18.8695 6.28921 -8.94959
490 1 20.4417 20.4417 7.86191 -8.94962
491 1 -1.26586e-05 12.5794 9.43423 -8.94957
492 1 3.14382 12.5794 9.43425 -8.94924
493 1 6.28806 12.5796 9.43478 -9.00384
494 1 9.40973 12.6353 9.43408 -9.24859
495 1 12.5884 12.5848 9.43142 -9.01873
496 1 15.7269 12.5796 9.4344 -8.95194
536 1 11.0072 20.4448 11.0072 -8.95291
5 1 6.28951 22.0139 -4.99144e-05 -8.94962
516 1 14.1534 11.0034 11.0034 -9.05059
519 1 1.57146 14.1522 11.0067 -8.94995
520 1 4.71387 14.1533 11.0064 -8.9498
521 1 7.85401 14.161 11.0107 -9.03241
522 1 11.0093 14.2132 10.9849 -9.2616
523 1 14.156 14.1562 11.0051 -9.00055
524 1 17.2994 14.153 11.0062 -8.94839
525 1 20.4422 14.1522 11.0067 -8.94986
527 1 4.71576 17.298 11.007 -8.94956
535 1 7.86118 20.4432 11.0073 -8.94981
531 1 17.2978 17.2976 11.0069 -8.9495
353 1 3.14454 12.5794 1.44564e-05 -8.94959
687 2 11.0003 12.608 11.7883 0.793034
686 1 20.4416 20.4416 20.4416 -8.94949
514 1 7.85601 11.0039 11.0097 -9.0345
685 1 18.8694 18.8694 18.8694 -8.9494
307 1 18.8693 22.014 18.8693 -8.94954
684 1 17.2969 20.4417 20.4416 -8.94961
683 1 15.7246 18.8694 18.8695 -8.94961
303 1 12.5795 22.0139 18.8694 -8.94959
301 1 9.43446 22.0139 18.8694 -8.94959
297 1 3.14455 22.014 18.8694 -8.94957
256 1 15.7249 22.014 15.7249 -8.94954
250 1 6.28911 22.0141 15.7249 -8.9496
246 1 22.0138 22.014 15.7244 -8.94961
209 1 18.8695 22.014 12.5795 -8.9496
526 1 1.57185 17.2972 11.0069 -8.94958
199 1 3.14431 22.014 12.5796 -8.94957
528 1 7.85989 17.3015 11.0083 -8.94953
529 1 11.0078 17.3111 11.0073 -8.96507
671 1 18.8694 15.7244 18.8694 -8.94969
670 1 17.297 17.297 20.4417 -8.94963
669 1 15.7247 15.7246 18.8696 -8.94994
533 1 1.57208 20.4418 11.007 -8.94959
534 1 4.71641 20.4421 11.0071 -8.9495
668 1 14.152 17.297 20.4417 -8.94969
667 1 12.5796 15.7247 18.8696 -8.94987
666 1 11.007 17.297 20.4416 -8.9496
538 1 17.2973 20.4419 11.007 -8.94957
539 1 20.4417 20.4417 11.0069 -8.94961
682 1 14.152 20.4417 20.4416 -8.94963
681 1 12.5795 18.8694 18.8695 -8.94961
542 1 7.85669 11.0013 14.1581 -8.98079
680 1 11.007 20.4417 20.4416 -8.94962
544 1 14.1561 11.0017 14.1557 -8.9803
679 1 9.43445 18.8694 18.8695 -8.9496
678 1 7.86198 20.4417 20.4417 -8.94963
547 1 22.0138 12.5794 12.5795 -8.95057
548 1 1.57138 14.1522 14.1524 -8.94996
549 1 3.14179 12.5794 12.5798 -8.95271
550 1 4.71374 14.1533 14.1537 -8.94898
551 1 6.27707 12.5799 12.5815 -8.9636
552 1 7.85539 14.1582 14.1583 -8.98244
553 1 9.38134 12.5801 12.6029 -9.2679
554 1 11.0068 14.1559 14.1555 -8.98233
555 1 12.6306 12.5813 12.6007 -9.24385
556 1 14.1578 14.1576 14.1567 -8.98056
557 1 15.7354 12.5791 12.5796 -8.96512
558 1 17.2995 14.153 14.1531 -8.94941
559 1 18.8716 12.5793 12.5795 -8.95256
560 1 20.4422 14.1522 14.1523 -8.94998
561 1 -0.000142924 15.7246 12.5795 -8.94972
562 1 1.57182 17.2972 14.1522 -8.94965
563 1 3.14325 15.725 12.5797 -8.94983
564 1 4.71565 17.298 14.1529 -8.94922
565 1 6.28585 15.7271 12.5814 -8.94759
566 1 7.86046 17.2993 14.1535 -8.95047
567 1 9.43149 15.7288 12.5825 -9.00105
568 1 11.0071 17.2988 14.1524 -8.95031
569 1 12.5832 15.7289 12.5827 -9.00017
570 1 14.1537 17.2991 14.1533 -8.94987
571 1 15.7266 15.7254 12.5797 -8.94974
572 1 17.2977 17.2975 14.1523 -8.94985
573 1 18.8702 15.7248 12.5795 -8.94954
574 1 20.4418 17.2971 14.1521 -8.94963
575 1 22.0138 18.8694 12.5795 -8.94961
576 1 1.57207 20.4418 14.152 -8.94962
577 1 3.14403 18.8697 12.5796 -8.94963
578 1 4.71641 20.4421 14.1524 -8.94954
579 1 6.28816 18.8708 12.5803 -8.9494
580 1 7.86133 20.4426 14.1527 -8.94953
581 1 9.43338 18.8723 12.5807 -8.94788
582 1 11.0071 20.4424 14.1525 -8.94948
583 1 12.581 18.8722 12.5808 -8.94796
584 1 14.1528 20.4425 14.1527 -8.94949
585 1 15.7254 18.8701 12.5797 -8.94954
586 1 17.2973 20.4419 14.1522 -8.94963
587 1 18.8696 18.8695 12.5795 -8.94961
588 1 20.4417 20.4417 14.152 -8.94962
677 1 6.28934 18.8695 18.8696 -8.94961
676 1 4.71702 20.4417 20.4417 -8.94962
591 1 7.86152 11.0068 17.2983 -8.95121
592 1 11.007 11.0065 17.2998 -8.9538
593 1 14.1524 11.0069 17.2976 -8.95072
675 1 3.14441 18.8695 18.8695 -8.9494
674 1 1.57224 20.4417 20.4416 -8.9495
596 1 -0.000134642 12.5794 15.7248 -8.94955
597 1 1.572 14.152 17.2972 -8.94952
598 1 3.14366 12.5794 15.7251 -8.94925
599 1 4.71641 14.1521 17.2976 -8.94974
600 1 6.28798 12.5794 15.7255 -8.94956
601 1 7.86139 14.1523 17.2981 -8.95137
602 1 9.43433 12.58 15.7251 -9.00022
603 1 11.007 14.1522 17.2976 -8.9503
604 1 12.5795 12.58 15.7244 -8.99944
605 1 14.1525 14.1522 17.2976 -8.95113
606 1 15.7254 12.5792 15.7246 -8.94968
607 1 17.2972 14.152 17.2972 -8.94984
608 1 18.8699 12.5794 15.7248 -8.94924
609 1 20.4417 14.152 17.2971 -8.94952
610 1 22.0138 15.7247 15.7248 -8.94973
611 1 1.57197 17.2971 17.2972 -8.94952
612 1 3.14349 15.7251 15.7253 -8.94945
613 1 4.71623 17.2976 17.2978 -8.94897
614 1 6.28711 15.7265 15.7269 -8.94744
615 1 7.86158 17.2975 17.2977 -8.94945
616 1 9.43395 15.7261 15.7261 -8.94893
617 1 11.007 17.2974 17.2974 -8.94908
618 1 12.5801 15.7259 15.7259 -8.94935
619 1 14.1524 17.2974 17.2975 -8.94949
620 1 15.7264 15.7262 15.7262 -8.94736
621 1 17.2975 17.2974 17.2975 -8.94899
622 1 18.8701 15.7249 15.725 -8.94955
623 1 20.4417 17.2971 17.2971 -8.94954
624 1 -0.000105215 18.8694 15.7245 -8.94962
625 1 1.57214 20.4417 17.297 -8.94955
626 1 3.14413 18.8697 15.7248 -8.94949
627 1 4.71676 20.4419 17.2972 -8.94958
628 1 6.28878 18.8702 15.7253 -8.94967
629 1 7.86185 20.4418 17.2973 -8.94965
630 1 9.43434 18.87 15.7251 -8.94988
631 1 11.007 20.4418 17.2972 -8.94956
632 1 12.5797 18.87 15.7251 -8.94994
633 1 14.1521 20.4418 17.2972 -8.94966
634 1 15.7251 18.8701 15.7251 -8.94949
635 1 17.2971 20.4418 17.2971 -8.94952
636 1 18.8695 18.8695 15.7246 -8.94968
637 1 20.4416 20.4417 17.2969 -8.94961
11 1 15.7244 22.0139 22.0139 -8.94962
673 1 22.0138 18.8694 18.8694 -8.94951
640 1 7.86178 11.0069 20.4419 -8.94969
641 1 11.007 11.0069 20.4418 -8.9506
642 1 14.1522 11.007 20.4416 -8.94961
672 1 20.4416 17.2968 20.4416 -8.94963
391 1 18.8693 18.8693 22.0139 -8.94954
645 1 22.0138 12.5794 18.8694 -8.94958
646 1 1.57222 14.1519 20.4417 -8.94959
647 1 3.14438 12.5794 18.8695 -8.94957
648 1 4.71686 14.152 20.4418 -8.94962
649 1 6.28909 12.5795 18.8697 -8.94946
650 1 7.86177 14.1521 20.4417 -8.94981
651 1 9.43424 12.5796 18.8697 -8.94907
652 1 11.007 14.152 20.4415 -8.94968
653 1 12.5798 12.5796 18.8695 -8.94902
654 1 14.1522 14.1521 20.4415 -8.9498
655 1 15.7248 12.5795 18.8694 -8.94936
656 1 17.297 14.1519 20.4416 -8.94958
657 1 18.8694 12.5794 18.8694 -8.94959
658 1 20.4416 14.1519 20.4416 -8.94959
659 1 -7.08871e-05 15.7244 18.8694 -8.94958
660 1 1.57223 17.2968 20.4417 -8.94962
661 1 3.14441 15.7245 18.8696 -8.94966
662 1 4.71688 17.297 20.4418 -8.94968
663 1 6.28913 15.7247 18.8699 -8.95
664 1 7.86191 17.297 20.4417 -8.94968
665 1 9.43441 15.7247 18.8697 -8.94985
207 1 15.725 22.014 12.5797 -8.9496
355 1 6.28931 12.5795 22.0139 -8.94965
357 1 9.43427 12.5796 22.0135 -8.94959
359 1 12.5797 12.5797 22.0132 -8.94983
365 1 -3.39106e-05 15.7243 22.0139 -8.9496
367 1 3.14455 15.7244 22.0139 -8.94963
369 1 6.28929 15.7246 22.0138 -8.94973
375 1 15.7247 15.7246 22.0136 -8.94963
381 1 3.14456 18.8693 22.0139 -8.9496
385 1 9.43446 18.8694 22.0138 -8.94962
387 1 12.5795 18.8694 22.0138 -8.94962
595 1 20.4417 11.0069 17.2971 -8.94952
594 1 17.2973 11.0068 17.2973 -8.94972
590 1 4.7164 11.0068 17.2976 -8.94964
589 1 1.572 11.0068 17.2972 -8.94951
201 1 6.28883 22.0141 12.5799 -8.94968
351 1 22.0139 12.5794 22.0139 -8.9496
363 1 18.8693 12.5794 22.0139 -8.9496
1 1 -4.15091e-05 22.0139 22.0139 -8.94949
530 1 14.1533 17.2994 11.0072 -8.9502
532 1 20.4418 17.2971 11.0069 -8.9496
