ITEM: TIMESTEP
13
ITEM: NUMBER OF ATOMS
688
ITEM: BOX BOUNDS pp pp pp
0.0000000000000000e+00 2.2013900999999997e+01
0.0000000000000000e+00 2.2013900999999997e+01
0.0000000000000000e+00 2.2013900999999997e+01
ITEM: ATOMS id type x y z c_pot
175 1 18.8691 9.43453 9.43453 -8.94963
2 1 1.57242 1.57242 1.57242 -8.94963
3 1 3.14484 8.09442e-15 8.77053e-15 -8.94963
4 1 4.71726 1.57242 1.57242 -8.94963
174 1 15.7242 9.43453 9.43453 -8.94993
6 1 7.86211 1.57242 1.57242 -8.94963
448 1 20.4415 11.007 7.86211 -8.94963
8 1 11.007 1.57242 1.57242 -8.94963
9 1 12.5794 1.88562e-12 2.52442e-12 -8.94963
10 1 14.1518 1.57242 1.57242 -8.94963
173 1 12.5803 9.43414 9.43468 -9.02995
12 1 17.2966 1.57242 1.57242 -8.94963
13 1 18.8691 8.03648e-15 4.03138e-14 -8.94963
14 1 20.4415 1.57242 1.57242 -8.94963
447 1 17.2966 11.007 7.86211 -8.94956
16 1 1.57242 4.71726 1.57242 -8.94963
17 1 3.14484 3.14484 1.4424e-12 -8.94963
18 1 4.71726 4.71726 1.57242 -8.94963
446 1 14.1515 11.0069 7.86226 -8.99594
20 1 7.86211 4.71726 1.57242 -8.94963
21 1 9.43453 3.14484 3.01515e-11 -8.94963
22 1 11.007 4.71726 1.57242 -8.94963
23 1 12.5794 3.14484 6.79293e-11 -8.94963
24 1 14.1518 4.71726 1.57242 -8.94963
444 1 7.86113 11.0069 7.86147 -8.98549
26 1 17.2966 4.71726 1.57242 -8.94963
27 1 18.8691 3.14484 4.36531e-13 -8.94963
28 1 20.4415 4.71726 1.57242 -8.94963
29 1 2.61999e-13 6.28969 1.29831e-13 -8.94963
30 1 1.57242 7.86211 1.57242 -8.94963
443 1 4.71726 11.007 7.86211 -8.94993
32 1 4.71726 7.86211 1.57242 -8.94963
33 1 6.28969 6.28969 1.64298e-10 -8.94963
34 1 7.86211 7.86211 1.57242 -8.94963
442 1 1.57242 11.007 7.86211 -8.94963
36 1 11.007 7.86211 1.57242 -8.94963
397 1 14.1518 11.007 4.71727 -8.94981
38 1 14.1518 7.86211 1.57242 -8.94963
39 1 15.7242 6.28969 2.56585e-10 -8.94963
40 1 17.2966 7.86211 1.57242 -8.94963
396 1 11.0069 11.007 4.71718 -8.9514
42 1 20.4415 7.86211 1.57242 -8.94963
395 1 7.8621 11.007 4.71726 -8.94984
44 1 3.14484 9.43453 4.98835e-11 -8.94963
350 1 20.4415 11.007 1.57242 -8.94963
349 1 17.2966 11.007 1.57242 -8.94963
47 1 12.5794 9.43453 7.594e-09 -8.94963
348 1 14.1518 11.007 1.57242 -8.94963
49 1 18.8691 9.43453 9.32024e-11 -8.94963
172 1 9.43155 9.42871 9.43469 -9.29208
51 1 1.57242 1.57242 4.71726 -8.94963
171 1 6.28995 9.43469 9.43453 -8.99616
53 1 4.71726 1.57242 4.71726 -8.94963
54 1 6.28969 4.45263e-12 3.14484 -8.94963
55 1 7.86211 1.57242 4.71726 -8.94963
170 1 3.14484 9.43453 9.43453 -8.94956
57 1 11.007 1.57242 4.71726 -8.94963
169 1 1.28426e-08 9.43453 9.43453 -8.94963
59 1 14.1518 1.57242 4.71726 -8.94963
60 1 15.7242 4.40752e-12 3.14484 -8.94963
61 1 17.2966 1.57242 4.71726 -8.94963
168 1 18.8691 6.28969 9.43453 -8.94963
63 1 20.4415 1.57242 4.71726 -8.94963
64 1 2.06055e-12 3.14484 3.14484 -8.94963
65 1 1.57242 4.71726 4.71726 -8.94963
66 1 3.14484 3.14484 3.14484 -8.94963
67 1 4.71726 4.71726 4.71726 -8.94963
68 1 6.28969 3.14484 3.14484 -8.94963
69 1 7.86211 4.71726 4.71726 -8.94963
70 1 9.43453 3.14484 3.14484 -8.94963
71 1 11.007 4.71726 4.71726 -8.94963
72 1 12.5794 3.14484 3.14484 -8.94963
73 1 14.1518 4.71726 4.71726 -8.94963
74 1 15.7242 3.14484 3.14484 -8.94963
75 1 17.2966 4.71726 4.71726 -8.94963
76 1 18.8691 3.14484 3.14484 -8.94963
77 1 20.4415 4.71726 4.71726 -8.94963
78 1 22.0139 6.28969 3.14484 -8.94963
79 1 1.57242 7.86211 4.71726 -8.94963
80 1 3.14484 6.28969 3.14484 -8.94963
81 1 4.71726 7.86211 4.71726 -8.94963
82 1 6.28969 6.28969 3.14484 -8.94963
83 1 7.86211 7.86211 4.71727 -8.94964
84 1 9.43453 6.28969 3.14484 -8.94963
85 1 11.007 7.86211 4.71726 -8.94975
86 1 12.5794 6.28969 3.14484 -8.94963
87 1 14.1518 7.86211 4.71727 -8.9497
88 1 15.7242 6.28969 3.14484 -8.94963
89 1 17.2966 7.86211 4.71726 -8.94963
90 1 18.8691 6.28969 3.14484 -8.94963
91 1 20.4415 7.86211 4.71726 -8.94963
92 1 7.6427e-11 9.43453 3.14484 -8.94963
93 1 3.14484 9.43453 3.14484 -8.94963
94 1 6.28969 9.43453 3.14484 -8.94963
95 1 9.43453 9.43453 3.14484 -8.9496
96 1 12.5794 9.43453 3.14484 -8.94956
97 1 15.7242 9.43453 3.14484 -8.94963
98 1 18.8691 9.43453 3.14484 -8.94963
99 1 4.14986e-13 1.33476e-13 6.28969 -8.94963
100 1 1.57242 1.57242 7.86211 -8.94963
101 1 3.14484 5.2947e-12 6.28969 -8.94963
102 1 4.71726 1.57242 7.86211 -8.94963
167 1 15.7242 6.28969 9.43453 -8.94965
104 1 7.86211 1.57242 7.86211 -8.94963
105 1 9.43453 6.97362e-11 6.28969 -8.94963
106 1 11.007 1.57242 7.86211 -8.94963
107 1 12.5794 6.78126e-11 6.28969 -8.94963
108 1 14.1518 1.57242 7.86211 -8.94963
166 1 12.5794 6.28968 9.43453 -8.94977
110 1 17.2966 1.57242 7.86211 -8.94963
111 1 18.8691 5.26003e-12 6.28969 -8.94963
112 1 20.4415 1.57242 7.86211 -8.94963
113 1 22.0139 3.14484 6.28969 -8.94963
114 1 1.57242 4.71726 7.86211 -8.94963
115 1 3.14484 3.14484 6.28969 -8.94963
116 1 4.71726 4.71726 7.86211 -8.94963
117 1 6.28969 3.14484 6.28969 -8.94963
118 1 7.86211 4.71727 7.86211 -8.94956
119 1 9.43453 3.14484 6.28969 -8.94963
120 1 11.007 4.71726 7.86211 -8.9496
121 1 12.5794 3.14484 6.28969 -8.94963
122 1 14.1518 4.71726 7.86211 -8.94963
123 1 15.7242 3.14484 6.28969 -8.94963
124 1 17.2966 4.71726 7.86211 -8.94963
125 1 18.8691 3.14484 6.28969 -8.94963
126 1 20.4415 4.71726 7.86211 -8.94963
127 1 3.85136e-10 6.28969 6.28969 -8.94963
128 1 1.57242 7.86211 7.86211 -8.94963
129 1 3.14484 6.28969 6.28969 -8.94963
130 1 4.71727 7.86211 7.86211 -8.94968
131 1 6.28969 6.28969 6.28969 -8.9497
132 1 7.86224 7.86233 7.86216 -8.99408
133 1 9.43453 6.28968 6.28968 -8.94975
134 1 11.007 7.86216 7.86215 -9.00639
135 1 12.5794 6.28969 6.28969 -8.94963
136 1 14.1518 7.8621 7.8621 -8.9495
137 1 15.7242 6.28969 6.28969 -8.94963
138 1 17.2966 7.86211 7.86211 -8.94963
139 1 18.8691 6.28969 6.28969 -8.94963
140 1 20.4415 7.86211 7.86211 -8.94963
141 1 22.0139 9.43453 6.28969 -8.94963
142 1 3.14484 9.43453 6.28969 -8.94963
143 1 6.28968 9.43452 6.28968 -8.94942
144 1 9.4345 9.43457 6.28974 -9.00627
145 1 12.5792 9.43458 6.28991 -8.99404
146 1 15.7242 9.43453 6.28969 -8.94967
147 1 18.8691 9.43453 6.28969 -8.94963
165 1 9.43454 6.2896 9.43453 -8.9514
164 1 6.28969 6.28969 9.43453 -8.94981
150 1 6.28969 2.64937e-10 9.43453 -8.94963
163 1 3.14484 6.28969 9.43453 -8.94963
162 1 22.0139 6.28969 9.43453 -8.94963
153 1 15.7242 2.64073e-10 9.43453 -8.94963
161 1 18.8691 3.14484 9.43453 -8.94963
155 1 7.81287e-11 3.14484 9.43453 -8.94963
156 1 3.14484 3.14484 9.43453 -8.94963
157 1 6.28969 3.14484 9.43453 -8.94963
158 1 9.43453 3.14484 9.43453 -8.94965
159 1 12.5794 3.14484 9.43453 -8.94964
160 1 15.7242 3.14484 9.43453 -8.94963
344 1 1.57242 11.007 1.57242 -8.94963
345 1 4.71726 11.007 1.57242 -8.94963
346 1 7.86211 11.007 1.57242 -8.94964
347 1 11.007 11.007 1.57242 -8.94965
176 1 1.57242 1.57242 11.007 -8.94963
181 1 17.2966 1.57242 11.007 -8.94963
188 1 17.2966 4.71726 11.007 -8.94963
190 1 1.57242 7.86211 11.007 -8.94963
191 1 4.71727 7.86211 11.0069 -8.94967
192 1 7.86224 7.86233 11.0069 -8.9941
193 1 11.007 7.8621 11.0069 -9.00816
512 1 1.57242 11.007 11.007 -8.94963
513 1 4.71726 11.007 11.0069 -8.94989
517 1 17.2966 11.007 11.007 -8.94952
518 1 20.4415 11.007 11.007 -8.94963
643 1 17.2966 11.007 20.4415 -8.94963
177 1 4.71726 1.57242 11.007 -8.94963
178 1 7.86211 1.57242 11.007 -8.94963
179 1 11.007 1.57242 11.007 -8.94963
180 1 14.1518 1.57242 11.007 -8.94963
639 1 4.71726 11.007 20.4415 -8.94963
182 1 20.4415 1.57242 11.007 -8.94963
183 1 1.57242 4.71726 11.007 -8.94963
184 1 4.71726 4.71726 11.007 -8.94963
185 1 7.86211 4.71727 11.007 -8.94956
186 1 11.007 4.71726 11.007 -8.94962
187 1 14.1518 4.71726 11.007 -8.94963
595 1 20.4415 11.007 17.2966 -8.94963
189 1 20.4415 4.71726 11.007 -8.94963
594 1 17.2966 11.007 17.2966 -8.94963
590 1 4.71726 11.007 17.2966 -8.94963
589 1 1.57242 11.007 17.2966 -8.94963
546 1 20.4415 11.007 14.1518 -8.94963
194 1 14.1518 7.8621 11.007 -8.94957
195 1 17.2966 7.86211 11.007 -8.94963
196 1 20.4415 7.86211 11.007 -8.94963
197 1 4.12908e-13 2.31775e-12 12.5794 -8.94963
198 1 1.57242 1.57242 14.1518 -8.94963
343 1 18.8691 9.43453 18.8691 -8.94963
200 1 4.71726 1.57242 14.1518 -8.94963
201 1 6.28969 2.67184e-10 12.5794 -8.94963
202 1 7.86211 1.57242 14.1518 -8.94963
203 1 9.43453 2.63538e-09 12.5794 -8.94963
204 1 11.007 1.57242 14.1518 -8.94963
205 1 12.5794 2.63747e-09 12.5794 -8.94963
206 1 14.1518 1.57242 14.1518 -8.94963
207 1 15.7242 2.67237e-10 12.5794 -8.94963
208 1 17.2966 1.57242 14.1518 -8.94963
342 1 15.7242 9.43453 18.8691 -8.94963
210 1 20.4415 1.57242 14.1518 -8.94963
211 1 22.0139 3.14484 12.5794 -8.94963
212 1 1.57242 4.71726 14.1518 -8.94963
213 1 3.14484 3.14484 12.5794 -8.94963
214 1 4.71726 4.71726 14.1518 -8.94963
215 1 6.28969 3.14484 12.5794 -8.94963
216 1 7.86211 4.71726 14.1518 -8.94963
217 1 9.43453 3.14484 12.5794 -8.94963
218 1 11.007 4.71726 14.1518 -8.94963
219 1 12.5794 3.14484 12.5794 -8.94963
220 1 14.1518 4.71726 14.1518 -8.94963
221 1 15.7242 3.14484 12.5794 -8.94963
222 1 17.2966 4.71726 14.1518 -8.94963
223 1 18.8691 3.14484 12.5794 -8.94963
224 1 20.4415 4.71726 14.1518 -8.94963
225 1 3.85437e-10 6.28969 12.5794 -8.94963
226 1 1.57242 7.86211 14.1518 -8.94963
227 1 3.14484 6.28969 12.5794 -8.94963
228 1 4.71726 7.86211 14.1518 -8.94962
229 1 6.28969 6.28969 12.5794 -8.94969
230 1 7.86211 7.86211 14.1518 -8.94965
231 1 9.43453 6.28968 12.5794 -8.94972
232 1 11.007 7.8621 14.1518 -8.94999
233 1 12.5794 6.28969 12.5794 -8.9496
234 1 14.1518 7.86211 14.1518 -8.94971
235 1 15.7242 6.28969 12.5794 -8.94962
236 1 17.2966 7.86211 14.1518 -8.94963
237 1 18.8691 6.28969 12.5794 -8.94963
238 1 20.4415 7.86211 14.1518 -8.94963
239 1 22.0139 9.43453 12.5794 -8.94963
240 1 3.14484 9.43453 12.5794 -8.94963
241 1 6.28968 9.43452 12.5794 -8.94955
242 1 9.43456 9.43464 12.5793 -9.06261
243 1 12.5792 9.43465 12.5792 -9.05024
244 1 15.7242 9.43453 12.5794 -8.9498
245 1 18.8691 9.43453 12.5794 -8.94963
341 1 12.5794 9.43453 18.8691 -8.94963
247 1 1.57242 1.57242 17.2966 -8.94963
248 1 3.14484 1.2339e-11 15.7242 -8.94963
249 1 4.71726 1.57242 17.2966 -8.94963
340 1 9.43453 9.43453 18.8691 -8.94963
251 1 7.86211 1.57242 17.2966 -8.94963
252 1 9.43453 9.34729e-10 15.7242 -8.94963
253 1 11.007 1.57242 17.2966 -8.94963
254 1 12.5794 9.34524e-10 15.7242 -8.94963
255 1 14.1518 1.57242 17.2966 -8.94963
339 1 6.28969 9.43453 18.8691 -8.94963
257 1 17.2966 1.57242 17.2966 -8.94963
258 1 18.8691 1.23353e-11 15.7242 -8.94963
259 1 20.4415 1.57242 17.2966 -8.94963
260 1 2.06242e-12 3.14484 15.7242 -8.94963
261 1 1.57242 4.71726 17.2966 -8.94963
262 1 3.14484 3.14484 15.7242 -8.94963
263 1 4.71726 4.71726 17.2966 -8.94963
264 1 6.28969 3.14484 15.7242 -8.94963
265 1 7.86211 4.71726 17.2966 -8.94963
266 1 9.43453 3.14484 15.7242 -8.94963
267 1 11.007 4.71726 17.2966 -8.94963
268 1 12.5794 3.14484 15.7242 -8.94963
269 1 14.1518 4.71726 17.2966 -8.94963
270 1 15.7242 3.14484 15.7242 -8.94963
271 1 17.2966 4.71726 17.2966 -8.94963
272 1 18.8691 3.14484 15.7242 -8.94963
273 1 20.4415 4.71726 17.2966 -8.94963
274 1 22.0139 6.28969 15.7242 -8.94963
275 1 1.57242 7.86211 17.2966 -8.94963
276 1 3.14484 6.28969 15.7242 -8.94963
277 1 4.71726 7.86211 17.2966 -8.94963
278 1 6.28969 6.28969 15.7242 -8.94963
279 1 7.86211 7.86211 17.2966 -8.94963
280 1 9.43453 6.28969 15.7242 -8.94963
281 1 11.007 7.86211 17.2966 -8.94965
282 1 12.5794 6.28969 15.7242 -8.94963
283 1 14.1518 7.86211 17.2966 -8.94963
284 1 15.7242 6.28969 15.7242 -8.94963
285 1 17.2966 7.86211 17.2966 -8.94963
286 1 18.8691 6.28969 15.7242 -8.94963
287 1 20.4415 7.86211 17.2966 -8.94963
288 1 7.6566e-11 9.43453 15.7242 -8.94963
289 1 3.14484 9.43453 15.7242 -8.94963
290 1 6.28969 9.43453 15.7242 -8.9497
291 1 9.43452 9.43452 15.7242 -8.9494
292 1 12.5794 9.43452 15.7242 -8.94936
293 1 15.7242 9.43453 15.7242 -8.94969
294 1 18.8691 9.43453 15.7242 -8.94963
295 1 4.52797e-15 2.19079e-14 18.8691 -8.94963
296 1 1.57242 1.57242 20.4415 -8.94963
338 1 3.14484 9.43453 18.8691 -8.94963
298 1 4.71726 1.57242 20.4415 -8.94963
299 1 6.28969 1.62736e-11 18.8691 -8.94963
300 1 7.86211 1.57242 20.4415 -8.94963
337 1 22.0139 9.43453 18.8691 -8.94963
302 1 11.007 1.57242 20.4415 -8.94963
336 1 20.4415 7.86211 20.4415 -8.94963
304 1 14.1518 1.57242 20.4415 -8.94963
305 1 15.7242 1.62694e-11 18.8691 -8.94963
306 1 17.2966 1.57242 20.4415 -8.94963
335 1 18.8691 6.28969 18.8691 -8.94963
308 1 20.4415 1.57242 20.4415 -8.94963
309 1 22.0139 3.14484 18.8691 -8.94963
310 1 1.57242 4.71726 20.4415 -8.94963
311 1 3.14484 3.14484 18.8691 -8.94963
312 1 4.71726 4.71726 20.4415 -8.94963
313 1 6.28969 3.14484 18.8691 -8.94963
314 1 7.86211 4.71726 20.4415 -8.94963
315 1 9.43453 3.14484 18.8691 -8.94963
316 1 11.007 4.71726 20.4415 -8.94963
317 1 12.5794 3.14484 18.8691 -8.94963
318 1 14.1518 4.71726 20.4415 -8.94963
319 1 15.7242 3.14484 18.8691 -8.94963
320 1 17.2966 4.71726 20.4415 -8.94963
321 1 18.8691 3.14484 18.8691 -8.94963
322 1 20.4415 4.71726 20.4415 -8.94963
323 1 2.62412e-13 6.28969 18.8691 -8.94963
324 1 1.57242 7.86211 20.4415 -8.94963
325 1 3.14484 6.28969 18.8691 -8.94963
326 1 4.71726 7.86211 20.4415 -8.94963
327 1 6.28969 6.28969 18.8691 -8.94963
328 1 7.86211 7.86211 20.4415 -8.94963
329 1 9.43453 6.28969 18.8691 -8.94963
330 1 11.007 7.86211 20.4415 -8.94963
331 1 12.5794 6.28969 18.8691 -8.94963
332 1 14.1518 7.86211 20.4415 -8.94963
333 1 15.7242 6.28969 18.8691 -8.94963
334 1 17.2966 7.86211 20.4415 -8.94963
545 1 17.2966 11.007 14.1518 -8.94955
543 1 11.0069 11.0063 14.1528 -8.98769
515 1 11.0103 11.0002 11.0103 -9.4756
541 1 4.71727 11.007 14.1518 -8.94958
540 1 1.57242 11.007 14.1518 -8.94963
7 1 9.43453 1.90395e-12 22.0139 -8.94963
15 1 22.0139 3.14484 22.0139 -8.94963
19 1 6.28969 3.14484 22.0139 -8.94963
25 1 15.7242 3.14484 22.0139 -8.94963
31 1 3.14484 6.28969 22.0139 -8.94963
35 1 9.43453 6.28969 22.0139 -8.94963
37 1 12.5794 6.28969 22.0139 -8.94963
41 1 18.8691 6.28969 22.0139 -8.94963
43 1 22.0139 9.43453 22.0139 -8.94963
45 1 6.28969 9.43453 22.0139 -8.94963
46 1 9.43453 9.43453 22.0139 -8.94963
48 1 15.7242 9.43453 22.0139 -8.94963
688 2 10.2204 11.007 9.43388 1.1756
511 1 18.8691 18.8691 9.43453 -8.94963
510 1 15.7242 18.8691 9.43453 -8.94963
509 1 12.5794 18.8691 9.43453 -8.94956
508 1 9.43453 18.8691 9.43453 -8.94958
507 1 6.28969 18.8691 9.43453 -8.94963
506 1 3.14484 18.8691 9.43453 -8.94963
351 1 22.0139 12.5794 2.62564e-13 -8.94963
352 1 1.57242 14.1518 1.57242 -8.94963
154 1 18.8691 22.0139 9.43453 -8.94963
354 1 4.71726 14.1518 1.57242 -8.94963
152 1 12.5794 22.0139 9.43453 -8.94963
356 1 7.86211 14.1518 1.57242 -8.94963
151 1 9.43453 22.0139 9.43453 -8.94963
358 1 11.007 14.1518 1.57242 -8.94963
149 1 3.14484 22.0139 9.43453 -8.94963
360 1 14.1518 14.1518 1.57242 -8.94963
361 1 15.7242 12.5794 5.18112e-11 -8.94963
362 1 17.2966 14.1518 1.57242 -8.94963
363 1 18.8691 12.5794 -7.19484e-14 -8.94963
364 1 20.4415 14.1518 1.57242 -8.94963
148 1 22.0139 22.0139 9.43453 -8.94963
366 1 1.57242 17.2966 1.57242 -8.94963
109 1 15.7242 22.0139 6.28969 -8.94963
368 1 4.71726 17.2966 1.57242 -8.94963
103 1 6.28969 22.0139 6.28969 -8.94963
370 1 7.86211 17.2966 1.57242 -8.94963
371 1 9.43453 15.7242 6.7031e-10 -8.94963
372 1 11.007 17.2966 1.57242 -8.94963
373 1 12.5794 15.7242 6.76299e-10 -8.94963
374 1 14.1518 17.2966 1.57242 -8.94963
62 1 18.8691 22.0139 3.14484 -8.94963
376 1 17.2966 17.2966 1.57242 -8.94963
377 1 18.8691 15.7242 1.07072e-11 -8.94963
378 1 20.4415 17.2966 1.57242 -8.94963
379 1 22.0139 18.8691 1.05892e-14 -8.94963
380 1 1.57242 20.4415 1.57242 -8.94963
58 1 12.5794 22.0139 3.14484 -8.94963
382 1 4.71726 20.4415 1.57242 -8.94963
383 1 6.28969 18.8691 9.2451e-12 -8.94963
384 1 7.86211 20.4415 1.57242 -8.94963
56 1 9.43453 22.0139 3.14484 -8.94963
386 1 11.007 20.4415 1.57242 -8.94963
52 1 3.14484 22.0139 3.14484 -8.94963
388 1 14.1518 20.4415 1.57242 -8.94963
389 1 15.7242 18.8691 1.63636e-11 -8.94963
390 1 17.2966 20.4415 1.57242 -8.94963
50 1 22.0139 22.0139 3.14484 -8.94963
392 1 20.4415 20.4415 1.57242 -8.94963
393 1 1.57242 11.007 4.71726 -8.94963
394 1 4.71726 11.007 4.71726 -8.94965
505 1 7.80847e-11 18.8691 9.43453 -8.94963
504 1 18.8691 15.7242 9.43453 -8.94963
503 1 15.7242 15.7242 9.43453 -8.94966
398 1 17.2966 11.007 4.71726 -8.94963
399 1 20.4415 11.007 4.71726 -8.94963
400 1 7.63635e-11 12.5794 3.14484 -8.94963
401 1 1.57242 14.1518 4.71726 -8.94963
402 1 3.14484 12.5794 3.14484 -8.94963
403 1 4.71726 14.1518 4.71726 -8.94963
404 1 6.28969 12.5794 3.14484 -8.94963
405 1 7.86211 14.1518 4.71726 -8.94963
406 1 9.43453 12.5794 3.14484 -8.9496
407 1 11.007 14.1518 4.71726 -8.94968
408 1 12.5794 12.5794 3.14484 -8.94956
409 1 14.1518 14.1518 4.71727 -8.94969
410 1 15.7242 12.5794 3.14484 -8.94963
411 1 17.2966 14.1518 4.71726 -8.94963
412 1 18.8691 12.5794 3.14484 -8.94963
413 1 20.4415 14.1518 4.71726 -8.94963
414 1 22.0139 15.7242 3.14484 -8.94963
415 1 1.57242 17.2966 4.71726 -8.94963
416 1 3.14484 15.7242 3.14484 -8.94963
417 1 4.71726 17.2966 4.71726 -8.94963
418 1 6.28969 15.7242 3.14484 -8.94963
419 1 7.86211 17.2966 4.71726 -8.94963
420 1 9.43453 15.7242 3.14484 -8.94963
421 1 11.007 17.2966 4.71726 -8.94963
422 1 12.5794 15.7242 3.14484 -8.94963
423 1 14.1518 17.2966 4.71726 -8.94963
424 1 15.7242 15.7242 3.14484 -8.94963
425 1 17.2966 17.2966 4.71726 -8.94963
426 1 18.8691 15.7242 3.14484 -8.94963
427 1 20.4415 17.2966 4.71726 -8.94963
428 1 2.06083e-12 18.8691 3.14484 -8.94963
429 1 1.57242 20.4415 4.71726 -8.94963
430 1 3.14484 18.8691 3.14484 -8.94963
431 1 4.71726 20.4415 4.71726 -8.94963
432 1 6.28969 18.8691 3.14484 -8.94963
433 1 7.86211 20.4415 4.71726 -8.94963
434 1 9.43453 18.8691 3.14484 -8.94963
435 1 11.007 20.4415 4.71726 -8.94963
436 1 12.5794 18.8691 3.14484 -8.94963
437 1 14.1518 20.4415 4.71726 -8.94963
438 1 15.7242 18.8691 3.14484 -8.94963
439 1 17.2966 20.4415 4.71726 -8.94963
440 1 18.8691 18.8691 3.14484 -8.94963
441 1 20.4415 20.4415 4.71726 -8.94963
502 1 12.5793 15.724 9.43466 -8.99421
501 1 9.43459 15.7241 9.43466 -8.99583
500 1 6.28969 15.7242 9.43453 -8.94982
445 1 11.01 11.0071 7.85634 -9.29428
499 1 3.14484 15.7242 9.43453 -8.94963
498 1 22.0139 15.7242 9.43453 -8.94963
497 1 18.8691 12.5794 9.43453 -8.94964
449 1 22.0139 12.5794 6.28969 -8.94963
450 1 1.57242 14.1518 7.86211 -8.94963
451 1 3.14484 12.5794 6.28969 -8.94963
452 1 4.71727 14.1518 7.86211 -8.94968
453 1 6.28968 12.5794 6.28968 -8.94945
454 1 7.86223 14.1516 7.86215 -8.99379
455 1 9.4345 12.5793 6.28973 -9.00652
456 1 11.007 14.1516 7.86242 -9.05272
457 1 12.5792 12.5793 6.2899 -8.99429
458 1 14.1518 14.1518 7.86209 -8.94923
459 1 15.7242 12.5794 6.28969 -8.9497
460 1 17.2966 14.1518 7.86211 -8.94963
461 1 18.8691 12.5794 6.28969 -8.94963
462 1 20.4415 14.1518 7.86211 -8.94963
463 1 3.85124e-10 15.7242 6.28969 -8.94963
464 1 1.57242 17.2966 7.86211 -8.94963
465 1 3.14484 15.7242 6.28969 -8.94963
466 1 4.71726 17.2966 7.86211 -8.94963
467 1 6.28969 15.7242 6.28969 -8.94969
468 1 7.86211 17.2966 7.86211 -8.94962
469 1 9.43453 15.7242 6.28969 -8.9498
470 1 11.007 17.2966 7.86211 -8.94978
471 1 12.5794 15.7242 6.28969 -8.94968
472 1 14.1518 17.2966 7.86211 -8.9497
473 1 15.7242 15.7242 6.28969 -8.94962
474 1 17.2966 17.2966 7.86211 -8.94963
475 1 18.8691 15.7242 6.28969 -8.94963
476 1 20.4415 17.2966 7.86211 -8.94963
477 1 22.0139 18.8691 6.28969 -8.94963
478 1 1.57242 20.4415 7.86211 -8.94963
479 1 3.14484 18.8691 6.28969 -8.94963
480 1 4.71726 20.4415 7.86211 -8.94963
481 1 6.28969 18.8691 6.28969 -8.94963
482 1 7.86211 20.4415 7.86211 -8.94963
483 1 9.43453 18.8691 6.28969 -8.94963
484 1 11.007 20.4415 7.86211 -8.94963
485 1 12.5794 18.8691 6.28969 -8.94963
486 1 14.1518 20.4415 7.86211 -8.94963
487 1 15.7242 18.8691 6.28969 -8.94963
488 1 17.2966 20.4415 7.86211 -8.94963
489 1 18.8691 18.8691 6.28969 -8.94963
490 1 20.4415 20.4415 7.86211 -8.94963
491 1 1.28478e-08 12.5794 9.43453 -8.94963
492 1 3.14484 12.5794 9.43453 -8.94956
493 1 6.28994 12.5792 9.43453 -8.99637
494 1 9.43086 12.5854 9.43356 -9.28408
495 1 12.5809 12.58 9.43358 -9.02203
496 1 15.7242 12.5794 9.43453 -8.95014
1 1 4.53951e-15 22.0139 -1.5034e-16 -8.94963
5 1 6.28969 22.0139 1.10299e-13 -8.94963
516 1 14.1514 11.007 11.0068 -9.05275
519 1 1.57242 14.1518 11.007 -8.94963
520 1 4.71727 14.1518 11.0069 -8.94964
521 1 7.8623 14.1515 11.0069 -9.05056
522 1 11.007 14.1578 11.0039 -9.30434
523 1 14.1517 14.1518 11.0069 -9.006
524 1 17.2966 14.1518 11.007 -8.9496
525 1 20.4415 14.1518 11.007 -8.94963
527 1 4.71726 17.2966 11.007 -8.94963
530 1 14.1518 17.2966 11.007 -8.94975
531 1 17.2966 17.2966 11.007 -8.94963
532 1 20.4415 17.2966 11.007 -8.94963
535 1 7.86211 20.4415 11.007 -8.94963
536 1 11.007 20.4415 11.007 -8.94965
537 1 14.1518 20.4415 11.007 -8.94963
687 2 11.007 12.58 11.7935 1.1755
686 1 20.4415 20.4415 20.4415 -8.94963
514 1 7.86122 11.007 11.0075 -9.04217
685 1 18.8691 18.8691 18.8691 -8.94963
307 1 18.8691 22.0139 18.8691 -8.94963
684 1 17.2966 20.4415 20.4415 -8.94963
683 1 15.7242 18.8691 18.8691 -8.94963
303 1 12.5794 22.0139 18.8691 -8.94963
301 1 9.43453 22.0139 18.8691 -8.94963
297 1 3.14484 22.0139 18.8691 -8.94963
256 1 15.7242 22.0139 15.7242 -8.94963
250 1 6.28969 22.0139 15.7242 -8.94963
246 1 22.0139 22.0139 15.7242 -8.94963
209 1 18.8691 22.0139 12.5794 -8.94963
526 1 1.57242 17.2966 11.007 -8.94963
199 1 3.14484 22.0139 12.5794 -8.94963
528 1 7.86211 17.2966 11.007 -8.94968
529 1 11.007 17.2967 11.007 -8.95144
671 1 18.8691 15.7242 18.8691 -8.94963
670 1 17.2966 17.2966 20.4415 -8.94963
669 1 15.7242 15.7242 18.8691 -8.94963
533 1 1.57242 20.4415 11.007 -8.94963
534 1 4.71726 20.4415 11.007 -8.94963
668 1 14.1518 17.2966 20.4415 -8.94963
667 1 12.5794 15.7242 18.8691 -8.94963
666 1 11.007 17.2966 20.4415 -8.94963
538 1 17.2966 20.4415 11.007 -8.94963
539 1 20.4415 20.4415 11.007 -8.94963
682 1 14.1518 20.4415 20.4415 -8.94963
681 1 12.5794 18.8691 18.8691 -8.94963
542 1 7.86232 11.007 14.1517 -8.99419
680 1 11.007 20.4415 20.4415 -8.94963
544 1 14.1516 11.007 14.1517 -8.99417
679 1 9.43453 18.8691 18.8691 -8.94963
678 1 7.86211 20.4415 20.4415 -8.94963
547 1 22.0139 12.5794 12.5794 -8.94963
548 1 1.57242 14.1518 14.1518 -8.94963
549 1 3.14484 12.5794 12.5794 -8.94965
550 1 4.71727 14.1518 14.1518 -8.94955
551 1 6.28959 12.5794 12.5794 -8.95126
552 1 7.86233 14.1517 14.1517 -8.99402
553 1 9.42846 12.5793 12.5823 -9.30451
554 1 11.007 14.1524 14.1528 -8.98581
555 1 12.5853 12.5793 12.5822 -9.29208
556 1 14.1516 14.1517 14.1517 -8.99408
557 1 15.7243 12.5794 12.5794 -8.95151
558 1 17.2966 14.1518 14.1518 -8.94956
559 1 18.8691 12.5794 12.5794 -8.94965
560 1 20.4415 14.1518 14.1518 -8.94963
561 1 3.85067e-10 15.7242 12.5794 -8.94963
562 1 1.57242 17.2966 14.1518 -8.94963
563 1 3.14484 15.7242 12.5794 -8.94963
564 1 4.71726 17.2966 14.1518 -8.94963
565 1 6.28969 15.7242 12.5794 -8.94981
566 1 7.86211 17.2966 14.1518 -8.94963
567 1 9.43457 15.7242 12.5794 -9.00634
568 1 11.007 17.2966 14.1518 -8.94984
569 1 12.5793 15.7242 12.5794 -9.00623
570 1 14.1518 17.2966 14.1518 -8.94964
571 1 15.7242 15.7242 12.5794 -8.94974
572 1 17.2966 17.2966 14.1518 -8.94963
573 1 18.8691 15.7242 12.5794 -8.94963
574 1 20.4415 17.2966 14.1518 -8.94963
575 1 22.0139 18.8691 12.5794 -8.94963
576 1 1.57242 20.4415 14.1518 -8.94963
577 1 3.14484 18.8691 12.5794 -8.94963
578 1 4.71726 20.4415 14.1518 -8.94963
579 1 6.28969 18.8691 12.5794 -8.94963
580 1 7.86211 20.4415 14.1518 -8.94963
581 1 9.43453 18.8691 12.5794 -8.9496
582 1 11.007 20.4415 14.1518 -8.94964
583 1 12.5794 18.8691 12.5794 -8.9496
584 1 14.1518 20.4415 14.1518 -8.94963
585 1 15.7242 18.8691 12.5794 -8.94963
586 1 17.2966 20.4415 14.1518 -8.94963
587 1 18.8691 18.8691 12.5794 -8.94963
588 1 20.4415 20.4415 14.1518 -8.94963
677 1 6.28969 18.8691 18.8691 -8.94963
676 1 4.71726 20.4415 20.4415 -8.94963
591 1 7.86211 11.007 17.2966 -8.94968
592 1 11.007 11.007 17.2966 -8.94994
593 1 14.1518 11.007 17.2966 -8.94968
675 1 3.14484 18.8691 18.8691 -8.94963
674 1 1.57242 20.4415 20.4415 -8.94963
596 1 7.5576e-11 12.5794 15.7242 -8.94963
597 1 1.57242 14.1518 17.2966 -8.94963
598 1 3.14484 12.5794 15.7242 -8.94963
599 1 4.71726 14.1518 17.2966 -8.94963
600 1 6.28969 12.5794 15.7242 -8.94981
601 1 7.86211 14.1518 17.2966 -8.94968
602 1 9.43469 12.5794 15.7239 -8.99613
603 1 11.007 14.1518 17.2966 -8.94993
604 1 12.5792 12.5794 15.7239 -8.99609
605 1 14.1518 14.1518 17.2966 -8.94968
606 1 15.7242 12.5794 15.7242 -8.94981
607 1 17.2966 14.1518 17.2966 -8.94963
608 1 18.8691 12.5794 15.7242 -8.94963
609 1 20.4415 14.1518 17.2966 -8.94963
610 1 22.0139 15.7242 15.7242 -8.94963
611 1 1.57242 17.2966 17.2966 -8.94963
612 1 3.14484 15.7242 15.7242 -8.94963
613 1 4.71726 17.2966 17.2966 -8.94963
614 1 6.28969 15.7242 15.7242 -8.94969
615 1 7.86211 17.2966 17.2966 -8.94963
616 1 9.43452 15.7242 15.7242 -8.94943
617 1 11.007 17.2966 17.2966 -8.94965
618 1 12.5794 15.7242 15.7242 -8.94942
619 1 14.1518 17.2966 17.2966 -8.94963
620 1 15.7242 15.7242 15.7242 -8.9497
621 1 17.2966 17.2966 17.2966 -8.94963
622 1 18.8691 15.7242 15.7242 -8.94963
623 1 20.4415 17.2966 17.2966 -8.94963
624 1 2.05542e-12 18.8691 15.7242 -8.94963
625 1 1.57242 20.4415 17.2966 -8.94963
626 1 3.14484 18.8691 15.7242 -8.94963
627 1 4.71726 20.4415 17.2966 -8.94963
628 1 6.28969 18.8691 15.7242 -8.94963
629 1 7.86211 20.4415 17.2966 -8.94963
630 1 9.43453 18.8691 15.7242 -8.94963
631 1 11.007 20.4415 17.2966 -8.94963
632 1 12.5794 18.8691 15.7242 -8.94963
633 1 14.1518 20.4415 17.2966 -8.94963
634 1 15.7242 18.8691 15.7242 -8.94963
635 1 17.2966 20.4415 17.2966 -8.94963
636 1 18.8691 18.8691 15.7242 -8.94963
637 1 20.4415 20.4415 17.2966 -8.94963
638 1 1.57242 11.007 20.4415 -8.94963
673 1 22.0139 18.8691 18.8691 -8.94963
640 1 7.86211 11.007 20.4415 -8.94963
641 1 11.007 11.007 20.4415 -8.94963
642 1 14.1518 11.007 20.4415 -8.94963
672 1 20.4415 17.2966 20.4415 -8.94963
644 1 20.4415 11.007 20.4415 -8.94963
645 1 22.0139 12.5794 18.8691 -8.94963
646 1 1.57242 14.1518 20.4415 -8.94963
647 1 3.14484 12.5794 18.8691 -8.94963
648 1 4.71726 14.1518 20.4415 -8.94963
649 1 6.28969 12.5794 18.8691 -8.94963
650 1 7.86211 14.1518 20.4415 -8.94963
651 1 9.43453 12.5794 18.8691 -8.94956
652 1 11.007 14.1518 20.4415 -8.94963
653 1 12.5794 12.5794 18.8691 -8.94956
654 1 14.1518 14.1518 20.4415 -8.94963
655 1 15.7242 12.5794 18.8691 -8.94963
656 1 17.2966 14.1518 20.4415 -8.94963
657 1 18.8691 12.5794 18.8691 -8.94963
658 1 20.4415 14.1518 20.4415 -8.94963
659 1 2.4572e-13 15.7242 18.8691 -8.94963
660 1 1.57242 17.2966 20.4415 -8.94963
661 1 3.14484 15.7242 18.8691 -8.94963
662 1 4.71726 17.2966 20.4415 -8.94963
663 1 6.28969 15.7242 18.8691 -8.94963
664 1 7.86211 17.2966 20.4415 -8.94963
665 1 9.43453 15.7242 18.8691 -8.94963
353 1 3.14484 12.5794 22.0139 -8.94963
355 1 6.28969 12.5794 22.0139 -8.94963
357 1 9.43453 12.5794 22.0139 -8.94963
359 1 12.5794 12.5794 22.0139 -8.94963
365 1 2.62051e-13 15.7242 22.0139 -8.94963
367 1 3.14484 15.7242 22.0139 -8.94963
369 1 6.28969 15.7242 22.0139 -8.94963
375 1 15.7242 15.7242 22.0139 -8.94963
381 1 3.14484 18.8691 22.0139 -8.94963
385 1 9.43453 18.8691 22.0139 -8.94963
387 1 12.5794 18.8691 22.0139 -8.94963
391 1 18.8691 18.8691 22.0139 -8.94963
11 1 15.7242 22.0139 22.0139 -8.94963
