ITEM: TIMESTEP
39
ITEM: NUMBER OF ATOMS
688
ITEM: BOX BOUNDS pp pp pp
0.0000000000000000e+00 2.2013900999999997e+01
0.0000000000000000e+00 2.2013900999999997e+01
0.0000000000000000e+00 2.2013900999999997e+01
ITEM: ATOMS id type x y z c_pot
175 1 18.8691 9.43453 9.43453 -8.94969
2 1 1.57242 1.57242 1.57242 -8.94963
517 1 17.2966 11.0069 11.0069 -8.94897
4 1 4.71726 1.57242 1.57242 -8.94963
174 1 15.7244 9.43453 9.43453 -8.95096
6 1 7.86211 1.57242 1.57242 -8.94963
448 1 20.4415 11.007 7.86211 -8.94963
8 1 11.007 1.57242 1.57242 -8.94963
9 1 12.5794 1.7498e-09 2.61389e-09 -8.94963
10 1 14.1518 1.57242 1.57242 -8.94963
173 1 12.5843 9.43183 9.43437 -9.02166
12 1 17.2966 1.57242 1.57242 -8.94963
13 1 18.8691 1.28216e-10 1.01918e-09 -8.94963
14 1 20.4415 1.57242 1.57242 -8.94963
447 1 17.2966 11.0069 7.8621 -8.94936
16 1 1.57242 4.71726 1.57242 -8.94963
17 1 3.14484 3.14484 5.56836e-09 -8.94963
18 1 4.71726 4.71726 1.57242 -8.94963
446 1 14.1511 11.0068 7.86267 -8.99782
20 1 7.86211 4.71726 1.57242 -8.94963
21 1 9.43453 3.14484 -6.16281e-09 -8.94963
22 1 11.007 4.71726 1.57242 -8.94963
23 1 12.5794 3.14484 8.92084e-10 -8.94963
24 1 14.1518 4.71726 1.57242 -8.94963
444 1 7.85766 11.0068 7.8589 -8.98321
26 1 17.2966 4.71726 1.57242 -8.94963
27 1 18.8691 3.14484 1.45695e-09 -8.94963
28 1 20.4415 4.71726 1.57242 -8.94963
29 1 2.50556e-09 6.28969 9.25614e-10 -8.94963
30 1 1.57242 7.86211 1.57242 -8.94963
443 1 4.71705 11.0069 7.8621 -8.95089
32 1 4.71726 7.86211 1.57242 -8.94963
33 1 6.28969 6.28969 6.20972e-08 -8.94963
34 1 7.86211 7.86211 1.57242 -8.94962
442 1 1.57242 11.007 7.86211 -8.94971
36 1 11.007 7.86211 1.57243 -8.94964
397 1 14.1517 11.0069 4.71739 -8.95037
38 1 14.1518 7.86211 1.57242 -8.94962
39 1 15.7242 6.28969 6.23583e-08 -8.94963
40 1 17.2966 7.86211 1.57242 -8.94963
396 1 11.0069 11.0069 4.71561 -8.95728
42 1 20.4415 7.86211 1.57242 -8.94963
395 1 7.86208 11.0069 4.7171 -8.95064
44 1 3.14484 9.43453 5.49416e-08 -8.94963
350 1 20.4415 11.007 1.57242 -8.94963
518 1 20.4415 11.0069 11.0069 -8.94962
47 1 12.5794 9.43453 -2.59092e-07 -8.94963
348 1 14.1518 11.007 1.57243 -8.94962
49 1 18.8691 9.43453 2.44421e-09 -8.94963
172 1 9.41918 9.40515 9.43483 -9.27128
51 1 1.57242 1.57242 4.71726 -8.94963
171 1 6.29051 9.4353 9.43453 -8.99895
53 1 4.71726 1.57242 4.71726 -8.94963
54 1 6.28969 -1.78656e-09 3.14484 -8.94963
55 1 7.86211 1.57242 4.71726 -8.94963
170 1 3.14488 9.43452 9.43453 -8.94932
57 1 11.007 1.57242 4.71726 -8.94963
169 1 1.41458e-06 9.43453 9.43453 -8.94962
59 1 14.1518 1.57242 4.71726 -8.94963
60 1 15.7242 -1.57367e-09 3.14484 -8.94963
61 1 17.2966 1.57242 4.71726 -8.94963
168 1 18.8691 6.28969 9.43453 -8.94963
63 1 20.4415 1.57242 4.71726 -8.94963
64 1 1.03442e-08 3.14484 3.14484 -8.94963
65 1 1.57242 4.71726 4.71726 -8.94963
66 1 3.14484 3.14484 3.14484 -8.94963
67 1 4.71727 4.71726 4.71727 -8.94964
68 1 6.28969 3.14484 3.14484 -8.94963
69 1 7.86211 4.71727 4.71726 -8.94967
70 1 9.43453 3.14484 3.14484 -8.94963
71 1 11.0069 4.71727 4.71726 -8.94963
72 1 12.5794 3.14484 3.14484 -8.94963
73 1 14.1518 4.71727 4.71726 -8.94963
74 1 15.7242 3.14484 3.14484 -8.94963
75 1 17.2966 4.71726 4.71726 -8.94963
76 1 18.8691 3.14484 3.14484 -8.94963
77 1 20.4415 4.71726 4.71726 -8.94963
78 1 22.0139 6.28969 3.14484 -8.94963
79 1 1.57242 7.86211 4.71726 -8.94963
80 1 3.14484 6.28969 3.14484 -8.94963
81 1 4.71725 7.8621 4.71726 -8.94954
82 1 6.28969 6.28969 3.14484 -8.94963
83 1 7.86211 7.86211 4.71724 -8.94977
84 1 9.43453 6.28969 3.14484 -8.94964
85 1 11.0069 7.86216 4.71731 -8.95012
86 1 12.5794 6.28969 3.14484 -8.94966
87 1 14.1518 7.86211 4.71727 -8.94958
88 1 15.7242 6.28969 3.14484 -8.94964
89 1 17.2966 7.86211 4.71727 -8.94965
90 1 18.8691 6.28969 3.14484 -8.94963
91 1 20.4415 7.86211 4.71726 -8.94963
92 1 4.89588e-08 9.43453 3.14484 -8.94963
93 1 3.14484 9.43453 3.14484 -8.94964
94 1 6.28968 9.43452 3.14483 -8.94967
95 1 9.43449 9.43449 3.14481 -8.94928
96 1 12.5794 9.43449 3.14483 -8.94927
97 1 15.7242 9.43453 3.14485 -8.94966
98 1 18.8691 9.43453 3.14484 -8.94963
99 1 -1.1516e-10 7.99419e-10 6.28969 -8.94963
100 1 1.57242 1.57242 7.86211 -8.94963
101 1 3.14484 5.27227e-09 6.28969 -8.94963
102 1 4.71726 1.57242 7.86211 -8.94963
167 1 15.7242 6.28969 9.43453 -8.94969
104 1 7.86211 1.57242 7.86211 -8.94963
105 1 9.43453 -2.71276e-07 6.28969 -8.94963
106 1 11.007 1.57242 7.86211 -8.94963
107 1 12.5794 -2.68298e-07 6.28969 -8.94963
108 1 14.1518 1.57242 7.86211 -8.94964
166 1 12.5794 6.28953 9.43449 -8.95022
110 1 17.2966 1.57242 7.86211 -8.94963
111 1 18.8691 5.43819e-09 6.28969 -8.94963
112 1 20.4415 1.57242 7.86211 -8.94963
113 1 22.0139 3.14484 6.28969 -8.94963
114 1 1.57242 4.71726 7.86211 -8.94963
115 1 3.14484 3.14484 6.28969 -8.94963
116 1 4.71727 4.71727 7.86211 -8.94967
117 1 6.28968 3.14484 6.28968 -8.94962
118 1 7.86207 4.71725 7.86207 -8.94926
119 1 9.43453 3.14485 6.28969 -8.94964
120 1 11.007 4.71724 7.86207 -8.94927
121 1 12.5794 3.14484 6.28968 -8.94962
122 1 14.1518 4.71725 7.8621 -8.94966
123 1 15.7242 3.14484 6.28969 -8.94963
124 1 17.2966 4.71727 7.86211 -8.94964
125 1 18.8691 3.14484 6.28969 -8.94963
126 1 20.4415 4.71726 7.86211 -8.94963
127 1 2.57723e-07 6.28969 6.28969 -8.94963
128 1 1.57242 7.86211 7.86211 -8.94962
129 1 3.14485 6.28969 6.28969 -8.94966
130 1 4.71731 7.86216 7.86215 -8.94997
131 1 6.28969 6.28968 6.28969 -8.94956
132 1 7.86188 7.86234 7.8614 -8.98727
133 1 9.43455 6.28974 6.28974 -8.9502
134 1 11.0075 7.86233 7.86215 -9.00481
135 1 12.5794 6.28967 6.28969 -8.94979
136 1 14.152 7.86191 7.86195 -8.94861
137 1 15.7242 6.28968 6.28968 -8.94955
138 1 17.2966 7.8621 7.8621 -8.94965
139 1 18.8691 6.28969 6.28969 -8.94963
140 1 20.4415 7.86211 7.86211 -8.94963
141 1 22.0139 9.43453 6.28969 -8.94964
142 1 3.14483 9.43452 6.28968 -8.94966
143 1 6.28946 9.43435 6.28947 -8.94855
144 1 9.43405 9.43449 6.28982 -9.00456
145 1 12.5796 9.43386 6.28996 -8.98755
146 1 15.7242 9.43456 6.28973 -8.94989
147 1 18.8691 9.43453 6.28969 -8.94963
165 1 9.43454 6.28795 9.43449 -8.95715
164 1 6.2898 6.28983 9.43453 -8.95039
150 1 6.28969 -1.1153e-07 9.43453 -8.94963
163 1 3.14484 6.28968 9.43453 -8.9496
162 1 22.0139 6.28969 9.43453 -8.94963
153 1 15.7242 -1.12326e-07 9.43453 -8.94963
161 1 18.8691 3.14484 9.43453 -8.94963
155 1 -9.10114e-09 3.14484 9.43453 -8.94963
156 1 3.14484 3.14484 9.43453 -8.94963
157 1 6.28969 3.14485 9.43453 -8.94962
158 1 9.43453 3.14478 9.43453 -8.95011
159 1 12.5794 3.14484 9.43453 -8.94968
160 1 15.7242 3.14484 9.43453 -8.94963
344 1 1.57242 11.007 1.57242 -8.94963
345 1 4.71726 11.007 1.57242 -8.94963
346 1 7.86211 11.007 1.57242 -8.94969
347 1 11.007 11.007 1.57236 -8.9501
513 1 4.71704 11.0069 11.0069 -8.95047
181 1 17.2966 1.57242 11.007 -8.94963
188 1 17.2966 4.71726 11.007 -8.94964
190 1 1.57242 7.86211 11.0069 -8.94963
191 1 4.71732 7.86216 11.0069 -8.94998
192 1 7.86194 7.8624 11.0077 -8.98749
193 1 11.0075 7.86027 11.0071 -9.01267
512 1 1.57241 11.0069 11.0069 -8.9497
177 1 4.71726 1.57242 11.007 -8.94963
184 1 4.71727 4.71727 11.0069 -8.94966
189 1 20.4415 4.71726 11.007 -8.94963
7 1 9.43453 1.78775e-09 3.56832e-09 -8.94963
643 1 17.2966 11.007 20.4415 -8.94963
644 1 20.4415 11.007 20.4415 -8.94963
178 1 7.86211 1.57242 11.007 -8.94962
179 1 11.007 1.57242 11.007 -8.94966
180 1 14.1518 1.57242 11.007 -8.94963
639 1 4.71726 11.007 20.4415 -8.94963
182 1 20.4415 1.57242 11.007 -8.94963
183 1 1.57242 4.71726 11.007 -8.94963
638 1 1.57242 11.007 20.4415 -8.94963
185 1 7.86208 4.71725 11.007 -8.94928
186 1 11.007 4.71716 11.007 -8.94982
187 1 14.1518 4.71726 11.007 -8.94968
48 1 15.7242 9.43453 22.0139 -8.94963
35 1 9.43453 6.28969 22.0139 -8.94963
46 1 9.43453 9.43453 22.0139 -8.94963
45 1 6.28969 9.43453 22.0139 -8.94964
43 1 22.0139 9.43453 22.0139 -8.94963
546 1 20.4415 11.0069 14.1518 -8.94963
194 1 14.152 7.86195 11.0071 -8.94933
195 1 17.2966 7.8621 11.007 -8.94966
196 1 20.4415 7.86211 11.007 -8.94964
197 1 -8.04963e-11 -1.03828e-09 12.5794 -8.94963
198 1 1.57242 1.57242 14.1518 -8.94963
343 1 18.8691 9.43453 18.8691 -8.94963
200 1 4.71726 1.57242 14.1518 -8.94963
41 1 18.8691 6.28969 22.0139 -8.94963
202 1 7.86211 1.57242 14.1518 -8.94963
203 1 9.43453 1.91485e-06 12.5794 -8.94963
204 1 11.007 1.57242 14.1518 -8.94964
205 1 12.5794 1.91498e-06 12.5794 -8.94963
206 1 14.1518 1.57242 14.1518 -8.94963
37 1 12.5794 6.28969 22.0139 -8.94963
208 1 17.2966 1.57242 14.1518 -8.94963
342 1 15.7242 9.43453 18.8691 -8.94966
210 1 20.4415 1.57242 14.1518 -8.94963
211 1 22.0139 3.14484 12.5794 -8.94963
212 1 1.57242 4.71726 14.1518 -8.94963
213 1 3.14484 3.14484 12.5794 -8.94963
214 1 4.71727 4.71726 14.1518 -8.94964
215 1 6.28969 3.14484 12.5794 -8.94962
216 1 7.86211 4.71726 14.1518 -8.94965
217 1 9.43453 3.14485 12.5794 -8.94963
218 1 11.0069 4.71726 14.1518 -8.9497
219 1 12.5794 3.14484 12.5794 -8.94962
220 1 14.1518 4.71726 14.1518 -8.94962
221 1 15.7242 3.14484 12.5794 -8.94963
222 1 17.2966 4.71726 14.1518 -8.94963
223 1 18.8691 3.14484 12.5794 -8.94963
224 1 20.4415 4.71726 14.1518 -8.94963
225 1 2.58839e-07 6.28969 12.5794 -8.94963
226 1 1.57242 7.86211 14.1518 -8.94963
227 1 3.14485 6.28969 12.5794 -8.94965
228 1 4.71725 7.8621 14.1518 -8.94958
229 1 6.28969 6.28969 12.5794 -8.94957
230 1 7.8621 7.86208 14.1518 -8.94982
231 1 9.4345 6.2897 12.5794 -8.94982
232 1 11.0069 7.86201 14.1518 -8.95128
233 1 12.5794 6.28962 12.5794 -8.94942
234 1 14.1518 7.86208 14.1518 -8.94958
235 1 15.7242 6.28968 12.5794 -8.94955
236 1 17.2966 7.86211 14.1518 -8.94969
237 1 18.8691 6.28969 12.5794 -8.94963
238 1 20.4415 7.86211 14.1518 -8.94963
239 1 22.0139 9.43453 12.5794 -8.94963
240 1 3.14483 9.43453 12.5794 -8.94966
241 1 6.28951 9.43442 12.5796 -8.94925
242 1 9.43383 9.43443 12.5799 -9.0572
243 1 12.5799 9.43367 12.5798 -9.03836
244 1 15.7241 9.43463 12.5793 -8.95058
245 1 18.8691 9.43453 12.5794 -8.94963
341 1 12.5794 9.43452 18.8691 -8.94965
247 1 1.57242 1.57242 17.2966 -8.94963
248 1 3.14484 7.23064e-09 15.7242 -8.94963
249 1 4.71726 1.57242 17.2966 -8.94963
340 1 9.43452 9.43452 18.8691 -8.94965
251 1 7.86211 1.57242 17.2966 -8.94963
252 1 9.43453 2.80186e-07 15.7242 -8.94964
253 1 11.007 1.57242 17.2966 -8.94963
254 1 12.5794 2.79387e-07 15.7242 -8.94964
255 1 14.1518 1.57242 17.2966 -8.94963
339 1 6.28969 9.43453 18.8691 -8.94966
257 1 17.2966 1.57242 17.2966 -8.94963
258 1 18.8691 7.28447e-09 15.7242 -8.94963
259 1 20.4415 1.57242 17.2966 -8.94963
260 1 1.03769e-08 3.14484 15.7242 -8.94963
261 1 1.57242 4.71726 17.2966 -8.94963
262 1 3.14484 3.14484 15.7242 -8.94963
263 1 4.71726 4.71726 17.2966 -8.94963
264 1 6.28969 3.14484 15.7242 -8.94963
265 1 7.86211 4.71726 17.2966 -8.94963
266 1 9.43453 3.14484 15.7242 -8.94963
267 1 11.007 4.71726 17.2966 -8.94963
268 1 12.5794 3.14484 15.7242 -8.94964
269 1 14.1518 4.71726 17.2966 -8.94963
270 1 15.7242 3.14484 15.7242 -8.94963
271 1 17.2966 4.71726 17.2966 -8.94963
272 1 18.8691 3.14484 15.7242 -8.94963
273 1 20.4415 4.71726 17.2966 -8.94963
274 1 22.0139 6.28969 15.7242 -8.94963
275 1 1.57242 7.86211 17.2966 -8.94963
276 1 3.14484 6.28969 15.7242 -8.94963
277 1 4.71726 7.86211 17.2966 -8.94963
278 1 6.28969 6.28969 15.7242 -8.94963
279 1 7.86209 7.8621 17.2966 -8.94953
280 1 9.43453 6.28967 15.7242 -8.94968
281 1 11.007 7.86212 17.2966 -8.94967
282 1 12.5794 6.28967 15.7242 -8.94971
283 1 14.1518 7.8621 17.2966 -8.94953
284 1 15.7242 6.28969 15.7242 -8.94963
285 1 17.2966 7.86211 17.2966 -8.94964
286 1 18.8691 6.28969 15.7242 -8.94963
287 1 20.4415 7.86211 17.2966 -8.94963
288 1 4.76045e-08 9.43453 15.7242 -8.94963
289 1 3.14484 9.43453 15.7242 -8.94963
290 1 6.28968 9.43453 15.7242 -8.9496
291 1 9.43433 9.43429 15.7245 -8.94833
292 1 12.5796 9.43429 15.7245 -8.94833
293 1 15.7242 9.43454 15.7242 -8.94961
294 1 18.8691 9.43453 15.7242 -8.94962
295 1 7.02649e-11 4.7915e-10 18.8691 -8.94963
296 1 1.57242 1.57242 20.4415 -8.94963
338 1 3.14484 9.43453 18.8691 -8.94963
298 1 4.71726 1.57242 20.4415 -8.94963
299 1 6.28969 2.98795e-08 18.8691 -8.94963
300 1 7.86211 1.57242 20.4415 -8.94963
337 1 22.0139 9.43453 18.8691 -8.94963
302 1 11.007 1.57242 20.4415 -8.94963
336 1 20.4415 7.86211 20.4415 -8.94963
304 1 14.1518 1.57242 20.4415 -8.94963
305 1 15.7242 2.99219e-08 18.8691 -8.94963
306 1 17.2966 1.57242 20.4415 -8.94963
335 1 18.8691 6.28969 18.8691 -8.94963
308 1 20.4415 1.57242 20.4415 -8.94963
309 1 22.0139 3.14484 18.8691 -8.94963
310 1 1.57242 4.71726 20.4415 -8.94963
311 1 3.14484 3.14484 18.8691 -8.94963
312 1 4.71726 4.71726 20.4415 -8.94963
313 1 6.28969 3.14484 18.8691 -8.94963
314 1 7.86211 4.71726 20.4415 -8.94963
315 1 9.43453 3.14484 18.8691 -8.94963
316 1 11.007 4.71726 20.4415 -8.94963
317 1 12.5794 3.14484 18.8691 -8.94963
318 1 14.1518 4.71726 20.4415 -8.94963
319 1 15.7242 3.14484 18.8691 -8.94963
320 1 17.2966 4.71726 20.4415 -8.94963
321 1 18.8691 3.14484 18.8691 -8.94963
322 1 20.4415 4.71726 20.4415 -8.94963
323 1 2.45357e-09 6.28969 18.8691 -8.94963
324 1 1.57242 7.86211 20.4415 -8.94963
325 1 3.14484 6.28969 18.8691 -8.94963
326 1 4.71726 7.86211 20.4415 -8.94963
327 1 6.28969 6.28969 18.8691 -8.94963
328 1 7.86211 7.86211 20.4415 -8.94963
329 1 9.43453 6.28969 18.8691 -8.94964
330 1 11.007 7.86211 20.4415 -8.94963
331 1 12.5794 6.28969 18.8691 -8.94964
332 1 14.1518 7.86211 20.4415 -8.94963
333 1 15.7242 6.28969 18.8691 -8.94963
334 1 17.2966 7.86211 20.4415 -8.94963
545 1 17.2966 11.0069 14.1518 -8.94923
543 1 11.0069 11.0039 14.1577 -8.99387
515 1 11.0241 10.9726 11.024 -9.46495
541 1 4.71726 11.0069 14.1518 -8.9493
540 1 1.57242 11.0069 14.1518 -8.94962
31 1 3.14484 6.28969 22.0139 -8.94963
15 1 22.0139 3.14484 22.0139 -8.94963
19 1 6.28969 3.14484 22.0139 -8.94963
25 1 15.7242 3.14484 22.0139 -8.94963
3 1 3.14484 1.25456e-10 22.0139 -8.94963
176 1 1.57242 1.57242 11.007 -8.94963
688 2 10.2184 11.0077 9.43014 0.97243
511 1 18.8691 18.8691 9.43453 -8.94963
510 1 15.7242 18.8691 9.43453 -8.94966
509 1 12.5794 18.8691 9.43449 -8.94934
508 1 9.43449 18.8691 9.43449 -8.94977
507 1 6.28969 18.869 9.43453 -8.94965
506 1 3.14484 18.8691 9.43453 -8.94963
349 1 17.2966 11.007 1.57242 -8.94963
352 1 1.57242 14.1518 1.57242 -8.94963
154 1 18.8691 22.0139 9.43453 -8.94963
354 1 4.71726 14.1518 1.57242 -8.94963
152 1 12.5794 22.0139 9.43453 -8.94963
356 1 7.86211 14.1518 1.57242 -8.94963
151 1 9.43453 22.0139 9.43453 -8.94966
358 1 11.007 14.1518 1.57243 -8.94963
149 1 3.14484 22.0139 9.43453 -8.94963
360 1 14.1518 14.1518 1.57242 -8.94962
361 1 15.7242 12.5794 2.25681e-07 -8.94963
362 1 17.2966 14.1518 1.57242 -8.94963
537 1 14.1518 20.4415 11.0069 -8.94964
364 1 20.4415 14.1518 1.57242 -8.94963
148 1 2.76765e-09 22.0139 9.43453 -8.94963
366 1 1.57242 17.2966 1.57242 -8.94963
109 1 15.7242 22.0139 6.28969 -8.94963
368 1 4.71726 17.2966 1.57242 -8.94963
103 1 6.28969 22.0139 6.28969 -8.94963
370 1 7.86211 17.2966 1.57242 -8.94963
371 1 9.43453 15.7242 8.00792e-07 -8.94964
372 1 11.007 17.2966 1.57242 -8.94963
373 1 12.5794 15.7242 7.15613e-07 -8.94964
374 1 14.1518 17.2966 1.57242 -8.94963
62 1 18.8691 22.0139 3.14484 -8.94963
376 1 17.2966 17.2966 1.57242 -8.94963
377 1 18.8691 15.7242 2.10994e-08 -8.94963
378 1 20.4415 17.2966 1.57242 -8.94963
379 1 22.0139 18.8691 2.10875e-10 -8.94963
380 1 1.57242 20.4415 1.57242 -8.94963
58 1 12.5794 22.0139 3.14484 -8.94963
382 1 4.71726 20.4415 1.57242 -8.94963
383 1 6.28969 18.8691 5.08099e-08 -8.94963
384 1 7.86211 20.4415 1.57242 -8.94963
56 1 9.43453 22.0139 3.14484 -8.94963
386 1 11.007 20.4415 1.57242 -8.94963
52 1 3.14484 22.0139 3.14484 -8.94963
388 1 14.1518 20.4415 1.57242 -8.94963
389 1 15.7242 18.8691 5.27934e-08 -8.94963
390 1 17.2966 20.4415 1.57242 -8.94963
50 1 22.0139 22.0139 3.14484 -8.94963
392 1 20.4415 20.4415 1.57242 -8.94963
393 1 1.57242 11.007 4.71726 -8.94963
394 1 4.71727 11.007 4.71727 -8.94967
505 1 -8.51661e-09 18.8691 9.43453 -8.94963
504 1 18.8691 15.7242 9.43453 -8.94962
503 1 15.7242 15.7242 9.43452 -8.94978
398 1 17.2966 11.007 4.71726 -8.94961
399 1 20.4415 11.007 4.71726 -8.94963
400 1 4.89677e-08 12.5794 3.14484 -8.94963
401 1 1.57242 14.1518 4.71726 -8.94963
402 1 3.14484 12.5794 3.14484 -8.94964
403 1 4.71725 14.1518 4.71726 -8.94955
404 1 6.28968 12.5794 3.14483 -8.94967
405 1 7.8621 14.1518 4.71722 -8.94978
406 1 9.4345 12.5794 3.1448 -8.94936
407 1 11.0069 14.1518 4.71735 -8.94986
408 1 12.5794 12.5794 3.14482 -8.94935
409 1 14.1518 14.1518 4.71725 -8.94957
410 1 15.7242 12.5794 3.14485 -8.94966
411 1 17.2966 14.1518 4.71727 -8.94967
412 1 18.8691 12.5794 3.14484 -8.94963
413 1 20.4415 14.1518 4.71726 -8.94963
414 1 22.0139 15.7242 3.14484 -8.94963
415 1 1.57242 17.2966 4.71726 -8.94963
416 1 3.14484 15.7242 3.14484 -8.94963
417 1 4.71726 17.2966 4.71726 -8.94963
418 1 6.28969 15.7242 3.14484 -8.94963
419 1 7.86211 17.2966 4.71727 -8.94969
420 1 9.43453 15.7242 3.14485 -8.94963
421 1 11.0069 17.2966 4.71727 -8.9496
422 1 12.5794 15.7242 3.14485 -8.94966
423 1 14.1518 17.2966 4.71727 -8.94966
424 1 15.7242 15.7242 3.14484 -8.94963
425 1 17.2966 17.2966 4.71726 -8.94962
426 1 18.8691 15.7242 3.14484 -8.94963
427 1 20.4415 17.2966 4.71726 -8.94963
428 1 1.02749e-08 18.8691 3.14484 -8.94963
429 1 1.57242 20.4415 4.71726 -8.94963
430 1 3.14484 18.8691 3.14484 -8.94963
431 1 4.71726 20.4415 4.71726 -8.94963
432 1 6.28969 18.8691 3.14484 -8.94963
433 1 7.86211 20.4415 4.71726 -8.94963
434 1 9.43453 18.8691 3.14484 -8.94963
435 1 11.007 20.4415 4.71726 -8.94963
436 1 12.5794 18.8691 3.14484 -8.94963
437 1 14.1518 20.4415 4.71726 -8.94963
438 1 15.7242 18.8691 3.14484 -8.94963
439 1 17.2966 20.4415 4.71726 -8.94963
440 1 18.8691 18.8691 3.14484 -8.94963
441 1 20.4415 20.4415 4.71726 -8.94963
502 1 12.5801 15.7241 9.43428 -8.98802
501 1 9.43385 15.7257 9.43429 -8.99505
500 1 6.28977 15.7241 9.43453 -8.95047
445 1 11.0221 11.0078 7.83344 -9.28237
499 1 3.14484 15.7242 9.43453 -8.94959
498 1 22.0139 15.7242 9.43453 -8.94963
497 1 18.8691 12.5794 9.43453 -8.94976
449 1 22.0139 12.5794 6.28969 -8.94963
450 1 1.57242 14.1518 7.86211 -8.94963
451 1 3.14483 12.5794 6.28968 -8.94965
452 1 4.7173 14.1517 7.86215 -8.95002
453 1 6.28947 12.5795 6.28948 -8.94869
454 1 7.86164 14.1518 7.86113 -8.98598
455 1 9.434 12.5795 6.28955 -9.00552
456 1 11.0075 14.151 7.86285 -9.05344
457 1 12.5796 12.5801 6.2897 -8.98833
458 1 14.1522 14.1522 7.86173 -8.94768
459 1 15.7242 12.5793 6.28974 -8.95001
460 1 17.2967 14.1518 7.8621 -8.9497
461 1 18.8691 12.5794 6.28969 -8.94962
462 1 20.4415 14.1518 7.86211 -8.94964
463 1 2.56596e-07 15.7242 6.28969 -8.94963
464 1 1.57242 17.2966 7.86211 -8.94963
465 1 3.14485 15.7242 6.28969 -8.94966
466 1 4.71727 17.2966 7.86211 -8.94967
467 1 6.28968 15.7242 6.28968 -8.94945
468 1 7.86208 17.2967 7.86208 -8.94921
469 1 9.43459 15.7241 6.28978 -8.95052
470 1 11.007 17.2965 7.86218 -8.95001
471 1 12.5793 15.7242 6.28973 -8.95009
472 1 14.1518 17.2967 7.86211 -8.94959
473 1 15.7242 15.7242 6.28966 -8.94946
474 1 17.2966 17.2966 7.86211 -8.94964
475 1 18.8691 15.7242 6.28969 -8.94963
476 1 20.4415 17.2966 7.86211 -8.94963
477 1 22.0139 18.8691 6.28969 -8.94963
478 1 1.57242 20.4415 7.86211 -8.94963
479 1 3.14484 18.8691 6.28969 -8.94963
480 1 4.71726 20.4415 7.86211 -8.94963
481 1 6.28969 18.8691 6.28969 -8.94962
482 1 7.86211 20.4415 7.86211 -8.94961
483 1 9.43453 18.869 6.28969 -8.94967
484 1 11.007 20.4415 7.86211 -8.94961
485 1 12.5794 18.8691 6.28969 -8.94966
486 1 14.1518 20.4415 7.86211 -8.94962
487 1 15.7242 18.8691 6.28969 -8.94963
488 1 17.2966 20.4415 7.86211 -8.94963
489 1 18.8691 18.8691 6.28969 -8.94963
490 1 20.4415 20.4415 7.86211 -8.94963
491 1 1.39933e-06 12.5794 9.43453 -8.94962
492 1 3.14488 12.5794 9.43453 -8.94939
493 1 6.29036 12.5786 9.43451 -8.99987
494 1 9.41665 12.6091 9.43038 -9.26845
495 1 12.5866 12.5823 9.43038 -9.01973
496 1 15.7246 12.5794 9.43451 -8.95183
536 1 11.007 20.4415 11.007 -8.95011
5 1 6.28969 22.0139 -1.78577e-09 -8.94963
516 1 14.1509 11.0068 11.0056 -9.0533
519 1 1.57242 14.1518 11.0069 -8.94962
520 1 4.71728 14.1518 11.0069 -8.94962
521 1 7.86193 14.1517 11.0071 -9.04156
522 1 11.0075 14.1817 10.9919 -9.28632
523 1 14.152 14.1521 11.0066 -9.00309
524 1 17.2967 14.1518 11.0069 -8.94931
525 1 20.4415 14.1518 11.0069 -8.94963
527 1 4.71727 17.2966 11.0069 -8.94967
535 1 7.86211 20.4415 11.007 -8.94963
531 1 17.2966 17.2966 11.007 -8.94965
353 1 3.14484 12.5794 4.47012e-08 -8.94963
687 2 11.0066 12.5838 11.7947 0.97084
686 1 20.4415 20.4415 20.4415 -8.94963
514 1 7.85807 11.0068 11.0094 -9.03793
685 1 18.8691 18.8691 18.8691 -8.94963
307 1 18.8691 22.0139 18.8691 -8.94963
684 1 17.2966 20.4415 20.4415 -8.94963
683 1 15.7242 18.8691 18.8691 -8.94963
303 1 12.5794 22.0139 18.8691 -8.94963
301 1 9.43453 22.0139 18.8691 -8.94963
297 1 3.14484 22.0139 18.8691 -8.94963
256 1 15.7242 22.0139 15.7242 -8.94963
250 1 6.28969 22.0139 15.7242 -8.94963
246 1 22.0139 22.0139 15.7242 -8.94963
209 1 18.8691 22.0139 12.5794 -8.94963
526 1 1.57242 17.2966 11.007 -8.94963
199 1 3.14484 22.0139 12.5794 -8.94963
528 1 7.86212 17.2966 11.007 -8.94982
529 1 11.007 17.2984 11.007 -8.95732
671 1 18.8691 15.7242 18.8691 -8.94963
670 1 17.2966 17.2966 20.4415 -8.94963
669 1 15.7242 15.7242 18.8691 -8.94966
533 1 1.57242 20.4415 11.007 -8.94963
534 1 4.71726 20.4415 11.007 -8.94963
668 1 14.1518 17.2966 20.4415 -8.94963
667 1 12.5794 15.7242 18.8691 -8.94966
666 1 11.007 17.2966 20.4415 -8.94963
538 1 17.2966 20.4415 11.007 -8.94963
539 1 20.4415 20.4415 11.007 -8.94963
682 1 14.1518 20.4415 20.4415 -8.94963
681 1 12.5794 18.8691 18.8691 -8.94964
542 1 7.86233 11.0062 14.1522 -8.98789
680 1 11.007 20.4415 20.4415 -8.94963
544 1 14.1514 11.0062 14.1519 -8.98774
679 1 9.43453 18.8691 18.8691 -8.94964
678 1 7.86211 20.4415 20.4415 -8.94963
547 1 22.0139 12.5794 12.5794 -8.94967
548 1 1.57242 14.1518 14.1518 -8.94962
549 1 3.14477 12.5794 12.5794 -8.95014
550 1 4.71724 14.1518 14.1518 -8.94919
551 1 6.28774 12.5795 12.5795 -8.95663
552 1 7.86232 14.1525 14.1521 -8.98733
553 1 9.4041 12.5792 12.5942 -9.28786
554 1 11.0069 14.1547 14.156 -8.98461
555 1 12.6093 12.5796 12.5936 -9.2713
556 1 14.1516 14.1525 14.152 -8.98727
557 1 15.7259 12.5793 12.5793 -8.95787
558 1 17.2966 14.1518 14.1518 -8.9493
559 1 18.8691 12.5794 12.5794 -8.95011
560 1 20.4415 14.1518 14.1518 -8.94963
561 1 2.56389e-07 15.7242 12.5794 -8.94963
562 1 1.57242 17.2966 14.1518 -8.94964
563 1 3.14485 15.7242 12.5794 -8.94966
564 1 4.71727 17.2966 14.1518 -8.94967
565 1 6.28974 15.7242 12.5794 -8.9501
566 1 7.86211 17.2967 14.1518 -8.94978
567 1 9.43444 15.7241 12.5799 -9.00472
568 1 11.0069 17.2968 14.1518 -8.95063
569 1 12.5795 15.7242 12.5799 -9.00421
570 1 14.1518 17.2967 14.1518 -8.94974
571 1 15.7242 15.7242 12.5794 -8.95008
572 1 17.2966 17.2966 14.1518 -8.94966
573 1 18.8691 15.7242 12.5794 -8.94963
574 1 20.4415 17.2966 14.1518 -8.94963
575 1 22.0139 18.8691 12.5794 -8.94963
576 1 1.57242 20.4415 14.1518 -8.94963
577 1 3.14484 18.8691 12.5794 -8.94963
578 1 4.71726 20.4415 14.1518 -8.94963
579 1 6.28968 18.8691 12.5794 -8.94962
580 1 7.86211 20.4415 14.1518 -8.94962
581 1 9.43449 18.8691 12.5794 -8.94929
582 1 11.007 20.4415 14.1518 -8.94969
583 1 12.5794 18.8691 12.5794 -8.94928
584 1 14.1518 20.4415 14.1518 -8.94962
585 1 15.7242 18.8691 12.5794 -8.94964
586 1 17.2966 20.4415 14.1518 -8.94963
587 1 18.8691 18.8691 12.5794 -8.94963
588 1 20.4415 20.4415 14.1518 -8.94963
677 1 6.28969 18.8691 18.8691 -8.94963
676 1 4.71726 20.4415 20.4415 -8.94963
591 1 7.86216 11.007 17.2966 -8.95003
592 1 11.007 11.007 17.2969 -8.95132
593 1 14.1517 11.007 17.2966 -8.94995
675 1 3.14484 18.8691 18.8691 -8.94963
674 1 1.57242 20.4415 20.4415 -8.94963
596 1 4.5247e-08 12.5794 15.7242 -8.94963
597 1 1.57242 14.1518 17.2966 -8.94963
598 1 3.14485 12.5794 15.7242 -8.94963
599 1 4.71727 14.1518 17.2966 -8.94967
600 1 6.28982 12.5794 15.7241 -8.9504
601 1 7.86216 14.1517 17.2966 -8.94997
602 1 9.43526 12.5794 15.7234 -8.99854
603 1 11.007 14.1518 17.2968 -8.95086
604 1 12.5786 12.5794 15.7234 -8.99842
605 1 14.1517 14.1517 17.2966 -8.94996
606 1 15.7241 12.5794 15.7241 -8.95039
607 1 17.2966 14.1518 17.2966 -8.94967
608 1 18.8691 12.5794 15.7242 -8.94961
609 1 20.4415 14.1518 17.2966 -8.94963
610 1 22.0139 15.7242 15.7242 -8.94963
611 1 1.57242 17.2966 17.2966 -8.94963
612 1 3.14484 15.7242 15.7242 -8.94961
613 1 4.71726 17.2966 17.2966 -8.94963
614 1 6.28968 15.7242 15.7242 -8.94955
615 1 7.8621 17.2966 17.2966 -8.94954
616 1 9.43436 15.7244 15.7244 -8.94866
617 1 11.007 17.2966 17.2966 -8.94966
618 1 12.5795 15.7244 15.7244 -8.94868
619 1 14.1518 17.2966 17.2966 -8.94954
620 1 15.7242 15.7242 15.7242 -8.94956
621 1 17.2966 17.2966 17.2966 -8.94964
622 1 18.8691 15.7242 15.7242 -8.94962
623 1 20.4415 17.2966 17.2966 -8.94963
624 1 1.0377e-08 18.8691 15.7242 -8.94963
625 1 1.57242 20.4415 17.2966 -8.94963
626 1 3.14484 18.8691 15.7242 -8.94963
627 1 4.71726 20.4415 17.2966 -8.94963
628 1 6.28969 18.8691 15.7242 -8.94963
629 1 7.86211 20.4415 17.2966 -8.94963
630 1 9.43453 18.8691 15.7242 -8.94967
631 1 11.007 20.4415 17.2966 -8.94963
632 1 12.5794 18.8691 15.7242 -8.94968
633 1 14.1518 20.4415 17.2966 -8.94963
634 1 15.7242 18.8691 15.7242 -8.94963
635 1 17.2966 20.4415 17.2966 -8.94963
636 1 18.8691 18.8691 15.7242 -8.94963
637 1 20.4415 20.4415 17.2966 -8.94963
11 1 15.7242 22.0139 22.0139 -8.94963
673 1 22.0139 18.8691 18.8691 -8.94963
640 1 7.86211 11.007 20.4415 -8.94963
641 1 11.007 11.007 20.4415 -8.94973
642 1 14.1518 11.007 20.4415 -8.94962
672 1 20.4415 17.2966 20.4415 -8.94963
391 1 18.8691 18.8691 22.0139 -8.94963
645 1 22.0139 12.5794 18.8691 -8.94963
646 1 1.57242 14.1518 20.4415 -8.94963
647 1 3.14484 12.5794 18.8691 -8.94963
648 1 4.71726 14.1518 20.4415 -8.94963
649 1 6.28968 12.5794 18.8691 -8.9496
650 1 7.86211 14.1518 20.4415 -8.94962
651 1 9.43452 12.5794 18.869 -8.94932
652 1 11.007 14.1518 20.4415 -8.9497
653 1 12.5794 12.5794 18.869 -8.94932
654 1 14.1518 14.1518 20.4415 -8.94962
655 1 15.7242 12.5794 18.8691 -8.9496
656 1 17.2966 14.1518 20.4415 -8.94963
657 1 18.8691 12.5794 18.8691 -8.94963
658 1 20.4415 14.1518 20.4415 -8.94963
659 1 2.40501e-09 15.7242 18.8691 -8.94963
660 1 1.57242 17.2966 20.4415 -8.94963
661 1 3.14484 15.7242 18.8691 -8.94963
662 1 4.71726 17.2966 20.4415 -8.94963
663 1 6.28969 15.7242 18.8691 -8.94966
664 1 7.86211 17.2966 20.4415 -8.94963
665 1 9.43452 15.7242 18.8691 -8.94966
207 1 15.7242 22.0139 12.5794 -8.94963
355 1 6.28969 12.5794 22.0139 -8.94964
357 1 9.43453 12.5794 22.0139 -8.94962
359 1 12.5794 12.5794 22.0139 -8.94962
365 1 2.50137e-09 15.7242 22.0139 -8.94963
367 1 3.14484 15.7242 22.0139 -8.94963
369 1 6.28969 15.7242 22.0139 -8.94963
375 1 15.7242 15.7242 22.0139 -8.94963
381 1 3.14484 18.8691 22.0139 -8.94963
385 1 9.43453 18.8691 22.0139 -8.94963
387 1 12.5794 18.8691 22.0139 -8.94963
595 1 20.4415 11.007 17.2966 -8.94963
594 1 17.2966 11.007 17.2966 -8.94966
590 1 4.71727 11.007 17.2966 -8.94966
589 1 1.57242 11.007 17.2966 -8.94963
201 1 6.28969 22.0139 12.5794 -8.94963
351 1 22.0139 12.5794 22.0139 -8.94963
363 1 18.8691 12.5794 22.0139 -8.94963
1 1 6.88175e-11 22.0139 22.0139 -8.94963
530 1 14.1517 17.2966 11.007 -8.95022
532 1 20.4415 17.2966 11.007 -8.94963
