ITEM: TIMESTEP
66
ITEM: NUMBER OF ATOMS
688
ITEM: BOX BOUNDS pp pp pp
0.0000000000000000e+00 2.2013900999999997e+01
0.0000000000000000e+00 2.2013900999999997e+01
0.0000000000000000e+00 2.2013900999999997e+01
ITEM: ATOMS id type x y z c_pot
175 1 18.8704 9.4339 9.43404 -8.94977
2 1 1.57224 1.57236 1.57225 -8.94949
517 1 17.2992 11.0058 11.0062 -8.94746
4 1 4.71702 1.57234 1.57218 -8.94964
174 1 15.7274 9.43263 9.43362 -8.95149
6 1 7.86198 1.57233 1.57219 -8.9496
448 1 20.4419 11.0068 7.86173 -8.94955
8 1 11.007 1.57233 1.57221 -8.9496
9 1 12.5794 4.31673e-05 -3.76747e-05 -8.94963
10 1 14.152 1.57231 1.57218 -8.94962
173 1 12.5904 9.42335 9.43159 -9.01486
12 1 17.2969 1.57231 1.57221 -8.94958
13 1 18.8692 4.71534e-05 -2.68059e-05 -8.94955
14 1 20.4416 1.57236 1.5723 -8.94953
447 1 17.2977 11.0068 7.8615 -8.94938
16 1 1.57223 4.71709 1.57227 -8.9496
17 1 3.1446 3.14465 -3.21935e-05 -8.94957
18 1 4.71687 4.71694 1.57211 -8.9496
446 1 14.1532 11.0062 7.86147 -9.0012
20 1 7.8619 4.71689 1.57213 -8.94965
21 1 9.43446 3.14461 -5.60859e-06 -8.94962
22 1 11.007 4.71687 1.57211 -8.94961
23 1 12.5795 3.1446 -2.16695e-05 -8.94962
24 1 14.152 4.71685 1.57211 -8.94973
444 1 7.85937 11.0068 7.85898 -8.98117
26 1 17.2971 4.71687 1.57212 -8.94943
27 1 18.8693 3.14464 -1.74587e-05 -8.94952
28 1 20.4416 4.71707 1.57228 -8.9496
29 1 -2.70421e-05 6.28953 1.77691e-05 -8.94961
30 1 1.57223 7.86199 1.57228 -8.94962
443 1 4.7163 11.0068 7.86162 -8.95018
32 1 4.71685 7.86191 1.57217 -8.94969
33 1 6.28929 6.28929 -4.85413e-05 -8.94964
34 1 7.86161 7.86157 1.57178 -8.94969
442 1 1.57208 11.0068 7.86172 -8.94966
36 1 11.007 7.86164 1.57178 -8.94948
397 1 14.1527 11.0068 4.71578 -8.94936
38 1 14.1525 7.86141 1.57152 -8.94969
39 1 15.7247 6.28921 -0.000143737 -8.94959
40 1 17.2971 7.8619 1.57213 -8.94969
396 1 11.0076 11.007 4.70758 -8.96415
42 1 20.4416 7.86198 1.57229 -8.94962
395 1 7.86218 11.0069 4.71611 -8.95059
44 1 3.14455 9.43443 1.85012e-05 -8.94959
350 1 20.4416 11.0069 1.57227 -8.94961
518 1 20.4422 11.0066 11.0067 -8.94968
47 1 12.5797 9.43419 -0.000412345 -8.95004
348 1 14.1524 11.0069 1.57159 -8.94933
49 1 18.8693 9.43444 -1.05769e-05 -8.94961
172 1 9.41113 9.37862 9.43412 -9.24102
51 1 1.57217 1.57236 4.71701 -8.94963
171 1 6.28852 9.43364 9.43391 -9.00208
53 1 4.71663 1.57222 4.71663 -8.94942
54 1 6.28939 9.95916e-05 3.14439 -8.94963
55 1 7.8618 1.57223 4.71663 -8.94954
170 1 3.14396 9.43392 9.43405 -8.9491
57 1 11.007 1.5722 4.71661 -8.94955
169 1 4.35545e-05 9.43419 9.43418 -8.94964
59 1 14.1523 1.57217 4.71662 -8.94958
60 1 15.7246 8.92523e-05 3.14441 -8.94961
61 1 17.2971 1.57231 4.71684 -8.94952
168 1 18.8699 6.28903 9.43433 -8.9496
63 1 20.4416 1.57235 4.71705 -8.94961
64 1 -4.67002e-05 3.14469 3.14463 -8.94958
65 1 1.5721 4.71699 4.71693 -8.94964
66 1 3.14442 3.14458 3.14444 -8.94937
67 1 4.71633 4.71648 4.71635 -8.94887
68 1 6.28935 3.14455 3.14436 -8.94973
69 1 7.86177 4.71653 4.71638 -8.95
70 1 9.43443 3.14449 3.14434 -8.94958
71 1 11.0071 4.7164 4.71636 -8.9495
72 1 12.5795 3.14448 3.14432 -8.9496
73 1 14.1525 4.71624 4.71629 -8.94974
74 1 15.7247 3.14445 3.14436 -8.94959
75 1 17.2973 4.71672 4.71667 -8.94936
76 1 18.8694 3.14463 3.14457 -8.94952
77 1 20.4417 4.71698 4.71697 -8.94959
78 1 22.0139 6.2895 3.1446 -8.94964
79 1 1.57215 7.86191 4.71688 -8.94964
80 1 3.14443 6.28944 3.14447 -8.94961
81 1 4.71653 7.86168 4.71652 -8.94942
82 1 6.28905 6.2891 3.14396 -8.9498
83 1 7.86137 7.86104 4.71555 -8.95095
84 1 9.43438 6.289 3.14417 -8.94954
85 1 11.0069 7.86146 4.71599 -8.94978
86 1 12.5796 6.289 3.14405 -8.94994
87 1 14.1538 7.86013 4.71491 -8.9478
88 1 15.7251 6.28887 3.14391 -8.94911
89 1 17.2975 7.86165 4.71658 -8.94994
90 1 18.8695 6.28939 3.14449 -8.94967
91 1 20.4417 7.8619 4.71691 -8.9497
92 1 -2.66711e-05 9.43445 3.14459 -8.9496
93 1 3.14447 9.43441 3.14448 -8.9496
94 1 6.28918 9.43439 3.14417 -8.94994
95 1 9.43394 9.4337 3.14324 -8.9481
96 1 12.5805 9.4335 3.1424 -8.94953
97 1 15.725 9.43428 3.14413 -8.9497
98 1 18.8694 9.43443 3.14448 -8.94959
99 1 -5.18895e-05 8.81753e-05 6.28952 -8.94962
100 1 1.57216 1.57235 7.86198 -8.94961
101 1 3.14437 0.000114076 6.28936 -8.94961
102 1 4.71661 1.57224 7.86181 -8.94952
167 1 15.7258 6.28796 9.4342 -8.94936
104 1 7.86129 1.57168 7.86132 -8.95004
105 1 9.43435 0.000263373 6.2889 -8.94948
106 1 11.0072 1.57174 7.86132 -8.94967
107 1 12.5798 0.000256934 6.2889 -8.94957
108 1 14.1526 1.57208 7.86152 -8.94975
166 1 12.5814 6.28426 9.43321 -8.94967
110 1 17.2972 1.57226 7.86186 -8.94958
111 1 18.8694 8.523e-05 6.28944 -8.94963
112 1 20.4416 1.57235 7.862 -8.94962
113 1 22.0139 3.14466 6.2895 -8.94963
114 1 1.57213 4.71693 7.86191 -8.94963
115 1 3.14433 3.14458 6.28937 -8.9497
116 1 4.71634 4.71649 7.86168 -8.94983
117 1 6.28857 3.14371 6.28858 -8.94937
118 1 7.86022 4.71369 7.86027 -8.94877
119 1 9.43442 3.14385 6.28884 -8.94936
120 1 11.0078 4.7141 7.86065 -8.94753
121 1 12.58 3.14377 6.28871 -8.94946
122 1 14.1532 4.71527 7.86109 -8.94961
123 1 15.725 3.1442 6.28902 -8.94953
124 1 17.2975 4.71653 7.86169 -8.94964
125 1 18.8695 3.14456 6.2894 -8.94963
126 1 20.4417 4.71692 7.86191 -8.94963
127 1 -2.21967e-05 6.28937 6.28936 -8.94968
128 1 1.57202 7.86172 7.86173 -8.94974
129 1 3.14405 6.28917 6.28912 -8.94991
130 1 4.71589 7.86129 7.86147 -8.95115
131 1 6.28752 6.28738 6.28745 -8.94691
132 1 7.85637 7.855 7.85583 -8.98
133 1 9.43468 6.2879 6.28889 -8.95017
134 1 11.0099 7.85837 7.86006 -9.00059
135 1 12.5805 6.28742 6.28813 -8.95063
136 1 14.1554 7.85843 7.85986 -8.94627
137 1 15.7258 6.28827 6.28843 -8.94871
138 1 17.2983 7.86106 7.86133 -8.94978
139 1 18.8698 6.28917 6.28918 -8.94957
140 1 20.442 7.86168 7.8617 -8.94971
141 1 22.0139 9.43438 6.28932 -8.94967
142 1 3.14424 9.43432 6.28911 -8.94979
143 1 6.28833 9.43386 6.28825 -8.94889
144 1 9.4331 9.43223 6.2884 -9.00398
145 1 12.5847 9.42857 6.284 -8.98252
146 1 15.7258 9.43398 6.28871 -8.95109
147 1 18.8697 9.43431 6.28918 -8.94976
165 1 9.43278 6.27472 9.43341 -8.96313
164 1 6.28865 6.28773 9.43436 -8.94976
150 1 6.28889 0.000309136 9.43435 -8.94954
163 1 3.14414 6.28905 9.43436 -8.94946
162 1 22.0139 6.28932 9.43438 -8.94966
153 1 15.7249 0.000225768 9.43435 -8.94959
161 1 18.8695 3.14453 9.43442 -8.94961
155 1 -3.58399e-05 3.14465 9.43447 -8.94962
156 1 3.14433 3.14451 9.43443 -8.94959
157 1 6.28873 3.1437 9.43434 -8.9493
158 1 9.43407 3.14145 9.43407 -8.95302
159 1 12.5801 3.14293 9.43404 -8.94997
160 1 15.7251 3.144 9.43428 -8.94953
344 1 1.57224 11.0069 1.57227 -8.94962
345 1 4.71686 11.0069 1.57212 -8.94957
346 1 7.8618 11.0069 1.5719 -8.94954
347 1 11.007 11.0069 1.57044 -8.95218
513 1 4.7143 11.0059 11.0065 -8.94905
181 1 17.2972 1.57222 11.007 -8.94958
188 1 17.2976 4.71642 11.007 -8.94956
190 1 1.572 7.86168 11.0069 -8.94972
191 1 4.71581 7.86106 11.007 -8.95106
192 1 7.85712 7.85487 11.0126 -8.98064
193 1 11.0098 7.84379 11.01 -9.01629
512 1 1.57159 11.0066 11.0067 -8.94986
177 1 4.7166 1.5722 11.007 -8.94952
184 1 4.71625 4.71635 11.0071 -8.94969
189 1 20.4418 4.71692 11.0069 -8.94961
7 1 9.43449 4.47303e-05 -3.36143e-05 -8.94962
643 1 17.297 11.0069 20.4416 -8.94958
644 1 20.4416 11.0069 20.4417 -8.9496
178 1 7.86132 1.57158 11.0072 -8.94991
179 1 11.0072 1.57142 11.0072 -8.95086
180 1 14.1525 1.57192 11.007 -8.94968
639 1 4.71685 11.0069 20.4418 -8.94961
182 1 20.4416 1.57234 11.007 -8.94962
183 1 1.57211 4.71691 11.0069 -8.94961
638 1 1.57221 11.0069 20.4417 -8.94959
185 1 7.8604 4.71348 11.0081 -8.94872
186 1 11.0079 4.71135 11.008 -8.952
187 1 14.1531 4.71499 11.0072 -8.94978
48 1 15.7247 9.43438 22.0138 -8.94961
35 1 9.43439 6.28927 22.0139 -8.9496
46 1 9.43425 9.4342 22.0136 -8.94979
45 1 6.28932 9.4344 22.0139 -8.94972
43 1 22.0139 9.43445 22.0139 -8.9496
546 1 20.4422 11.0066 14.1523 -8.9499
194 1 14.155 7.85757 11.0078 -8.94864
195 1 17.2983 7.86089 11.007 -8.94989
196 1 20.442 7.86166 11.0069 -8.94972
197 1 -5.401e-05 7.57746e-05 12.5794 -8.94961
198 1 1.57215 1.57234 14.152 -8.94964
343 1 18.8694 9.43441 18.8695 -8.94963
200 1 4.71657 1.57212 14.1523 -8.94953
41 1 18.8693 6.28946 22.0139 -8.94964
202 1 7.86155 1.57199 14.1525 -8.94966
203 1 9.43415 0.00054446 12.58 -8.94974
204 1 11.007 1.57185 14.1525 -8.94959
205 1 12.5801 0.000498148 12.58 -8.94984
206 1 14.1525 1.5719 14.1525 -8.94965
37 1 12.5795 6.28927 22.0139 -8.94961
208 1 17.2972 1.5722 14.1521 -8.94959
342 1 15.7248 9.43429 18.8697 -8.94988
210 1 20.4416 1.57234 14.1519 -8.94963
211 1 22.0139 3.14465 12.5794 -8.94962
212 1 1.57202 4.71688 14.152 -8.9497
213 1 3.14429 3.14451 12.5795 -8.94965
214 1 4.71608 4.71617 14.1526 -8.9491
215 1 6.28851 3.14353 12.5802 -8.94946
216 1 7.86102 4.71521 14.1532 -8.94978
217 1 9.43407 3.14284 12.5802 -8.9497
218 1 11.0071 4.71501 14.1531 -8.94954
219 1 12.5804 3.14274 12.5804 -8.94986
220 1 14.1533 4.71502 14.1532 -8.94933
221 1 15.7251 3.14398 12.5797 -8.94961
222 1 17.2976 4.71648 14.1523 -8.94953
223 1 18.8695 3.14451 12.5795 -8.94961
224 1 20.4418 4.7169 14.152 -8.94964
225 1 -4.22281e-05 6.28932 12.5795 -8.94974
226 1 1.57187 7.86166 14.1521 -8.94965
227 1 3.14392 6.28903 12.5796 -8.94994
228 1 4.71565 7.86089 14.1528 -8.94974
229 1 6.2872 6.28692 12.5813 -8.94753
230 1 7.85931 7.85814 14.1554 -8.95023
231 1 9.4333 6.28451 12.5814 -8.94848
232 1 11.007 7.85799 14.1545 -8.95125
233 1 12.582 6.28371 12.5821 -8.94868
234 1 14.1555 7.85761 14.1554 -8.94737
235 1 15.7261 6.28783 12.5802 -8.94909
236 1 17.2981 7.86112 14.1524 -8.95043
237 1 18.8699 6.28902 12.5796 -8.94963
238 1 20.4419 7.8617 14.1521 -8.94972
239 1 22.0138 9.43419 12.5795 -8.9497
240 1 3.14341 9.43394 12.5797 -8.94972
241 1 6.28651 9.43294 12.5811 -8.9493
242 1 9.4289 9.42648 12.5862 -9.04944
243 1 12.5873 9.42293 12.5878 -9.02405
244 1 15.7267 9.43339 12.5796 -8.95209
245 1 18.8702 9.43406 12.5795 -8.9496
341 1 12.5799 9.43392 18.8704 -8.95027
247 1 1.57219 1.57233 17.2969 -8.94955
248 1 3.14439 0.000112098 15.7246 -8.94954
249 1 4.71683 1.57226 17.2971 -8.94959
340 1 9.43418 9.4339 18.8705 -8.95011
251 1 7.86187 1.57219 17.2972 -8.94962
252 1 9.4344 0.000110707 15.7248 -8.94961
253 1 11.007 1.57216 17.2972 -8.94961
254 1 12.5796 7.63194e-05 15.7248 -8.94961
255 1 14.1521 1.57217 17.2972 -8.94964
339 1 6.28906 9.43421 18.87 -8.94998
257 1 17.2971 1.57225 17.2971 -8.94952
258 1 18.8694 7.08358e-05 15.7245 -8.94962
259 1 20.4416 1.57233 17.2969 -8.9496
260 1 -4.4631e-05 3.14463 15.7244 -8.94962
261 1 1.57213 4.71693 17.297 -8.94963
262 1 3.14428 3.14444 15.7247 -8.94946
263 1 4.71653 4.71656 17.2974 -8.94946
264 1 6.28901 3.14412 15.725 -8.94965
265 1 7.86165 4.71638 17.2976 -8.9496
266 1 9.43428 3.14394 15.7251 -8.94963
267 1 11.007 4.71633 17.2976 -8.94949
268 1 12.5797 3.14396 15.7251 -8.94967
269 1 14.1523 4.71637 17.2976 -8.94968
270 1 15.725 3.14401 15.725 -8.94949
271 1 17.2974 4.71656 17.2974 -8.94933
272 1 18.8695 3.14451 15.7245 -8.9496
273 1 20.4417 4.71694 17.2969 -8.94964
274 1 22.0138 6.28932 15.7245 -8.94967
275 1 1.57197 7.86168 17.2972 -8.94954
276 1 3.14408 6.28908 15.7248 -8.94966
277 1 4.7161 7.86123 17.2978 -8.94911
278 1 6.28824 6.28797 15.7259 -8.94937
279 1 7.86104 7.86074 17.2986 -8.94925
280 1 9.43409 6.28766 15.726 -8.94973
281 1 11.007 7.86075 17.2985 -8.94904
282 1 12.5801 6.28763 15.7259 -8.95014
283 1 14.1531 7.8607 17.2985 -8.94923
284 1 15.7258 6.28801 15.7257 -8.94876
285 1 17.2977 7.86138 17.2976 -8.94928
286 1 18.8697 6.28913 15.7247 -8.94978
287 1 20.4418 7.86171 17.2971 -8.94954
288 1 -0.000101819 9.43417 15.7247 -8.94972
289 1 3.1435 9.43379 15.7253 -8.94949
290 1 6.28724 9.43256 15.7268 -8.94783
291 1 9.43288 9.43136 15.7287 -8.94739
292 1 12.5815 9.4312 15.7287 -8.94812
293 1 15.7263 9.43283 15.726 -8.94812
294 1 18.8702 9.4339 15.7251 -8.94944
295 1 -3.87277e-05 7.16094e-05 18.8692 -8.94955
296 1 1.57227 1.57235 20.4416 -8.94954
338 1 3.14441 9.43436 18.8695 -8.94961
298 1 4.71704 1.57231 20.4416 -8.94962
299 1 6.28947 5.5072e-05 18.8694 -8.94963
300 1 7.862 1.57231 20.4416 -8.94961
337 1 22.0138 9.43438 18.8694 -8.94959
302 1 11.007 1.57231 20.4417 -8.94961
336 1 20.4416 7.86194 20.4417 -8.94963
304 1 14.1519 1.57229 20.4416 -8.94961
305 1 15.7245 3.9336e-05 18.8694 -8.94963
306 1 17.2969 1.5723 20.4416 -8.9496
335 1 18.8695 6.28929 18.8695 -8.94948
308 1 20.4416 1.57235 20.4416 -8.94952
309 1 22.0139 3.14466 18.8693 -8.94959
310 1 1.57223 4.71702 20.4417 -8.94954
311 1 3.14451 3.14457 18.8694 -8.94954
312 1 4.7169 4.7169 20.4417 -8.94957
313 1 6.28936 3.14449 18.8695 -8.94962
314 1 7.86189 4.71687 20.4418 -8.94962
315 1 9.43441 3.14447 18.8695 -8.94958
316 1 11.007 4.71688 20.4418 -8.94961
317 1 12.5795 3.14447 18.8695 -8.94958
318 1 14.152 4.71685 20.4418 -8.94963
319 1 15.7246 3.14447 18.8695 -8.94962
320 1 17.297 4.71689 20.4417 -8.94951
321 1 18.8694 3.14458 18.8693 -8.94949
322 1 20.4416 4.71704 20.4416 -8.94955
323 1 -4.29863e-05 6.28939 18.8694 -8.94954
324 1 1.57222 7.86193 20.4417 -8.94963
325 1 3.14436 6.28926 18.8695 -8.94943
326 1 4.71683 7.86183 20.4418 -8.94971
327 1 6.28905 6.28902 18.8699 -8.94951
328 1 7.86168 7.86162 20.442 -8.94974
329 1 9.43433 6.28896 18.8699 -8.94957
330 1 11.007 7.86161 20.442 -8.9496
331 1 12.5796 6.28894 18.8699 -8.94958
332 1 14.1523 7.86159 20.4419 -8.9498
333 1 15.7249 6.28899 18.8699 -8.94946
334 1 17.297 7.86185 20.4417 -8.94967
545 1 17.2994 11.0058 14.1531 -8.94866
543 1 11.0075 11 14.1667 -9.00221
515 1 11.031 10.9456 11.0378 -9.42652
541 1 4.71416 11.0058 14.1536 -8.94857
540 1 1.57141 11.0066 14.1524 -8.94987
31 1 3.14455 6.28946 22.0139 -8.94963
15 1 22.0139 3.14471 22.0139 -8.94954
19 1 6.28949 3.14462 22.0139 -8.94964
25 1 15.7245 3.14459 22.0139 -8.94966
3 1 3.14464 5.53236e-05 22.0139 -8.94959
176 1 1.57216 1.57234 11.007 -8.94961
688 2 10.1991 11.0157 9.40995 0.807361
511 1 18.8696 18.8696 9.43438 -8.9496
510 1 15.7253 18.8702 9.43424 -8.94982
509 1 12.581 18.8731 9.43312 -8.9495
508 1 9.43317 18.8748 9.4332 -8.95251
507 1 6.28839 18.8707 9.43424 -8.94961
506 1 3.1441 18.8697 9.43437 -8.94959
349 1 17.2971 11.0069 1.57212 -8.94959
352 1 1.57223 14.1519 1.57226 -8.94962
154 1 18.8694 22.014 9.43445 -8.9496
354 1 4.71683 14.1519 1.57212 -8.94965
152 1 12.58 22.0146 9.4341 -8.95003
356 1 7.8616 14.1523 1.57164 -8.94967
151 1 9.43415 22.0146 9.43411 -8.95093
358 1 11.0069 14.1522 1.57158 -8.94943
149 1 3.14437 22.014 9.43445 -8.94959
360 1 14.1525 14.1524 1.57135 -8.94963
361 1 15.7247 12.5795 -0.000209663 -8.94954
362 1 17.2971 14.152 1.57211 -8.94965
537 1 14.1526 20.4426 11.007 -8.94951
364 1 20.4416 14.1519 1.57228 -8.94962
148 1 -3.89709e-05 22.014 9.43448 -8.94961
366 1 1.57222 17.2968 1.57224 -8.94963
109 1 15.7249 22.0142 6.28909 -8.94955
368 1 4.71683 17.297 1.57203 -8.94962
103 1 6.28888 22.0142 6.28887 -8.94962
370 1 7.86187 17.2971 1.57194 -8.94973
371 1 9.43441 15.7246 -0.000198079 -8.94968
372 1 11.007 17.2971 1.57193 -8.94964
373 1 12.5795 15.7246 -0.000240298 -8.94968
374 1 14.1521 17.2971 1.57193 -8.94984
62 1 18.8693 22.014 3.14457 -8.94952
376 1 17.2971 17.297 1.57206 -8.94943
377 1 18.8693 15.7244 -2.57282e-05 -8.94964
378 1 20.4416 17.2968 1.57227 -8.94962
379 1 22.0139 18.8692 1.44938e-06 -8.94959
380 1 1.57222 20.4416 1.57224 -8.94952
58 1 12.5795 22.014 3.1444 -8.94959
382 1 4.71699 20.4417 1.57215 -8.94963
383 1 6.28948 18.8693 -5.64115e-05 -8.94967
384 1 7.86197 20.4417 1.57214 -8.9496
56 1 9.43446 22.014 3.1444 -8.9496
386 1 11.007 20.4417 1.57215 -8.94959
52 1 3.14447 22.014 3.14446 -8.94943
388 1 14.152 20.4417 1.57213 -8.94962
389 1 15.7245 18.8694 -7.39823e-05 -8.94968
390 1 17.2969 20.4417 1.57217 -8.94957
50 1 22.0138 22.014 3.14465 -8.94957
392 1 20.4416 20.4416 1.57229 -8.94957
393 1 1.57215 11.0069 4.71686 -8.94955
394 1 4.71668 11.0069 4.71655 -8.94912
505 1 -5.34258e-05 18.8694 9.4344 -8.94961
504 1 18.8703 15.725 9.43406 -8.94959
503 1 15.7269 15.7261 9.43349 -8.95013
398 1 17.2974 11.0068 4.7166 -8.94942
399 1 20.4417 11.0069 4.71689 -8.9496
400 1 -3.21493e-05 12.5794 3.14459 -8.9496
401 1 1.57211 14.1519 4.71686 -8.94961
402 1 3.14446 12.5794 3.14447 -8.94959
403 1 4.71637 14.1521 4.71643 -8.94946
404 1 6.28914 12.5794 3.1441 -8.94987
405 1 7.86113 14.1529 4.71523 -8.95092
406 1 9.43384 12.5802 3.14301 -8.94809
407 1 11.0069 14.1526 4.71556 -8.94978
408 1 12.5806 12.5804 3.14214 -8.94967
409 1 14.154 14.1537 4.71469 -8.9474
410 1 15.725 12.5795 3.14408 -8.94965
411 1 17.2976 14.1521 4.71659 -8.94999
412 1 18.8694 12.5794 3.14449 -8.94958
413 1 20.4417 14.1519 4.71691 -8.94968
414 1 22.0139 15.7244 3.14459 -8.94964
415 1 1.57203 17.2969 4.71684 -8.94968
416 1 3.1444 15.7244 3.14442 -8.94961
417 1 4.71615 17.2976 4.7161 -8.9489
418 1 6.28893 15.7248 3.14373 -8.94977
419 1 7.86155 17.2977 4.71601 -8.95024
420 1 9.4344 15.7249 3.1439 -8.94971
421 1 11.0071 17.2977 4.71603 -8.94936
422 1 12.5796 15.7249 3.14381 -8.95013
423 1 14.1527 17.2979 4.71588 -8.95
424 1 15.7252 15.725 3.14376 -8.94899
425 1 17.2974 17.2972 4.71661 -8.94952
426 1 18.8695 15.7245 3.14447 -8.94968
427 1 20.4417 17.2969 4.71692 -8.94965
428 1 -7.38685e-05 18.8693 3.1446 -8.9496
429 1 1.57214 20.4417 4.71696 -8.94959
430 1 3.14438 18.8694 3.14437 -8.94938
431 1 4.71649 20.442 4.71648 -8.9493
432 1 6.28923 18.8695 3.14414 -8.94976
433 1 7.86181 20.442 4.71653 -8.94958
434 1 9.43443 18.8696 3.14418 -8.94958
435 1 11.007 20.442 4.71652 -8.94953
436 1 12.5796 18.8696 3.14417 -8.94958
437 1 14.1523 20.442 4.71652 -8.94964
438 1 15.7248 18.8696 3.14417 -8.94964
439 1 17.2972 20.4419 4.71674 -8.94937
440 1 18.8694 18.8693 3.14453 -8.9496
441 1 20.4416 20.4417 4.717 -8.94958
502 1 12.5864 15.7334 9.42822 -8.98078
501 1 9.4276 15.743 9.42889 -8.99662
500 1 6.28692 15.727 9.4336 -8.95001
445 1 11.0321 11.0086 7.81563 -9.27219
499 1 3.14345 15.7251 9.43404 -8.94941
498 1 22.0138 15.7247 9.43421 -8.94974
497 1 18.8702 12.5794 9.43422 -8.94975
449 1 22.0139 12.5794 6.28931 -8.94968
450 1 1.57193 14.152 7.86172 -8.94982
451 1 3.14411 12.5794 6.2891 -8.94972
452 1 4.71554 14.1524 7.86145 -8.95156
453 1 6.28817 12.5798 6.28834 -8.9486
454 1 7.85529 14.1592 7.85505 -8.98072
455 1 9.43257 12.5821 6.28815 -9.00372
456 1 11.0098 14.1552 7.85943 -9.05532
457 1 12.5852 12.5855 6.28323 -8.98192
458 1 14.1552 14.1542 7.85975 -8.94741
459 1 15.7258 12.5794 6.28888 -8.95097
460 1 17.2981 14.1522 7.86144 -8.95012
461 1 18.8698 12.5794 6.28922 -8.94969
462 1 20.4419 14.152 7.86174 -8.94975
463 1 -7.97622e-05 15.7244 6.28932 -8.94975
464 1 1.57187 17.2971 7.86171 -8.94961
465 1 3.14388 15.7246 6.28901 -8.95
466 1 4.71576 17.2978 7.8613 -8.9498
467 1 6.28716 15.7268 6.28714 -8.94674
468 1 7.85856 17.3019 7.85874 -8.94661
469 1 9.4344 15.7264 6.28792 -8.95159
470 1 11.0079 17.3007 7.86013 -8.94763
471 1 12.5809 15.7269 6.28717 -8.95225
472 1 14.1546 17.2999 7.85969 -8.94707
473 1 15.7257 15.7253 6.28842 -8.94902
474 1 17.298 17.2976 7.86137 -8.9497
475 1 18.8697 15.7246 6.28917 -8.94967
476 1 20.4419 17.2971 7.86174 -8.94964
477 1 22.0138 18.8694 6.28938 -8.94961
478 1 1.57212 20.4417 7.86192 -8.9496
479 1 3.14408 18.8696 6.28914 -8.94963
480 1 4.71647 20.4421 7.86172 -8.9496
481 1 6.28818 18.8708 6.28816 -8.94873
482 1 7.86098 20.4433 7.86096 -8.94988
483 1 9.43426 18.8706 6.28846 -8.94948
484 1 11.0072 20.4432 7.86116 -8.94945
485 1 12.5801 18.8706 6.28838 -8.9496
486 1 14.1529 20.4428 7.86119 -8.94956
487 1 15.7255 18.8702 6.28859 -8.94887
488 1 17.2973 20.4419 7.86178 -8.94968
489 1 18.8696 18.8695 6.28925 -8.94958
490 1 20.4417 20.4417 7.86194 -8.94963
491 1 -2.64635e-05 12.5794 9.43423 -8.94956
492 1 3.14383 12.5794 9.43426 -8.94929
493 1 6.28784 12.5795 9.43458 -9.00384
494 1 9.41011 12.6346 9.43381 -9.24971
495 1 12.5883 12.5846 9.43143 -9.01887
496 1 15.727 12.5796 9.43432 -8.9519
536 1 11.0072 20.4447 11.0072 -8.95293
5 1 6.28954 22.0139 -4.93642e-05 -8.94963
516 1 14.1535 11.0032 11.0033 -9.05064
519 1 1.57149 14.1522 11.0067 -8.94994
520 1 4.71386 14.1532 11.0065 -8.94979
521 1 7.85395 14.1613 11.0107 -9.03263
522 1 11.0093 14.2127 10.9852 -9.26218
523 1 14.1561 14.1563 11.0051 -9.00052
524 1 17.2994 14.153 11.0063 -8.94836
525 1 20.4422 14.1522 11.0067 -8.94984
527 1 4.71579 17.2979 11.007 -8.94961
535 1 7.86123 20.4431 11.0073 -8.94979
531 1 17.2978 17.2976 11.0069 -8.94952
353 1 3.14454 12.5794 3.08547e-07 -8.94959
687 2 11.0005 12.6078 11.7889 0.796045
686 1 20.4416 20.4416 20.4416 -8.94949
514 1 7.85609 11.0035 11.0097 -9.0345
685 1 18.8694 18.8694 18.8694 -8.94939
307 1 18.8693 22.014 18.8693 -8.94954
684 1 17.2969 20.4417 20.4416 -8.94961
683 1 15.7246 18.8695 18.8695 -8.94962
303 1 12.5795 22.0139 18.8694 -8.94959
301 1 9.43447 22.0139 18.8694 -8.94959
297 1 3.14457 22.014 18.8693 -8.94957
256 1 15.7248 22.0141 15.7248 -8.94955
250 1 6.28916 22.0141 15.7249 -8.94961
246 1 22.0138 22.014 15.7244 -8.94961
209 1 18.8694 22.014 12.5795 -8.9496
526 1 1.57188 17.2972 11.0069 -8.94958
199 1 3.14438 22.014 12.5795 -8.94958
528 1 7.86002 17.3012 11.0083 -8.94956
529 1 11.0078 17.311 11.0075 -8.96501
671 1 18.8693 15.7244 18.8694 -8.9497
670 1 17.297 17.297 20.4417 -8.94962
669 1 15.7247 15.7247 18.8697 -8.94993
533 1 1.57213 20.4417 11.007 -8.94958
534 1 4.71645 20.4421 11.0071 -8.94951
668 1 14.152 17.297 20.4417 -8.94968
667 1 12.5796 15.7247 18.8696 -8.94987
666 1 11.007 17.297 20.4417 -8.9496
538 1 17.2973 20.4419 11.007 -8.94957
539 1 20.4416 20.4417 11.0069 -8.94961
682 1 14.1519 20.4417 20.4416 -8.94963
681 1 12.5795 18.8694 18.8695 -8.94961
542 1 7.85653 11.0012 14.1583 -8.98089
680 1 11.007 20.4416 20.4416 -8.94962
544 1 14.1562 11.0015 14.1559 -8.98036
679 1 9.43444 18.8695 18.8695 -8.9496
678 1 7.86201 20.4417 20.4416 -8.94963
547 1 22.0138 12.5794 12.5795 -8.95055
548 1 1.57135 14.1522 14.1524 -8.94995
549 1 3.14188 12.5794 12.5797 -8.9528
550 1 4.71395 14.1533 14.1536 -8.94894
551 1 6.27668 12.5799 12.5817 -8.96359
552 1 7.8551 14.1584 14.1586 -8.98259
553 1 9.38193 12.58 12.6027 -9.26894
554 1 11.0069 14.1557 14.1553 -8.98229
555 1 12.6304 12.5814 12.6007 -9.24466
556 1 14.158 14.1577 14.1568 -8.9806
557 1 15.7357 12.5792 12.5798 -8.96513
558 1 17.2994 14.1529 14.153 -8.94937
559 1 18.8715 12.5793 12.5795 -8.95261
560 1 20.4422 14.1522 14.1523 -8.94999
561 1 -0.000153399 15.7246 12.5795 -8.94972
562 1 1.57185 17.2972 14.1522 -8.94966
563 1 3.14331 15.725 12.5797 -8.94983
564 1 4.71569 17.298 14.1528 -8.94926
565 1 6.28597 15.727 12.5814 -8.94743
566 1 7.8605 17.2992 14.1535 -8.95052
567 1 9.43158 15.7287 12.5823 -9.00102
568 1 11.0071 17.2987 14.1523 -8.95031
569 1 12.5831 15.7288 12.5828 -9.00021
570 1 14.1536 17.2991 14.1534 -8.94992
571 1 15.7266 15.7253 12.5797 -8.94968
572 1 17.2977 17.2975 14.1523 -8.94986
573 1 18.8702 15.7248 12.5795 -8.94956
574 1 20.4418 17.2971 14.1521 -8.94963
575 1 22.0138 18.8694 12.5795 -8.94962
576 1 1.57211 20.4417 14.152 -8.94962
577 1 3.14408 18.8697 12.5796 -8.94961
578 1 4.71645 20.4421 14.1524 -8.94954
579 1 6.28824 18.8708 12.5802 -8.9494
580 1 7.86137 20.4425 14.1527 -8.94954
581 1 9.43343 18.8721 12.5807 -8.94788
582 1 11.0071 20.4424 14.1525 -8.94951
583 1 12.581 18.8721 12.5808 -8.94794
584 1 14.1527 20.4425 14.1527 -8.9495
585 1 15.7254 18.8701 12.5798 -8.94953
586 1 17.2973 20.4419 14.1521 -8.94963
587 1 18.8696 18.8695 12.5795 -8.9496
588 1 20.4416 20.4417 14.152 -8.94962
677 1 6.28938 18.8695 18.8695 -8.94961
676 1 4.71705 20.4417 20.4416 -8.94962
591 1 7.86158 11.0068 17.2982 -8.9512
592 1 11.007 11.0065 17.2997 -8.95374
593 1 14.1523 11.0069 17.2977 -8.95072
675 1 3.14444 18.8695 18.8695 -8.94938
674 1 1.57225 20.4417 20.4416 -8.94951
596 1 -0.000118241 12.5794 15.7247 -8.94955
597 1 1.57205 14.152 17.2972 -8.9495
598 1 3.1436 12.5794 15.7251 -8.94928
599 1 4.7164 14.1521 17.2976 -8.94976
600 1 6.28806 12.5794 15.7254 -8.94951
601 1 7.8614 14.1523 17.2981 -8.9514
602 1 9.43438 12.5799 15.7253 -9.0003
603 1 11.007 14.1521 17.2977 -8.95025
604 1 12.5795 12.58 15.7246 -8.9995
605 1 14.1525 14.1522 17.2977 -8.95113
606 1 15.7255 12.5793 15.7246 -8.94966
607 1 17.2973 14.152 17.2973 -8.94982
608 1 18.87 12.5794 15.7249 -8.94926
609 1 20.4417 14.152 17.2971 -8.94951
610 1 22.0138 15.7247 15.7247 -8.94973
611 1 1.572 17.2971 17.2972 -8.94952
612 1 3.14349 15.7251 15.7253 -8.94946
613 1 4.71622 17.2976 17.2978 -8.94902
614 1 6.28725 15.7264 15.7268 -8.94734
615 1 7.86164 17.2975 17.2977 -8.94945
616 1 9.43391 15.726 15.7262 -8.94892
617 1 11.007 17.2974 17.2974 -8.94905
618 1 12.5801 15.7259 15.726 -8.94935
619 1 14.1524 17.2974 17.2975 -8.94949
620 1 15.7264 15.7261 15.7262 -8.94731
621 1 17.2975 17.2974 17.2975 -8.949
622 1 18.8701 15.725 15.7251 -8.94957
623 1 20.4417 17.2971 17.2971 -8.94953
624 1 -8.16611e-05 18.8694 15.7245 -8.94961
625 1 1.57217 20.4417 17.2969 -8.94956
626 1 3.14417 18.8697 15.7248 -8.94948
627 1 4.7168 20.4419 17.2972 -8.94959
628 1 6.28883 18.8702 15.7252 -8.94967
629 1 7.86187 20.4418 17.2972 -8.94964
630 1 9.43435 18.87 15.7251 -8.9499
631 1 11.007 20.4418 17.2972 -8.94956
632 1 12.5797 18.87 15.7251 -8.94995
633 1 14.1521 20.4418 17.2972 -8.94967
634 1 15.7251 18.8701 15.7251 -8.94949
635 1 17.2971 20.4418 17.2971 -8.94953
636 1 18.8695 18.8695 15.7246 -8.94968
637 1 20.4416 20.4417 17.2969 -8.94961
11 1 15.7244 22.0139 22.0139 -8.94964
673 1 22.0138 18.8694 18.8694 -8.94951
640 1 7.86178 11.007 20.4419 -8.94967
641 1 11.007 11.007 20.4418 -8.95057
642 1 14.1522 11.007 20.4416 -8.9496
672 1 20.4416 17.2968 20.4416 -8.94964
391 1 18.8693 18.8693 22.0139 -8.94955
645 1 22.0138 12.5794 18.8694 -8.94959
646 1 1.57222 14.1519 20.4417 -8.9496
647 1 3.14441 12.5794 18.8695 -8.94956
648 1 4.71687 14.152 20.4417 -8.94962
649 1 6.28908 12.5795 18.8698 -8.94946
650 1 7.86176 14.1521 20.4417 -8.9498
651 1 9.43426 12.5796 18.8698 -8.94912
652 1 11.007 14.1521 20.4416 -8.94967
653 1 12.5798 12.5796 18.8695 -8.94907
654 1 14.1522 14.1521 20.4415 -8.9498
655 1 15.7248 12.5795 18.8695 -8.94937
656 1 17.297 14.1519 20.4416 -8.94957
657 1 18.8694 12.5794 18.8694 -8.94958
658 1 20.4416 14.1519 20.4416 -8.94959
659 1 -5.95468e-05 15.7244 18.8694 -8.94959
660 1 1.57224 17.2969 20.4417 -8.94963
661 1 3.14445 15.7245 18.8695 -8.94964
662 1 4.71691 17.297 20.4417 -8.94969
663 1 6.28914 15.7247 18.8699 -8.94998
664 1 7.86193 17.297 20.4417 -8.94968
665 1 9.43443 15.7247 18.8697 -8.94987
207 1 15.7249 22.0141 12.5796 -8.9496
355 1 6.2893 12.5794 22.0138 -8.94966
357 1 9.43426 12.5796 22.0135 -8.9496
359 1 12.5797 12.5797 22.0133 -8.94983
365 1 -3.08525e-05 15.7243 22.0139 -8.9496
367 1 3.14455 15.7244 22.0139 -8.94963
369 1 6.2893 15.7246 22.0138 -8.94974
375 1 15.7247 15.7246 22.0136 -8.94964
381 1 3.14459 18.8693 22.0139 -8.9496
385 1 9.43447 18.8693 22.0138 -8.94961
387 1 12.5795 18.8693 22.0138 -8.94961
595 1 20.4417 11.0069 17.2971 -8.94952
594 1 17.2974 11.0068 17.2974 -8.94973
590 1 4.71636 11.0068 17.2977 -8.94965
589 1 1.57206 11.0069 17.2972 -8.94949
201 1 6.28888 22.0141 12.5799 -8.94969
351 1 22.0139 12.5794 22.0139 -8.9496
363 1 18.8693 12.5794 22.0139 -8.9496
1 1 -3.71202e-05 22.0139 22.0139 -8.9495
530 1 14.1532 17.2993 11.0071 -8.95022
532 1 20.4418 17.2971 11.0069 -8.9496
