ITEM: TIMESTEP
43
ITEM: NUMBER OF ATOMS
688
ITEM: BOX BOUNDS pp pp pp
0.0000000000000000e+00 2.2013900999999997e+01
0.0000000000000000e+00 2.2013900999999997e+01
0.0000000000000000e+00 2.2013900999999997e+01
ITEM: ATOMS id type x y z c_pot
175 1 18.8691 9.43453 9.43452 -8.94974
2 1 1.57242 1.57242 1.57242 -8.94963
517 1 17.2967 11.0068 11.0069 -8.94868
4 1 4.71726 1.57242 1.57242 -8.94963
174 1 15.7247 9.43448 9.4345 -8.95121
6 1 7.86211 1.57242 1.57242 -8.94963
448 1 20.4415 11.007 7.86211 -8.94963
8 1 11.007 1.57242 1.57242 -8.94963
9 1 12.5794 7.14725e-09 3.78361e-09 -8.94963
10 1 14.1518 1.57242 1.57242 -8.94963
173 1 12.5861 9.43041 9.43361 -9.01821
12 1 17.2966 1.57242 1.57242 -8.94963
13 1 18.8691 4.80782e-10 7.48865e-09 -8.94963
14 1 20.4415 1.57242 1.57242 -8.94963
447 1 17.2966 11.0069 7.86208 -8.94936
16 1 1.57242 4.71726 1.57242 -8.94963
17 1 3.14484 3.14484 2.39825e-08 -8.94963
18 1 4.71726 4.71726 1.57242 -8.94963
446 1 14.1514 11.0067 7.86264 -8.99866
20 1 7.86211 4.71726 1.57242 -8.94964
21 1 9.43453 3.14484 -3.09333e-08 -8.94963
22 1 11.007 4.71726 1.57242 -8.94963
23 1 12.5794 3.14484 -2.16244e-08 -8.94963
24 1 14.1518 4.71726 1.57242 -8.94964
444 1 7.85672 11.0067 7.85795 -8.98217
26 1 17.2966 4.71726 1.57242 -8.94963
27 1 18.8691 3.14484 5.65652e-09 -8.94963
28 1 20.4415 4.71726 1.57242 -8.94963
29 1 1.23724e-08 6.28969 2.59108e-09 -8.94963
30 1 1.57242 7.86211 1.57242 -8.94963
443 1 4.71684 11.0069 7.86207 -8.95108
32 1 4.71726 7.86211 1.57242 -8.94963
33 1 6.28969 6.28969 4.31432e-09 -8.94963
34 1 7.8621 7.8621 1.57241 -8.94961
442 1 1.5724 11.007 7.86211 -8.94977
36 1 11.007 7.86211 1.57243 -8.94963
397 1 14.1516 11.0069 4.71747 -8.95039
38 1 14.1518 7.8621 1.57241 -8.9496
39 1 15.7242 6.28969 -2.35839e-08 -8.94963
40 1 17.2966 7.86211 1.57242 -8.94964
396 1 11.0069 11.0069 4.71412 -8.95953
42 1 20.4415 7.86211 1.57242 -8.94963
395 1 7.86205 11.0069 4.71694 -8.95088
44 1 3.14484 9.43453 1.71291e-07 -8.94963
350 1 20.4415 11.007 1.57242 -8.94963
518 1 20.4415 11.0069 11.0069 -8.94962
47 1 12.5794 9.43452 -3.75948e-06 -8.94964
348 1 14.1518 11.007 1.57244 -8.94959
49 1 18.8691 9.43453 -3.96215e-08 -8.94963
172 1 9.41459 9.39635 9.43449 -9.26079
51 1 1.57242 1.57242 4.71726 -8.94963
171 1 6.29031 9.43546 9.4345 -9.00008
53 1 4.71726 1.57242 4.71726 -8.94963
54 1 6.28969 -4.50626e-08 3.14484 -8.94963
55 1 7.86211 1.57242 4.71727 -8.94964
170 1 3.14488 9.43451 9.43452 -8.94926
57 1 11.0069 1.57242 4.71727 -8.94964
169 1 3.12159e-06 9.43453 9.43453 -8.94962
59 1 14.1518 1.57242 4.71726 -8.94963
60 1 15.7242 -4.4088e-08 3.14484 -8.94963
61 1 17.2966 1.57242 4.71726 -8.94963
168 1 18.8691 6.28969 9.43453 -8.94963
63 1 20.4415 1.57242 4.71726 -8.94963
64 1 5.75417e-08 3.14484 3.14484 -8.94963
65 1 1.57242 4.71727 4.71727 -8.94964
66 1 3.14484 3.14484 3.14484 -8.94963
67 1 4.71726 4.71726 4.71726 -8.94961
68 1 6.28969 3.14484 3.14484 -8.94964
69 1 7.86211 4.71727 4.71727 -8.94972
70 1 9.43453 3.14484 3.14484 -8.94963
71 1 11.0069 4.71727 4.71726 -8.94964
72 1 12.5794 3.14484 3.14484 -8.94964
73 1 14.1518 4.71726 4.71726 -8.94963
74 1 15.7242 3.14484 3.14484 -8.94963
75 1 17.2966 4.71726 4.71726 -8.94962
76 1 18.8691 3.14484 3.14484 -8.94963
77 1 20.4415 4.71726 4.71726 -8.94963
78 1 22.0139 6.28969 3.14484 -8.94963
79 1 1.57242 7.86211 4.71726 -8.94963
80 1 3.14484 6.28968 3.14484 -8.94962
81 1 4.71723 7.86207 4.71724 -8.94946
82 1 6.28968 6.28969 3.14484 -8.94963
83 1 7.86209 7.86209 4.71716 -8.94994
84 1 9.43453 6.28968 3.14485 -8.94964
85 1 11.0069 7.8622 4.71734 -8.95018
86 1 12.5794 6.28969 3.14485 -8.94972
87 1 14.1518 7.86206 4.71721 -8.94926
88 1 15.7242 6.28969 3.14484 -8.94961
89 1 17.2966 7.86211 4.71727 -8.94967
90 1 18.8691 6.28969 3.14484 -8.94964
91 1 20.4415 7.86211 4.71726 -8.94963
92 1 1.44129e-07 9.43453 3.14484 -8.94963
93 1 3.14484 9.43453 3.14484 -8.94965
94 1 6.28967 9.43452 3.14481 -8.94971
95 1 9.43444 9.43443 3.14474 -8.94901
96 1 12.5795 9.43443 3.14475 -8.94919
97 1 15.7242 9.43454 3.14486 -8.94971
98 1 18.8691 9.43453 3.14484 -8.94963
99 1 -5.9263e-09 3.00781e-09 6.28969 -8.94963
100 1 1.57242 1.57242 7.86211 -8.94963
101 1 3.14484 5.20777e-09 6.28969 -8.94963
102 1 4.71727 1.57242 7.86211 -8.94964
167 1 15.7242 6.28969 9.43453 -8.94968
104 1 7.8621 1.57242 7.8621 -8.94963
105 1 9.43453 -1.40422e-06 6.28969 -8.94963
106 1 11.007 1.57241 7.8621 -8.94962
107 1 12.5794 -1.4212e-06 6.28969 -8.94963
108 1 14.1518 1.57242 7.86211 -8.94964
166 1 12.5795 6.2893 9.43441 -8.95028
110 1 17.2966 1.57242 7.86211 -8.94963
111 1 18.8691 5.3633e-09 6.28969 -8.94963
112 1 20.4415 1.57242 7.86211 -8.94963
113 1 22.0139 3.14484 6.28969 -8.94963
114 1 1.57242 4.71726 7.86211 -8.94963
115 1 3.14484 3.14484 6.28969 -8.94964
116 1 4.71727 4.71728 7.86212 -8.94972
117 1 6.28968 3.14484 6.28968 -8.9496
118 1 7.862 4.71716 7.862 -8.94914
119 1 9.43453 3.14485 6.28969 -8.94963
120 1 11.007 4.71718 7.86201 -8.94896
121 1 12.5794 3.14483 6.28968 -8.94962
122 1 14.1518 4.71722 7.86209 -8.94968
123 1 15.7242 3.14484 6.28968 -8.94963
124 1 17.2966 4.71727 7.86211 -8.94966
125 1 18.8691 3.14484 6.28969 -8.94963
126 1 20.4415 4.71726 7.86211 -8.94963
127 1 9.5174e-07 6.28969 6.28969 -8.94963
128 1 1.57243 7.86211 7.86211 -8.94962
129 1 3.14485 6.28969 6.28969 -8.94969
130 1 4.71731 7.86219 7.86218 -8.95019
131 1 6.28963 6.28962 6.28963 -8.9492
132 1 7.86104 7.86162 7.8604 -8.98431
133 1 9.43459 6.28977 6.28978 -8.95034
134 1 11.0079 7.86231 7.862 -9.00396
135 1 12.5794 6.28959 6.28967 -8.94998
136 1 14.1523 7.86165 7.86178 -8.948
137 1 15.7242 6.28966 6.28965 -8.94945
138 1 17.2967 7.86209 7.86209 -8.94968
139 1 18.8691 6.28968 6.28968 -8.94963
140 1 20.4415 7.86211 7.86211 -8.94964
141 1 22.0139 9.43453 6.28969 -8.94964
142 1 3.1448 9.43451 6.28967 -8.94969
143 1 6.28921 9.43421 6.28925 -8.94824
144 1 9.43368 9.43427 6.28971 -9.00399
145 1 12.5803 9.43293 6.28929 -8.9851
146 1 15.7242 9.43457 6.28974 -8.95005
147 1 18.8691 9.43453 6.28969 -8.94963
165 1 9.43444 6.2863 9.43442 -8.95924
164 1 6.28988 6.28993 9.43454 -8.95044
150 1 6.28969 -6.77921e-07 9.43453 -8.94963
163 1 3.14485 6.28968 9.43453 -8.94958
162 1 22.0139 6.28969 9.43453 -8.94963
153 1 15.7242 -7.13889e-07 9.43453 -8.94963
161 1 18.8691 3.14484 9.43453 -8.94963
155 1 -5.44741e-08 3.14484 9.43453 -8.94963
156 1 3.14484 3.14484 9.43453 -8.94963
157 1 6.28969 3.14486 9.43453 -8.94959
158 1 9.43452 3.14466 9.43452 -8.95056
159 1 12.5794 3.14482 9.43452 -8.94972
160 1 15.7242 3.14484 9.43453 -8.94962
344 1 1.57242 11.007 1.57242 -8.94963
345 1 4.71726 11.007 1.57242 -8.94962
346 1 7.86211 11.007 1.57241 -8.94973
347 1 11.007 11.0069 1.57225 -8.95053
513 1 4.71677 11.0068 11.0069 -8.95034
181 1 17.2966 1.57242 11.007 -8.94963
188 1 17.2966 4.71727 11.0069 -8.94965
190 1 1.57243 7.86211 11.0069 -8.94963
191 1 4.71732 7.86219 11.0069 -8.9502
192 1 7.86119 7.86177 11.0087 -8.98473
193 1 11.0079 7.85816 11.0074 -9.01437
512 1 1.5724 11.0069 11.0069 -8.94976
177 1 4.71727 1.57242 11.0069 -8.94963
184 1 4.71727 4.71728 11.0069 -8.94971
189 1 20.4415 4.71726 11.007 -8.94963
7 1 9.43453 7.33641e-09 8.36021e-09 -8.94963
643 1 17.2966 11.007 20.4415 -8.94963
644 1 20.4415 11.007 20.4415 -8.94963
178 1 7.8621 1.57242 11.007 -8.94963
179 1 11.007 1.57241 11.007 -8.94973
180 1 14.1518 1.57242 11.007 -8.94964
639 1 4.71726 11.007 20.4415 -8.94963
182 1 20.4415 1.57242 11.007 -8.94963
183 1 1.57242 4.71726 11.007 -8.94963
638 1 1.57242 11.007 20.4415 -8.94963
185 1 7.86201 4.71718 11.0071 -8.94917
186 1 11.007 4.71695 11.0071 -8.95011
187 1 14.1518 4.71724 11.007 -8.94972
48 1 15.7242 9.43453 22.0139 -8.94963
35 1 9.43453 6.28969 22.0139 -8.94964
46 1 9.43452 9.43452 22.0139 -8.94964
45 1 6.28969 9.43453 22.0139 -8.94964
43 1 22.0139 9.43453 22.0139 -8.94963
546 1 20.4415 11.0069 14.1518 -8.94963
194 1 14.1522 7.86174 11.0073 -8.94918
195 1 17.2967 7.86209 11.007 -8.9497
196 1 20.4415 7.86211 11.007 -8.94964
197 1 -5.67125e-09 -3.00792e-09 12.5794 -8.94963
198 1 1.57242 1.57242 14.1518 -8.94963
343 1 18.8691 9.43453 18.8691 -8.94964
200 1 4.71726 1.57242 14.1518 -8.94963
41 1 18.8691 6.28969 22.0139 -8.94963
202 1 7.86211 1.57242 14.1518 -8.94964
203 1 9.43452 8.42266e-06 12.5794 -8.94963
204 1 11.0069 1.57242 14.1518 -8.94964
205 1 12.5794 8.40779e-06 12.5794 -8.94963
206 1 14.1518 1.57242 14.1518 -8.94963
37 1 12.5794 6.28969 22.0139 -8.94964
208 1 17.2966 1.57242 14.1518 -8.94963
342 1 15.7242 9.43454 18.869 -8.94969
210 1 20.4415 1.57242 14.1518 -8.94963
211 1 22.0139 3.14484 12.5794 -8.94963
212 1 1.57242 4.71727 14.1518 -8.94964
213 1 3.14484 3.14484 12.5794 -8.94964
214 1 4.71726 4.71726 14.1518 -8.94962
215 1 6.28968 3.14484 12.5794 -8.9496
216 1 7.86211 4.71726 14.1518 -8.9497
217 1 9.43452 3.14484 12.5794 -8.94963
218 1 11.0069 4.71726 14.1518 -8.94974
219 1 12.5794 3.14482 12.5794 -8.94962
220 1 14.1518 4.71725 14.1518 -8.94961
221 1 15.7242 3.14484 12.5794 -8.94964
222 1 17.2966 4.71726 14.1518 -8.94962
223 1 18.8691 3.14484 12.5794 -8.94963
224 1 20.4415 4.71726 14.1518 -8.94963
225 1 9.56858e-07 6.28969 12.5794 -8.94963
226 1 1.57242 7.86211 14.1518 -8.94963
227 1 3.14485 6.28969 12.5794 -8.94968
228 1 4.71724 7.86208 14.1518 -8.94956
229 1 6.28963 6.28963 12.5794 -8.94924
230 1 7.86203 7.86195 14.152 -8.94998
231 1 9.43445 6.28962 12.5794 -8.94964
232 1 11.0069 7.86188 14.1518 -8.9516
233 1 12.5795 6.28942 12.5795 -8.94931
234 1 14.1519 7.8619 14.1519 -8.94918
235 1 15.7242 6.28967 12.5794 -8.94949
236 1 17.2966 7.86212 14.1518 -8.94978
237 1 18.8691 6.28968 12.5794 -8.94962
238 1 20.4415 7.86211 14.1518 -8.94964
239 1 22.0139 9.43453 12.5794 -8.94964
240 1 3.14481 9.43452 12.5794 -8.94969
241 1 6.28929 9.43434 12.5797 -8.94915
242 1 9.43296 9.43381 12.5807 -9.05483
243 1 12.5813 9.43218 12.5813 -9.03308
244 1 15.7241 9.4347 12.5792 -8.95097
245 1 18.869 9.43454 12.5794 -8.94963
341 1 12.5794 9.43451 18.8691 -8.94969
247 1 1.57242 1.57242 17.2966 -8.94963
248 1 3.14484 2.4685e-09 15.7242 -8.94963
249 1 4.71726 1.57242 17.2966 -8.94963
340 1 9.43451 9.43451 18.8691 -8.94969
251 1 7.86211 1.57242 17.2966 -8.94963
252 1 9.43453 1.18318e-06 15.7242 -8.94964
253 1 11.007 1.57242 17.2966 -8.94963
254 1 12.5794 1.18328e-06 15.7242 -8.94964
255 1 14.1518 1.57242 17.2966 -8.94963
339 1 6.28969 9.43454 18.8691 -8.9497
257 1 17.2966 1.57242 17.2966 -8.94963
258 1 18.8691 3.13441e-09 15.7242 -8.94963
259 1 20.4415 1.57242 17.2966 -8.94963
260 1 5.77615e-08 3.14484 15.7242 -8.94963
261 1 1.57242 4.71726 17.2966 -8.94963
262 1 3.14484 3.14484 15.7242 -8.94963
263 1 4.71726 4.71726 17.2966 -8.94963
264 1 6.28969 3.14484 15.7242 -8.94963
265 1 7.86211 4.71726 17.2966 -8.94964
266 1 9.43453 3.14484 15.7242 -8.94964
267 1 11.007 4.71726 17.2966 -8.94962
268 1 12.5794 3.14484 15.7242 -8.94965
269 1 14.1518 4.71726 17.2966 -8.94964
270 1 15.7242 3.14484 15.7242 -8.94963
271 1 17.2966 4.71726 17.2966 -8.94963
272 1 18.8691 3.14484 15.7242 -8.94963
273 1 20.4415 4.71726 17.2966 -8.94963
274 1 22.0139 6.28969 15.7242 -8.94963
275 1 1.57242 7.86211 17.2966 -8.94963
276 1 3.14484 6.28968 15.7242 -8.94962
277 1 4.71726 7.86211 17.2966 -8.94961
278 1 6.28968 6.28968 15.7242 -8.94961
279 1 7.86207 7.86208 17.2967 -8.94946
280 1 9.43452 6.28965 15.7242 -8.94973
281 1 11.007 7.86211 17.2966 -8.9496
282 1 12.5794 6.28966 15.7242 -8.94981
283 1 14.1518 7.86208 17.2967 -8.94945
284 1 15.7242 6.28968 15.7242 -8.94959
285 1 17.2966 7.86211 17.2966 -8.94962
286 1 18.8691 6.28969 15.7242 -8.94964
287 1 20.4415 7.86211 17.2966 -8.94963
288 1 1.30692e-07 9.43453 15.7242 -8.94963
289 1 3.14484 9.43452 15.7242 -8.94962
290 1 6.2896 9.43446 15.7243 -8.9493
291 1 9.43415 9.43402 15.7248 -8.94786
292 1 12.5798 9.43402 15.7248 -8.94807
293 1 15.7243 9.43449 15.7242 -8.94933
294 1 18.8691 9.43452 15.7242 -8.9496
295 1 5.06713e-10 2.12964e-09 18.8691 -8.94963
296 1 1.57242 1.57242 20.4415 -8.94963
338 1 3.14484 9.43453 18.8691 -8.94964
298 1 4.71726 1.57242 20.4415 -8.94963
299 1 6.28969 1.49639e-07 18.8691 -8.94963
300 1 7.86211 1.57242 20.4415 -8.94963
337 1 22.0139 9.43453 18.8691 -8.94963
302 1 11.007 1.57242 20.4415 -8.94963
336 1 20.4415 7.86211 20.4415 -8.94963
304 1 14.1518 1.57242 20.4415 -8.94963
305 1 15.7242 1.50474e-07 18.8691 -8.94963
306 1 17.2966 1.57242 20.4415 -8.94963
335 1 18.8691 6.28969 18.8691 -8.94963
308 1 20.4415 1.57242 20.4415 -8.94963
309 1 22.0139 3.14484 18.8691 -8.94963
310 1 1.57242 4.71726 20.4415 -8.94963
311 1 3.14484 3.14484 18.8691 -8.94963
312 1 4.71726 4.71726 20.4415 -8.94963
313 1 6.28969 3.14484 18.8691 -8.94963
314 1 7.86211 4.71726 20.4415 -8.94964
315 1 9.43453 3.14484 18.8691 -8.94963
316 1 11.007 4.71726 20.4415 -8.94963
317 1 12.5794 3.14484 18.8691 -8.94963
318 1 14.1518 4.71726 20.4415 -8.94963
319 1 15.7242 3.14484 18.8691 -8.94963
320 1 17.2966 4.71726 20.4415 -8.94963
321 1 18.8691 3.14484 18.8691 -8.94963
322 1 20.4415 4.71726 20.4415 -8.94963
323 1 1.14314e-08 6.28969 18.8691 -8.94963
324 1 1.57242 7.86211 20.4415 -8.94963
325 1 3.14484 6.28969 18.8691 -8.94963
326 1 4.71727 7.86211 20.4415 -8.94964
327 1 6.28968 6.28968 18.8691 -8.94962
328 1 7.8621 7.8621 20.4415 -8.94963
329 1 9.43453 6.28969 18.8691 -8.94965
330 1 11.007 7.86211 20.4415 -8.94962
331 1 12.5794 6.28969 18.8691 -8.94965
332 1 14.1518 7.8621 20.4415 -8.94963
333 1 15.7242 6.28968 18.8691 -8.94962
334 1 17.2966 7.86211 20.4415 -8.94964
545 1 17.2967 11.0068 14.1519 -8.9491
543 1 11.007 11.0031 14.1601 -8.99625
515 1 11.0288 10.9622 11.0292 -9.45437
541 1 4.71717 11.0068 14.1519 -8.94914
540 1 1.57241 11.0069 14.1518 -8.94962
31 1 3.14484 6.28969 22.0139 -8.94963
15 1 22.0139 3.14484 22.0139 -8.94963
19 1 6.28969 3.14484 22.0139 -8.94963
25 1 15.7242 3.14484 22.0139 -8.94963
3 1 3.14484 4.05844e-10 22.0139 -8.94963
176 1 1.57242 1.57242 11.007 -8.94963
688 2 10.217 11.0085 9.42781 0.903649
511 1 18.8691 18.8691 9.43453 -8.94964
510 1 15.7242 18.8691 9.43453 -8.94971
509 1 12.5795 18.8692 9.43443 -8.94929
508 1 9.43442 18.8693 9.43443 -8.95012
507 1 6.28969 18.869 9.43453 -8.94967
506 1 3.14484 18.8691 9.43453 -8.94963
349 1 17.2966 11.007 1.57242 -8.94963
352 1 1.57242 14.1518 1.57242 -8.94963
154 1 18.8691 22.0139 9.43453 -8.94963
354 1 4.71726 14.1518 1.57242 -8.94963
152 1 12.5794 22.0139 9.43452 -8.94964
356 1 7.8621 14.1518 1.57241 -8.94962
151 1 9.43452 22.0139 9.43452 -8.94973
358 1 11.007 14.1518 1.57243 -8.94961
149 1 3.14484 22.0139 9.43453 -8.94963
360 1 14.1518 14.1518 1.57241 -8.94961
361 1 15.7242 12.5794 9.34259e-07 -8.94963
362 1 17.2966 14.1518 1.57242 -8.94964
537 1 14.1518 20.4415 11.0069 -8.94964
364 1 20.4415 14.1518 1.57242 -8.94963
148 1 8.34373e-09 22.0139 9.43453 -8.94963
366 1 1.57242 17.2966 1.57242 -8.94963
109 1 15.7242 22.0139 6.28969 -8.94963
368 1 4.71726 17.2966 1.57242 -8.94963
103 1 6.28969 22.0139 6.28969 -8.94963
370 1 7.86211 17.2966 1.57242 -8.94964
371 1 9.43453 15.7242 3.15156e-06 -8.94964
372 1 11.007 17.2966 1.57242 -8.94963
373 1 12.5794 15.7242 3.04329e-06 -8.94964
374 1 14.1518 17.2966 1.57242 -8.94964
62 1 18.8691 22.0139 3.14484 -8.94963
376 1 17.2966 17.2966 1.57242 -8.94963
377 1 18.8691 15.7242 9.60283e-08 -8.94963
378 1 20.4415 17.2966 1.57242 -8.94963
379 1 22.0139 18.8691 -5.28641e-10 -8.94963
380 1 1.57242 20.4415 1.57242 -8.94963
58 1 12.5794 22.0139 3.14484 -8.94963
382 1 4.71726 20.4415 1.57242 -8.94963
383 1 6.28969 18.8691 2.99547e-07 -8.94963
384 1 7.86211 20.4415 1.57242 -8.94963
56 1 9.43453 22.0139 3.14484 -8.94963
386 1 11.007 20.4415 1.57242 -8.94963
52 1 3.14484 22.0139 3.14484 -8.94963
388 1 14.1518 20.4415 1.57242 -8.94963
389 1 15.7242 18.8691 2.97522e-07 -8.94963
390 1 17.2966 20.4415 1.57242 -8.94963
50 1 22.0139 22.0139 3.14484 -8.94963
392 1 20.4415 20.4415 1.57242 -8.94963
393 1 1.57242 11.007 4.71726 -8.94962
394 1 4.71726 11.007 4.71727 -8.94961
505 1 -5.12354e-08 18.8691 9.43453 -8.94963
504 1 18.8691 15.7242 9.43452 -8.9496
503 1 15.7243 15.7242 9.4345 -8.94984
398 1 17.2966 11.007 4.71726 -8.94959
399 1 20.4415 11.007 4.71726 -8.94963
400 1 1.45192e-07 12.5794 3.14484 -8.94963
401 1 1.57242 14.1518 4.71726 -8.94963
402 1 3.14484 12.5794 3.14484 -8.94965
403 1 4.71724 14.1518 4.71724 -8.94949
404 1 6.28967 12.5794 3.14481 -8.94971
405 1 7.86206 14.1518 4.71711 -8.94995
406 1 9.43444 12.5795 3.14472 -8.94916
407 1 11.0069 14.1517 4.71737 -8.9499
408 1 12.5795 12.5795 3.14473 -8.94934
409 1 14.1519 14.1519 4.71716 -8.94924
410 1 15.7242 12.5794 3.14486 -8.94971
411 1 17.2966 14.1518 4.71727 -8.9497
412 1 18.8691 12.5794 3.14484 -8.94963
413 1 20.4415 14.1518 4.71726 -8.94963
414 1 22.0139 15.7242 3.14484 -8.94963
415 1 1.57242 17.2966 4.71726 -8.94964
416 1 3.14484 15.7242 3.14484 -8.94962
417 1 4.71726 17.2966 4.71726 -8.94959
418 1 6.28968 15.7242 3.14484 -8.94962
419 1 7.86212 17.2966 4.71727 -8.94977
420 1 9.43454 15.7242 3.14485 -8.94964
421 1 11.0069 17.2966 4.71727 -8.94958
422 1 12.5794 15.7242 3.14486 -8.94971
423 1 14.1518 17.2966 4.71727 -8.94968
424 1 15.7242 15.7242 3.14484 -8.9496
425 1 17.2966 17.2966 4.71726 -8.94961
426 1 18.8691 15.7242 3.14484 -8.94964
427 1 20.4415 17.2966 4.71726 -8.94963
428 1 5.66015e-08 18.8691 3.14484 -8.94963
429 1 1.57242 20.4415 4.71726 -8.94963
430 1 3.14484 18.8691 3.14484 -8.94963
431 1 4.71726 20.4415 4.71726 -8.94963
432 1 6.28969 18.8691 3.14484 -8.94964
433 1 7.86211 20.4415 4.71727 -8.94964
434 1 9.43453 18.8691 3.14484 -8.94963
435 1 11.0069 20.4415 4.71726 -8.94963
436 1 12.5794 18.8691 3.14484 -8.94963
437 1 14.1518 20.4415 4.71726 -8.94964
438 1 15.7242 18.8691 3.14484 -8.94964
439 1 17.2966 20.4415 4.71726 -8.94963
440 1 18.8691 18.8691 3.14484 -8.94963
441 1 20.4415 20.4415 4.71726 -8.94963
502 1 12.5811 15.725 9.43344 -8.98544
501 1 9.43285 15.728 9.43348 -8.99471
500 1 6.28976 15.724 9.4345 -8.95058
445 1 11.0263 11.0081 7.82535 -9.27567
499 1 3.14484 15.7242 9.43452 -8.94956
498 1 22.0139 15.7242 9.43453 -8.94963
497 1 18.8691 12.5794 9.43453 -8.94985
449 1 22.0139 12.5794 6.28969 -8.94964
450 1 1.57243 14.1518 7.86211 -8.94964
451 1 3.1448 12.5794 6.28967 -8.94968
452 1 4.71727 14.1517 7.86217 -8.95029
453 1 6.28923 12.5797 6.28928 -8.94838
454 1 7.8606 14.1526 7.85991 -8.98311
455 1 9.43356 12.5797 6.28922 -9.00493
456 1 11.0079 14.151 7.86246 -9.05386
457 1 12.5805 12.5811 6.28882 -8.98579
458 1 14.1526 14.1525 7.86138 -8.94719
459 1 15.7242 12.5793 6.28977 -8.95018
460 1 17.2967 14.1518 7.86208 -8.94977
461 1 18.8691 12.5794 6.28969 -8.94962
462 1 20.4415 14.1518 7.86211 -8.94965
463 1 9.38741e-07 15.7242 6.28969 -8.94963
464 1 1.57242 17.2966 7.86211 -8.94963
465 1 3.14485 15.7242 6.28969 -8.94969
466 1 4.71727 17.2966 7.86212 -8.94971
467 1 6.2896 15.7243 6.28959 -8.94901
468 1 7.86195 17.2968 7.86195 -8.94876
469 1 9.43465 15.7241 6.28981 -8.95081
470 1 11.007 17.2965 7.8622 -8.94975
471 1 12.5793 15.7242 6.2897 -8.95045
472 1 14.1519 17.2967 7.86204 -8.94927
473 1 15.7243 15.7243 6.28962 -8.94932
474 1 17.2966 17.2966 7.86211 -8.94965
475 1 18.8691 15.7242 6.28968 -8.94963
476 1 20.4415 17.2966 7.86211 -8.94963
477 1 22.0139 18.8691 6.28969 -8.94963
478 1 1.57242 20.4415 7.86211 -8.94963
479 1 3.14484 18.8691 6.28969 -8.94964
480 1 4.71727 20.4415 7.86211 -8.94964
481 1 6.28968 18.8691 6.28968 -8.94958
482 1 7.8621 20.4415 7.8621 -8.9496
483 1 9.43454 18.869 6.2897 -8.94972
484 1 11.007 20.4415 7.86211 -8.94958
485 1 12.5794 18.8691 6.28969 -8.9497
486 1 14.1518 20.4415 7.8621 -8.94961
487 1 15.7242 18.8691 6.28968 -8.94961
488 1 17.2966 20.4415 7.86211 -8.94964
489 1 18.8691 18.8691 6.28969 -8.94963
490 1 20.4415 20.4415 7.86211 -8.94963
491 1 3.01792e-06 12.5794 9.43453 -8.94962
492 1 3.14488 12.5794 9.43454 -8.94938
493 1 6.29008 12.5784 9.43449 -9.00119
494 1 9.41214 12.6174 9.42989 -9.25949
495 1 12.5882 12.583 9.42963 -9.01839
496 1 15.7249 12.5794 9.43449 -8.9522
536 1 11.007 20.4417 11.007 -8.95056
5 1 6.28969 22.0139 -1.17099e-08 -8.94963
516 1 14.1512 11.0065 11.005 -9.0534
519 1 1.57242 14.1518 11.0069 -8.94963
520 1 4.71719 14.1518 11.0068 -8.94958
521 1 7.86095 14.1526 11.0077 -9.03801
522 1 11.0079 14.1905 10.9881 -9.27674
523 1 14.1524 14.1526 11.0063 -9.00196
524 1 17.2968 14.1519 11.0069 -8.94908
525 1 20.4415 14.1518 11.0069 -8.94964
527 1 4.71728 17.2966 11.0069 -8.94972
535 1 7.86211 20.4415 11.007 -8.94963
531 1 17.2966 17.2966 11.007 -8.94966
353 1 3.14484 12.5794 1.75511e-07 -8.94963
687 2 11.0062 12.5863 11.7951 0.900106
686 1 20.4415 20.4415 20.4415 -8.94963
514 1 7.85716 11.0065 11.0098 -9.03598
685 1 18.8691 18.8691 18.8691 -8.94963
307 1 18.8691 22.0139 18.8691 -8.94963
684 1 17.2966 20.4415 20.4415 -8.94963
683 1 15.7242 18.8691 18.8691 -8.94962
303 1 12.5794 22.0139 18.8691 -8.94963
301 1 9.43453 22.0139 18.8691 -8.94963
297 1 3.14484 22.0139 18.8691 -8.94963
256 1 15.7242 22.0139 15.7242 -8.94963
250 1 6.28969 22.0139 15.7242 -8.94963
246 1 22.0139 22.0139 15.7242 -8.94963
209 1 18.8691 22.0139 12.5794 -8.94963
526 1 1.57242 17.2966 11.007 -8.94963
199 1 3.14484 22.0139 12.5794 -8.94963
528 1 7.8621 17.2967 11.0071 -8.94982
529 1 11.007 17.3 11.0071 -8.95949
671 1 18.8691 15.7242 18.8691 -8.94964
670 1 17.2966 17.2966 20.4415 -8.94964
669 1 15.7242 15.7242 18.8691 -8.94968
533 1 1.57242 20.4415 11.007 -8.94963
534 1 4.71726 20.4415 11.0069 -8.94963
668 1 14.1518 17.2966 20.4415 -8.94963
667 1 12.5794 15.7242 18.8691 -8.94969
666 1 11.007 17.2966 20.4415 -8.94962
538 1 17.2966 20.4415 11.007 -8.94963
539 1 20.4415 20.4415 11.007 -8.94963
682 1 14.1518 20.4415 20.4415 -8.94963
681 1 12.5794 18.8691 18.8691 -8.94965
542 1 7.86163 11.0053 14.1531 -8.98523
680 1 11.007 20.4415 20.4415 -8.94963
544 1 14.152 11.0053 14.1525 -8.98489
679 1 9.43453 18.8691 18.8691 -8.94965
678 1 7.86211 20.4415 20.4415 -8.94963
547 1 22.0139 12.5794 12.5794 -8.94973
548 1 1.57241 14.1518 14.1518 -8.94963
549 1 3.14463 12.5794 12.5794 -8.95062
550 1 4.71714 14.1519 14.1519 -8.94903
551 1 6.28594 12.5796 12.5797 -8.95874
552 1 7.86161 14.1535 14.153 -8.98476
553 1 9.39525 12.5793 12.5982 -9.27898
554 1 11.0069 14.1554 14.1567 -8.98386
555 1 12.6182 12.5802 12.5978 -9.26086
556 1 14.1523 14.1535 14.1529 -8.9843
557 1 15.7275 12.5793 12.5793 -8.96031
558 1 17.2967 14.1519 14.1519 -8.94923
559 1 18.8692 12.5794 12.5794 -8.95056
560 1 20.4415 14.1518 14.1518 -8.94963
561 1 9.21745e-07 15.7242 12.5794 -8.94963
562 1 1.57242 17.2966 14.1518 -8.94964
563 1 3.14486 15.7242 12.5794 -8.94968
564 1 4.71727 17.2966 14.1518 -8.9497
565 1 6.28969 15.7242 12.5794 -8.94983
566 1 7.86208 17.2967 14.1518 -8.94996
567 1 9.43419 15.7242 12.5802 -9.00397
568 1 11.0069 17.2969 14.1518 -8.95086
569 1 12.5798 15.7244 12.5804 -9.00339
570 1 14.1518 17.2968 14.1518 -8.94986
571 1 15.7242 15.7242 12.5794 -8.95009
572 1 17.2966 17.2966 14.1518 -8.9497
573 1 18.8691 15.7242 12.5794 -8.94962
574 1 20.4415 17.2966 14.1518 -8.94963
575 1 22.0139 18.8691 12.5794 -8.94963
576 1 1.57242 20.4415 14.1518 -8.94963
577 1 3.14484 18.8691 12.5794 -8.94964
578 1 4.71726 20.4415 14.1518 -8.94963
579 1 6.28968 18.8691 12.5794 -8.94961
580 1 7.8621 20.4415 14.1518 -8.94962
581 1 9.43442 18.8692 12.5795 -8.94902
582 1 11.0069 20.4415 14.1518 -8.94972
583 1 12.5795 18.8692 12.5795 -8.949
584 1 14.1518 20.4415 14.1518 -8.94961
585 1 15.7242 18.8691 12.5794 -8.94964
586 1 17.2966 20.4415 14.1518 -8.94964
587 1 18.8691 18.8691 12.5794 -8.94963
588 1 20.4415 20.4415 14.1518 -8.94963
677 1 6.28968 18.8691 18.8691 -8.94962
676 1 4.71726 20.4415 20.4415 -8.94963
591 1 7.8622 11.007 17.2966 -8.95028
592 1 11.007 11.0069 17.2972 -8.95191
593 1 14.1517 11.007 17.2966 -8.95014
675 1 3.14484 18.8691 18.8691 -8.94963
674 1 1.57242 20.4415 20.4415 -8.94963
596 1 1.0219e-07 12.5794 15.7242 -8.94962
597 1 1.57242 14.1518 17.2966 -8.94964
598 1 3.14486 12.5794 15.7242 -8.9496
599 1 4.71728 14.1518 17.2966 -8.94972
600 1 6.28991 12.5794 15.7241 -8.95043
601 1 7.86219 14.1517 17.2966 -8.95018
602 1 9.43539 12.5795 15.7236 -8.99938
603 1 11.007 14.1518 17.297 -8.951
604 1 12.5785 12.5795 15.7235 -8.99928
605 1 14.1517 14.1517 17.2966 -8.95017
606 1 15.724 12.5794 15.724 -8.95044
607 1 17.2966 14.1518 17.2966 -8.94972
608 1 18.869 12.5794 15.7242 -8.94958
609 1 20.4415 14.1518 17.2966 -8.94963
610 1 22.0139 15.7242 15.7242 -8.94963
611 1 1.57242 17.2966 17.2966 -8.94963
612 1 3.14483 15.7242 15.7242 -8.94959
613 1 4.71726 17.2966 17.2966 -8.94961
614 1 6.28962 15.7243 15.7243 -8.94919
615 1 7.86207 17.2967 17.2967 -8.94948
616 1 9.43425 15.7246 15.7247 -8.94844
617 1 11.007 17.2966 17.2966 -8.94959
618 1 12.5796 15.7246 15.7247 -8.9485
619 1 14.1518 17.2967 17.2967 -8.94948
620 1 15.7243 15.7243 15.7243 -8.9492
621 1 17.2966 17.2966 17.2966 -8.94961
622 1 18.8691 15.7242 15.7242 -8.94961
623 1 20.4415 17.2966 17.2966 -8.94963
624 1 5.76474e-08 18.8691 15.7242 -8.94963
625 1 1.57242 20.4415 17.2966 -8.94963
626 1 3.14484 18.8691 15.7242 -8.94964
627 1 4.71726 20.4415 17.2966 -8.94963
628 1 6.28968 18.8691 15.7242 -8.94963
629 1 7.86211 20.4415 17.2966 -8.94963
630 1 9.43452 18.8691 15.7242 -8.94972
631 1 11.007 20.4415 17.2966 -8.94962
632 1 12.5794 18.8691 15.7242 -8.94972
633 1 14.1518 20.4415 17.2966 -8.94963
634 1 15.7242 18.8691 15.7242 -8.94963
635 1 17.2966 20.4415 17.2966 -8.94963
636 1 18.8691 18.8691 15.7242 -8.94964
637 1 20.4415 20.4415 17.2966 -8.94963
11 1 15.7242 22.0139 22.0139 -8.94963
673 1 22.0139 18.8691 18.8691 -8.94963
640 1 7.86211 11.007 20.4415 -8.94963
641 1 11.007 11.007 20.4415 -8.94985
642 1 14.1518 11.007 20.4415 -8.94962
672 1 20.4415 17.2966 20.4415 -8.94963
391 1 18.8691 18.8691 22.0139 -8.94963
645 1 22.0139 12.5794 18.8691 -8.94963
646 1 1.57242 14.1518 20.4415 -8.94963
647 1 3.14484 12.5794 18.8691 -8.94963
648 1 4.71726 14.1518 20.4415 -8.94963
649 1 6.28968 12.5794 18.8691 -8.94958
650 1 7.86211 14.1518 20.4415 -8.94963
651 1 9.43451 12.5794 18.869 -8.94927
652 1 11.007 14.1518 20.4415 -8.94976
653 1 12.5794 12.5794 18.869 -8.94926
654 1 14.1518 14.1518 20.4415 -8.94963
655 1 15.7242 12.5794 18.869 -8.94957
656 1 17.2966 14.1518 20.4415 -8.94963
657 1 18.8691 12.5794 18.8691 -8.94963
658 1 20.4415 14.1518 20.4415 -8.94963
659 1 1.13881e-08 15.7242 18.8691 -8.94963
660 1 1.57242 17.2966 20.4415 -8.94963
661 1 3.14484 15.7242 18.8691 -8.94964
662 1 4.71727 17.2966 20.4415 -8.94964
663 1 6.28969 15.7242 18.8691 -8.94968
664 1 7.86211 17.2966 20.4415 -8.94963
665 1 9.43452 15.7242 18.8691 -8.94969
207 1 15.7242 22.0139 12.5794 -8.94964
355 1 6.28969 12.5794 22.0139 -8.94964
357 1 9.43452 12.5794 22.0139 -8.94962
359 1 12.5794 12.5794 22.0139 -8.94962
365 1 1.22983e-08 15.7242 22.0139 -8.94963
367 1 3.14484 15.7242 22.0139 -8.94963
369 1 6.28969 15.7242 22.0139 -8.94963
375 1 15.7242 15.7242 22.0139 -8.94963
381 1 3.14484 18.8691 22.0139 -8.94963
385 1 9.43453 18.8691 22.0139 -8.94963
387 1 12.5794 18.8691 22.0139 -8.94963
595 1 20.4415 11.007 17.2966 -8.94963
594 1 17.2966 11.007 17.2966 -8.94971
590 1 4.71728 11.007 17.2966 -8.94971
589 1 1.57242 11.007 17.2966 -8.94964
201 1 6.28969 22.0139 12.5794 -8.94963
351 1 22.0139 12.5794 22.0139 -8.94963
363 1 18.8691 12.5794 22.0139 -8.94963
1 1 4.77328e-10 22.0139 22.0139 -8.94963
530 1 14.1517 17.2966 11.007 -8.95036
532 1 20.4415 17.2966 11.007 -8.94964
