ITEM: TIMESTEP
52
ITEM: NUMBER OF ATOMS
688
ITEM: BOX BOUNDS pp pp pp
0.0000000000000000e+00 2.2013900999999997e+01
0.0000000000000000e+00 2.2013900999999997e+01
0.0000000000000000e+00 2.2013900999999997e+01
ITEM: ATOMS id type x y z c_pot
175 1 18.8701 9.43411 9.43415 -8.94981
2 1 1.57238 1.5724 1.57238 -8.94955
517 1 17.299 11.0061 11.0062 -8.94755
4 1 4.71725 1.57239 1.57237 -8.94968
174 1 15.7274 9.43309 9.43357 -8.95143
6 1 7.8621 1.57238 1.57236 -8.94963
448 1 20.4418 11.0069 7.86193 -8.94962
8 1 11.007 1.57238 1.57236 -8.94963
9 1 12.5794 1.68105e-05 -3.53984e-06 -8.94963
10 1 14.1518 1.57238 1.57237 -8.94964
173 1 12.5902 9.42413 9.43123 -9.01445
12 1 17.2967 1.57239 1.57237 -8.94963
13 1 18.8691 1.0554e-05 -6.37811e-06 -8.94961
14 1 20.4415 1.57241 1.57241 -8.9496
447 1 17.2977 11.0069 7.8616 -8.94937
16 1 1.57236 4.71722 1.57237 -8.94961
17 1 3.1448 3.14479 -2.65797e-05 -8.9496
18 1 4.71712 4.7171 1.57223 -8.94961
446 1 14.1532 11.0064 7.86128 -9.00114
20 1 7.86207 4.71709 1.57225 -8.94965
21 1 9.43453 3.14477 -2.44421e-05 -8.94963
22 1 11.007 4.71709 1.57225 -8.94962
23 1 12.5794 3.14477 -2.43929e-05 -8.94963
24 1 14.1518 4.71709 1.57228 -8.94973
444 1 7.85826 11.0067 7.85792 -8.98113
26 1 17.2968 4.7171 1.57227 -8.94945
27 1 18.8691 3.1448 -1.34861e-05 -8.94956
28 1 20.4415 4.71723 1.57238 -8.94962
29 1 -1.39768e-05 6.28968 -8.81612e-06 -8.94965
30 1 1.57234 7.86207 1.57235 -8.94962
443 1 4.71591 11.0068 7.86146 -8.95045
32 1 4.71704 7.862 1.57218 -8.94967
33 1 6.28951 6.28949 -0.000107022 -8.94963
34 1 7.86176 7.86172 1.57183 -8.94966
442 1 1.57198 11.0069 7.86193 -8.94974
36 1 11.0069 7.86182 1.57193 -8.94945
397 1 14.1525 11.0068 4.71594 -8.94938
38 1 14.1523 7.86161 1.57172 -8.94965
39 1 15.7244 6.28946 -0.000110577 -8.94959
40 1 17.2968 7.86205 1.57229 -8.94969
396 1 11.0075 11.007 4.70768 -8.964
42 1 20.4415 7.8621 1.57238 -8.94962
395 1 7.86188 11.0069 4.71579 -8.95065
44 1 3.14473 9.43451 -4.6932e-05 -8.94961
350 1 20.4415 11.0069 1.57237 -8.94962
518 1 20.4421 11.0067 11.0068 -8.94971
47 1 12.5796 9.43428 -0.000345332 -8.95003
348 1 14.1521 11.0069 1.57181 -8.94934
49 1 18.8691 9.43453 -8.34461e-06 -8.94962
172 1 9.41059 9.37958 9.43353 -9.24152
51 1 1.57237 1.5724 4.71725 -8.94967
171 1 6.2885 9.43412 9.4337 -9.00192
53 1 4.717 1.57226 4.71701 -8.94948
54 1 6.28967 2.69165e-05 3.14475 -8.94966
55 1 7.86207 1.57231 4.71706 -8.94957
170 1 3.14391 9.43413 9.43415 -8.94904
57 1 11.007 1.57229 4.71704 -8.94958
169 1 -4.14153e-05 9.43433 9.43436 -8.94966
59 1 14.1519 1.57225 4.71704 -8.9496
60 1 15.7243 2.58574e-05 3.14473 -8.94963
61 1 17.2968 1.57237 4.71714 -8.94955
168 1 18.8695 6.28934 9.43447 -8.94961
63 1 20.4415 1.57241 4.71725 -8.94964
64 1 -2.05732e-05 3.1448 3.14481 -8.94962
65 1 1.57226 4.71714 4.71716 -8.94966
66 1 3.14468 3.14469 3.14468 -8.94941
67 1 4.71665 4.71666 4.71666 -8.94889
68 1 6.28963 3.14469 3.14465 -8.94975
69 1 7.862 4.71684 4.71677 -8.95001
70 1 9.43452 3.14466 3.14465 -8.94961
71 1 11.007 4.71679 4.71674 -8.94951
72 1 12.5794 3.14466 3.14464 -8.94963
73 1 14.1522 4.71656 4.71672 -8.94975
74 1 15.7244 3.14463 3.14466 -8.94963
75 1 17.297 4.71695 4.71698 -8.94938
76 1 18.8691 3.14478 3.14477 -8.94955
77 1 20.4416 4.71717 4.71718 -8.94961
78 1 22.0139 6.28963 3.14477 -8.94963
79 1 1.57217 7.862 4.71708 -8.94963
80 1 3.14461 6.28953 3.14464 -8.94956
81 1 4.71655 7.86174 4.71663 -8.94931
82 1 6.28928 6.28927 3.14415 -8.94976
83 1 7.86129 7.86125 4.71555 -8.95087
84 1 9.43447 6.28927 3.14438 -8.94953
85 1 11.0068 7.86172 4.71611 -8.94976
86 1 12.5794 6.2893 3.14437 -8.94993
87 1 14.1536 7.86037 4.71519 -8.94785
88 1 15.7248 6.28911 3.14419 -8.94909
89 1 17.2972 7.86183 4.71687 -8.9499
90 1 18.8692 6.28958 3.1447 -8.94967
91 1 20.4416 7.86204 4.71714 -8.9497
92 1 -5.22464e-05 9.4345 3.14475 -8.94961
93 1 3.14455 9.43445 3.14457 -8.94958
94 1 6.2892 9.43441 3.14413 -8.94993
95 1 9.43382 9.43374 3.14316 -8.94815
96 1 12.5804 9.43355 3.14254 -8.94952
97 1 15.7247 9.43439 3.14437 -8.9497
98 1 18.8692 9.4345 3.14469 -8.9496
99 1 -5.99348e-06 1.37742e-05 6.28968 -8.94964
100 1 1.57237 1.5724 7.86211 -8.94963
101 1 3.14473 3.6713e-05 6.28966 -8.94964
102 1 4.71704 1.57232 7.86206 -8.94955
167 1 15.7254 6.28854 9.43428 -8.9493
104 1 7.86167 1.57188 7.86167 -8.95
105 1 9.43449 0.000120466 6.28937 -8.94949
106 1 11.0071 1.57192 7.86169 -8.94962
107 1 12.5796 0.000116211 6.28935 -8.94959
108 1 14.1521 1.57222 7.86184 -8.94976
166 1 12.581 6.28533 9.4332 -8.94969
110 1 17.2968 1.57234 7.86207 -8.94961
111 1 18.8691 3.3432e-05 6.28966 -8.94965
112 1 20.4415 1.5724 7.8621 -8.94963
113 1 22.0139 3.1448 6.28967 -8.94963
114 1 1.57226 4.71714 7.86209 -8.94963
115 1 3.14465 3.14472 6.28964 -8.94971
116 1 4.71671 4.71687 7.86196 -8.94984
117 1 6.28901 3.144 6.28901 -8.94937
118 1 7.86043 4.71431 7.86049 -8.94882
119 1 9.43452 3.14422 6.28927 -8.94935
120 1 11.0077 4.71489 7.8609 -8.94755
121 1 12.5797 3.14411 6.28914 -8.94948
122 1 14.1528 4.71584 7.8614 -8.94966
123 1 15.7246 3.14442 6.28938 -8.94955
124 1 17.2971 4.71687 7.86195 -8.94966
125 1 18.8692 3.14473 6.28963 -8.94964
126 1 20.4416 4.71714 7.86207 -8.94963
127 1 -4.33328e-05 6.28956 6.28959 -8.94967
128 1 1.57203 7.86191 7.86195 -8.94973
129 1 3.14425 6.2894 6.28941 -8.9499
130 1 4.71589 7.8616 7.86163 -8.95111
131 1 6.2877 6.28773 6.2877 -8.947
132 1 7.85635 7.85581 7.85589 -8.97987
133 1 9.43467 6.28845 6.28908 -8.95022
134 1 11.0095 7.85937 7.86021 -9.00086
135 1 12.5803 6.2879 6.28844 -8.95064
136 1 14.1552 7.85893 7.85991 -8.94627
137 1 15.7254 6.28866 6.2888 -8.94865
138 1 17.298 7.86139 7.86156 -8.94974
139 1 18.8695 6.2894 6.28945 -8.94956
140 1 20.4418 7.86188 7.86193 -8.9497
141 1 22.0138 9.43448 6.28955 -8.94972
142 1 3.14411 9.4344 6.28925 -8.94981
143 1 6.28793 9.43395 6.28798 -8.94863
144 1 9.43281 9.4326 6.28804 -9.00372
145 1 12.5844 9.42915 6.28406 -8.98239
146 1 15.7256 9.43413 6.28888 -8.95097
147 1 18.8695 9.43444 6.28942 -8.94978
165 1 9.43283 6.27627 9.43334 -8.96305
164 1 6.28882 6.28846 9.4344 -8.94975
150 1 6.28937 0.000132069 9.4345 -8.94954
163 1 3.14435 6.28937 9.43448 -8.94948
162 1 22.0139 6.28954 9.43451 -8.94965
153 1 15.7245 0.000117927 9.43449 -8.94962
161 1 18.8692 3.14472 9.43452 -8.94963
155 1 -1.52211e-05 3.14479 9.43453 -8.94963
156 1 3.14466 3.14471 9.43452 -8.94961
157 1 6.2892 3.14417 9.43448 -8.94925
158 1 9.43423 3.14204 9.43423 -8.95286
159 1 12.5798 3.14354 9.43421 -8.94991
160 1 15.7246 3.14438 9.43445 -8.94954
344 1 1.57233 11.0069 1.57234 -8.94963
345 1 4.717 11.0069 1.57212 -8.94958
346 1 7.86188 11.0069 1.57185 -8.9496
347 1 11.0069 11.0069 1.57047 -8.95218
513 1 4.71439 11.006 11.0064 -8.94906
181 1 17.2968 1.57234 11.007 -8.94961
188 1 17.2971 4.71684 11.007 -8.94957
190 1 1.57206 7.86191 11.0069 -8.94972
191 1 4.71601 7.86154 11.007 -8.95106
192 1 7.85727 7.85585 11.0122 -8.98062
193 1 11.0097 7.84522 11.0094 -9.0168
512 1 1.57163 11.0067 11.0068 -8.94987
177 1 4.71703 1.57231 11.007 -8.94955
184 1 4.71671 4.71683 11.007 -8.9497
189 1 20.4416 4.71713 11.007 -8.94961
7 1 9.43452 1.69353e-05 -4.6733e-06 -8.94963
643 1 17.2968 11.007 20.4416 -8.9496
644 1 20.4415 11.007 20.4415 -8.94963
178 1 7.8617 1.57185 11.0072 -8.94986
179 1 11.0071 1.57176 11.0072 -8.95078
180 1 14.1521 1.57216 11.007 -8.94965
639 1 4.7171 11.0069 20.4416 -8.94963
182 1 20.4415 1.5724 11.007 -8.94963
183 1 1.57226 4.71713 11.007 -8.94961
638 1 1.57236 11.007 20.4415 -8.94962
185 1 7.86065 4.71433 11.008 -8.94879
186 1 11.0078 4.71243 11.0078 -8.95196
187 1 14.1527 4.71575 11.007 -8.9498
48 1 15.7244 9.43448 22.0139 -8.94961
35 1 9.43448 6.28948 22.0139 -8.94959
46 1 9.43433 9.43427 22.0136 -8.94978
45 1 6.28951 9.43447 22.0138 -8.94973
43 1 22.0139 9.43453 22.0139 -8.94963
546 1 20.442 11.0067 14.1521 -8.94991
194 1 14.1547 7.85841 11.0077 -8.94862
195 1 17.2979 7.86134 11.007 -8.94982
196 1 20.4418 7.86189 11.0069 -8.94971
197 1 -5.32275e-06 1.79841e-05 12.5794 -8.94963
198 1 1.57237 1.5724 14.1518 -8.94965
343 1 18.8692 9.43451 18.8692 -8.94967
200 1 4.71699 1.57225 14.152 -8.94956
41 1 18.8691 6.28966 22.0139 -8.94966
202 1 7.86186 1.57223 14.1521 -8.94966
203 1 9.43429 0.000435303 12.5797 -8.94969
204 1 11.007 1.57218 14.1521 -8.94959
205 1 12.5798 0.000418027 12.5798 -8.94981
206 1 14.1522 1.57215 14.1521 -8.94968
37 1 12.5794 6.28949 22.0139 -8.94959
208 1 17.2968 1.57235 14.1519 -8.94963
342 1 15.7245 9.43441 18.8696 -8.94988
210 1 20.4415 1.57241 14.1518 -8.94963
211 1 22.0139 3.14479 12.5794 -8.94963
212 1 1.57224 4.71712 14.1519 -8.94969
213 1 3.14463 3.1447 12.5794 -8.94967
214 1 4.71656 4.71657 14.1523 -8.9491
215 1 6.28901 3.14399 12.5799 -8.94945
216 1 7.86144 4.71597 14.1527 -8.9498
217 1 9.43425 3.14356 12.5799 -8.94964
218 1 11.007 4.71586 14.1526 -8.94954
219 1 12.58 3.14339 12.58 -8.94983
220 1 14.1528 4.71566 14.1527 -8.94944
221 1 15.7246 3.14439 12.5795 -8.94961
222 1 17.2971 4.71686 14.152 -8.94955
223 1 18.8692 3.14472 12.5794 -8.94962
224 1 20.4416 4.71715 14.1518 -8.94964
225 1 -4.11179e-05 6.28955 12.5794 -8.94971
226 1 1.57205 7.86189 14.1519 -8.94964
227 1 3.14422 6.28937 12.5795 -8.94994
228 1 4.71608 7.86136 14.1525 -8.94968
229 1 6.28761 6.28761 12.581 -8.94757
230 1 7.85972 7.85895 14.1549 -8.95018
231 1 9.43342 6.28573 12.581 -8.94857
232 1 11.0069 7.85907 14.154 -8.95101
233 1 12.5816 6.28492 12.5816 -8.94887
234 1 14.1551 7.85815 14.1551 -8.94716
235 1 15.7255 6.28851 12.5799 -8.94907
236 1 17.2977 7.86152 14.1522 -8.95038
237 1 18.8695 6.28938 12.5795 -8.94962
238 1 20.4417 7.86194 14.1519 -8.94971
239 1 22.0138 9.43436 12.5794 -8.94969
240 1 3.14365 9.43421 12.5796 -8.9497
241 1 6.28665 9.43345 12.5809 -8.94926
242 1 9.42903 9.42741 12.586 -9.04942
243 1 12.5879 9.42354 12.5881 -9.02409
244 1 15.7266 9.43384 12.5795 -8.95214
245 1 18.87 9.43428 12.5794 -8.94965
341 1 12.5797 9.43408 18.8703 -8.95024
247 1 1.57237 1.5724 17.2967 -8.94958
248 1 3.14472 4.165e-05 15.7243 -8.94957
249 1 4.71716 1.57237 17.2968 -8.94962
340 1 9.43428 9.43407 18.8703 -8.95004
251 1 7.86206 1.57236 17.2968 -8.94964
252 1 9.43448 0.000141071 15.7244 -8.94965
253 1 11.0069 1.57235 17.2968 -8.94964
254 1 12.5794 0.000138148 15.7244 -8.94965
255 1 14.1518 1.57236 17.2968 -8.94966
339 1 6.28937 9.43436 18.8697 -8.94999
257 1 17.2968 1.57236 17.2968 -8.94956
258 1 18.8691 3.88905e-05 15.7242 -8.94964
259 1 20.4415 1.57241 17.2967 -8.94963
260 1 -1.91532e-05 3.1448 15.7242 -8.94963
261 1 1.57233 4.71718 17.2967 -8.94965
262 1 3.14465 3.14466 15.7244 -8.94948
263 1 4.71694 4.71689 17.297 -8.94949
264 1 6.28942 3.14446 15.7246 -8.94967
265 1 7.86194 4.71681 17.2971 -8.94964
266 1 9.43445 3.1444 15.7246 -8.94963
267 1 11.0069 4.71678 17.2971 -8.94954
268 1 12.5795 3.1444 15.7246 -8.94967
269 1 14.152 4.7168 17.2971 -8.94971
270 1 15.7246 3.14438 15.7246 -8.94953
271 1 17.297 4.71689 17.297 -8.94932
272 1 18.8692 3.14474 15.7243 -8.94962
273 1 20.4416 4.71719 17.2967 -8.94966
274 1 22.0139 6.28958 15.7243 -8.94966
275 1 1.57217 7.8619 17.2969 -8.94956
276 1 3.14444 6.28938 15.7245 -8.94966
277 1 4.71652 7.86153 17.2974 -8.94907
278 1 6.28872 6.28852 15.7254 -8.94941
279 1 7.86134 7.86117 17.2981 -8.94925
280 1 9.43424 6.28842 15.7254 -8.94972
281 1 11.0069 7.86122 17.298 -8.94896
282 1 12.5797 6.28839 15.7254 -8.95011
283 1 14.1527 7.86107 17.2982 -8.94922
284 1 15.7254 6.28838 15.7254 -8.9487
285 1 17.2973 7.86163 17.2972 -8.94919
286 1 18.8694 6.28943 15.7244 -8.94979
287 1 20.4417 7.86193 17.2969 -8.94955
288 1 -5.78469e-05 9.43434 15.7245 -8.94972
289 1 3.14388 9.43402 15.7249 -8.94947
290 1 6.28754 9.43285 15.7266 -8.94781
291 1 9.4331 9.43194 15.7283 -8.94742
292 1 12.5813 9.43171 15.7286 -8.94828
293 1 15.7261 9.43307 15.726 -8.94796
294 1 18.8699 9.43408 15.7248 -8.94945
295 1 -5.62111e-06 1.24006e-05 18.8691 -8.94962
296 1 1.5724 1.57241 20.4415 -8.9496
338 1 3.14466 9.43449 18.8693 -8.94966
298 1 4.71724 1.57241 20.4415 -8.94963
299 1 6.28965 4.79793e-05 18.8691 -8.94963
300 1 7.86209 1.5724 20.4415 -8.94962
337 1 22.0139 9.43452 18.8691 -8.94961
302 1 11.007 1.5724 20.4415 -8.94962
336 1 20.4415 7.8621 20.4415 -8.94965
304 1 14.1518 1.5724 20.4415 -8.94962
305 1 15.7243 4.80589e-05 18.8691 -8.94964
306 1 17.2967 1.57241 20.4415 -8.94964
335 1 18.8692 6.28955 18.8692 -8.9495
308 1 20.4415 1.57241 20.4415 -8.94959
309 1 22.0139 3.14482 18.8691 -8.94964
310 1 1.57237 4.71722 20.4415 -8.94957
311 1 3.14475 3.14476 18.8691 -8.94957
312 1 4.71716 4.71714 20.4415 -8.94958
313 1 6.28962 3.14473 18.8692 -8.94963
314 1 7.86206 4.71712 20.4416 -8.94962
315 1 9.43451 3.1447 18.8692 -8.9496
316 1 11.007 4.71711 20.4416 -8.94962
317 1 12.5794 3.14471 18.8692 -8.94961
318 1 14.1518 4.71713 20.4416 -8.94963
319 1 15.7243 3.14473 18.8692 -8.94966
320 1 17.2968 4.71714 20.4415 -8.94954
321 1 18.8691 3.14476 18.8691 -8.94952
322 1 20.4415 4.71723 20.4415 -8.94959
323 1 -1.52778e-05 6.28961 18.8691 -8.94956
324 1 1.57237 7.86209 20.4415 -8.94964
325 1 3.14463 6.28951 18.8693 -8.94945
326 1 4.71709 7.86201 20.4416 -8.94971
327 1 6.28938 6.28933 18.8695 -8.94953
328 1 7.86188 7.86181 20.4418 -8.94971
329 1 9.43444 6.2893 18.8695 -8.94956
330 1 11.007 7.86181 20.4418 -8.94956
331 1 12.5795 6.28931 18.8695 -8.94957
332 1 14.1521 7.86181 20.4418 -8.94979
333 1 15.7246 6.28931 18.8695 -8.94949
334 1 17.2968 7.86205 20.4416 -8.94967
545 1 17.2991 11.006 14.1531 -8.94871
543 1 11.0077 11.0007 14.1666 -9.00215
515 1 11.0321 10.9452 11.0386 -9.42801
541 1 4.7144 11.0059 14.1535 -8.94856
540 1 1.57164 11.0067 14.1522 -8.94987
31 1 3.14475 6.28963 22.0139 -8.94963
15 1 22.0139 3.14483 22.0139 -8.9496
19 1 6.28967 3.14478 22.0139 -8.94964
25 1 15.7242 3.14479 22.0139 -8.94967
3 1 3.14483 1.05345e-05 22.0139 -8.94964
176 1 1.57236 1.5724 11.0069 -8.94963
688 2 10.2046 11.0146 9.41304 0.806401
511 1 18.8693 18.8693 9.4345 -8.94963
510 1 15.7248 18.8697 9.43443 -8.94987
509 1 12.5807 18.8721 9.43334 -8.9494
508 1 9.43344 18.8737 9.43337 -8.95224
507 1 6.28897 18.87 9.43443 -8.94959
506 1 3.14453 18.8693 9.43449 -8.94963
349 1 17.2968 11.0069 1.57227 -8.94961
352 1 1.57233 14.1518 1.57235 -8.94962
154 1 18.8691 22.0139 9.43452 -8.94962
354 1 4.71701 14.1519 1.57216 -8.94965
152 1 12.5797 22.0144 9.43428 -8.94996
356 1 7.86173 14.1521 1.57174 -8.94968
151 1 9.4343 22.0144 9.43428 -8.95084
358 1 11.0069 14.152 1.57182 -8.94943
149 1 3.14472 22.0139 9.43452 -8.94961
360 1 14.1523 14.1523 1.57163 -8.94964
361 1 15.7244 12.5794 -6.95896e-05 -8.94956
362 1 17.2968 14.1518 1.57227 -8.94967
537 1 14.1522 20.4422 11.007 -8.94949
364 1 20.4415 14.1518 1.57238 -8.94963
148 1 -7.85729e-06 22.0139 9.43453 -8.94963
366 1 1.57236 17.2967 1.57236 -8.94962
109 1 15.7245 22.0141 6.28945 -8.94958
368 1 4.71708 17.2968 1.5722 -8.94961
103 1 6.28931 22.0141 6.28931 -8.94965
370 1 7.86204 17.2968 1.57219 -8.94972
371 1 9.43448 15.7244 -4.40784e-05 -8.94968
372 1 11.007 17.2969 1.57221 -8.94964
373 1 12.5794 15.7244 -3.53292e-05 -8.94968
374 1 14.1519 17.2968 1.57221 -8.94981
62 1 18.8691 22.0139 3.14479 -8.94956
376 1 17.2968 17.2968 1.57224 -8.94945
377 1 18.8691 15.7242 -6.93259e-06 -8.94965
378 1 20.4415 17.2967 1.57238 -8.94963
379 1 22.0139 18.8691 -6.27014e-06 -8.94964
380 1 1.57238 20.4415 1.57238 -8.94956
58 1 12.5794 22.0139 3.14472 -8.94962
382 1 4.71722 20.4415 1.57235 -8.94966
383 1 6.28964 18.8692 -5.38946e-06 -8.94965
384 1 7.8621 20.4416 1.57235 -8.94962
56 1 9.43453 22.0139 3.14473 -8.94963
386 1 11.007 20.4416 1.57234 -8.94962
52 1 3.14473 22.0139 3.14473 -8.9495
388 1 14.1518 20.4416 1.57235 -8.94963
389 1 15.7243 18.8692 7.22056e-07 -8.94967
390 1 17.2967 20.4416 1.57235 -8.9496
50 1 22.0139 22.0139 3.14483 -8.94963
392 1 20.4415 20.4415 1.57241 -8.94962
393 1 1.57212 11.0069 4.71704 -8.94957
394 1 4.71655 11.0069 4.71653 -8.94907
505 1 -1.7596e-05 18.8692 9.43452 -8.94962
504 1 18.87 15.7248 9.43417 -8.94956
503 1 15.7266 15.7257 9.4336 -8.95002
398 1 17.2972 11.0069 4.71683 -8.9494
399 1 20.4416 11.0069 4.71711 -8.94962
400 1 -5.28392e-05 12.5794 3.14475 -8.94961
401 1 1.57215 14.1519 4.71707 -8.94961
402 1 3.14454 12.5794 3.14457 -8.94958
403 1 4.71649 14.1521 4.71657 -8.94936
404 1 6.28915 12.5794 3.14408 -8.94987
405 1 7.86109 14.1526 4.71524 -8.95081
406 1 9.43378 12.5801 3.14302 -8.94818
407 1 11.0068 14.1522 4.71582 -8.94966
408 1 12.5805 12.5803 3.14236 -8.94964
409 1 14.1538 14.1535 4.71493 -8.94747
410 1 15.7247 12.5794 3.14435 -8.94966
411 1 17.2973 14.152 4.71684 -8.94995
412 1 18.8692 12.5794 3.14468 -8.9496
413 1 20.4416 14.1518 4.71713 -8.94968
414 1 22.0139 15.7243 3.14476 -8.94963
415 1 1.57223 17.2968 4.71712 -8.94968
416 1 3.14458 15.7244 3.1446 -8.94957
417 1 4.71656 17.2973 4.71653 -8.94893
418 1 6.28919 15.7246 3.14401 -8.94972
419 1 7.86184 17.2972 4.71641 -8.95024
420 1 9.43445 15.7246 3.14418 -8.94967
421 1 11.007 17.2972 4.7165 -8.94932
422 1 12.5795 15.7246 3.14417 -8.9501
423 1 14.1524 17.2975 4.71636 -8.94999
424 1 15.7249 15.7248 3.14409 -8.94898
425 1 17.297 17.2969 4.71692 -8.94951
426 1 18.8693 15.7243 3.14468 -8.94968
427 1 20.4416 17.2967 4.71716 -8.94964
428 1 -2.34953e-05 18.8691 3.14479 -8.94963
429 1 1.57235 20.4415 4.71722 -8.94963
430 1 3.14465 18.8692 3.14465 -8.94943
431 1 4.71693 20.4418 4.71693 -8.94936
432 1 6.28956 18.8693 3.14454 -8.94977
433 1 7.86205 20.4417 4.71698 -8.94963
434 1 9.43452 18.8693 3.14456 -8.94959
435 1 11.007 20.4417 4.71697 -8.94957
436 1 12.5794 18.8693 3.14455 -8.94961
437 1 14.152 20.4418 4.71696 -8.94967
438 1 15.7244 18.8693 3.14454 -8.94964
439 1 17.2968 20.4417 4.71707 -8.94942
440 1 18.8692 18.8691 3.14475 -8.94961
441 1 20.4415 20.4415 4.71722 -8.9496
502 1 12.5857 15.7319 9.42875 -8.98089
501 1 9.42826 15.7409 9.42924 -8.9964
500 1 6.2874 15.7261 9.43362 -8.95
445 1 11.0321 11.0084 7.81456 -9.27003
499 1 3.14382 15.7248 9.43416 -8.9494
498 1 22.0139 15.7245 9.43437 -8.94971
497 1 18.87 12.5794 9.43432 -8.94973
449 1 22.0138 12.5794 6.28954 -8.94972
450 1 1.572 14.1519 7.86195 -8.94981
451 1 3.14405 12.5794 6.28923 -8.94973
452 1 4.71572 14.1521 7.86153 -8.95156
453 1 6.28781 12.5797 6.288 -8.94833
454 1 7.85563 14.158 7.85526 -8.98071
455 1 9.43244 12.5815 6.28767 -9.00343
456 1 11.0096 14.1539 7.85981 -9.05524
457 1 12.5848 12.5849 6.2834 -8.98179
458 1 14.155 14.1537 7.85993 -8.94751
459 1 15.7257 12.5795 6.28894 -8.95083
460 1 17.2979 14.1521 7.86158 -8.95009
461 1 18.8696 12.5794 6.28941 -8.9497
462 1 20.4418 14.1519 7.86194 -8.94975
463 1 -5.57025e-05 15.7243 6.28957 -8.94973
464 1 1.57211 17.2969 7.86195 -8.94959
465 1 3.14416 15.7245 6.28932 -8.94998
466 1 4.71621 17.2973 7.86161 -8.94975
467 1 6.28748 15.7262 6.28738 -8.94694
468 1 7.85916 17.3008 7.85922 -8.94678
469 1 9.43452 15.7256 6.28833 -8.9516
470 1 11.0078 17.2995 7.86064 -8.94766
471 1 12.5805 15.7261 6.28763 -8.95221
472 1 14.1541 17.2991 7.86012 -8.94726
473 1 15.7254 15.725 6.28873 -8.949
474 1 17.2976 17.2973 7.86163 -8.94966
475 1 18.8695 15.7244 6.2894 -8.94965
476 1 20.4417 17.2969 7.86194 -8.94961
477 1 22.0139 18.8692 6.28961 -8.9496
478 1 1.57234 20.4416 7.8621 -8.94963
479 1 3.1445 18.8693 6.28951 -8.94964
480 1 4.71695 20.4417 7.86202 -8.94964
481 1 6.28866 18.8703 6.28866 -8.94881
482 1 7.86139 20.4427 7.86139 -8.94984
483 1 9.43447 18.8699 6.28901 -8.94951
484 1 11.0071 20.4425 7.86155 -8.94936
485 1 12.5798 18.87 6.2889 -8.94967
486 1 14.1524 20.4424 7.86155 -8.94957
487 1 15.725 18.8698 6.28903 -8.94893
488 1 17.2969 20.4417 7.86203 -8.94971
489 1 18.8693 18.8693 6.28951 -8.94958
490 1 20.4415 20.4415 7.86209 -8.94964
491 1 -6.47498e-05 12.5794 9.4344 -8.94958
492 1 3.14389 12.5794 9.43431 -8.94915
493 1 6.28825 12.579 9.43451 -9.00349
494 1 9.40952 12.6328 9.43351 -9.24941
495 1 12.5884 12.5838 9.43128 -9.01845
496 1 15.7268 12.5796 9.43437 -8.9518
536 1 11.0071 20.4441 11.0072 -8.95275
5 1 6.28968 22.0139 -1.27961e-06 -8.94963
516 1 14.154 11.0036 11.0036 -9.05122
519 1 1.57167 14.1521 11.0068 -8.9499
520 1 4.71436 14.1529 11.0063 -8.94979
521 1 7.85455 14.1597 11.0103 -9.03238
522 1 11.0093 14.2101 10.9852 -9.26205
523 1 14.1559 14.1556 11.0051 -9.00036
524 1 17.2991 14.1529 11.0062 -8.94835
525 1 20.4421 14.1521 11.0068 -8.94983
527 1 4.71643 17.2973 11.007 -8.9496
535 1 7.86162 20.4426 11.0072 -8.94975
531 1 17.2973 17.2973 11.0069 -8.94951
353 1 3.14473 12.5794 -4.72948e-05 -8.94961
687 2 11.0021 12.6038 11.7922 0.795797
686 1 20.4415 20.4415 20.4415 -8.94955
514 1 7.85592 11.0039 11.0096 -9.03379
685 1 18.8692 18.8692 18.8692 -8.94942
307 1 18.8691 22.0139 18.8691 -8.94959
684 1 17.2967 20.4415 20.4415 -8.94963
683 1 15.7244 18.8693 18.8693 -8.9496
303 1 12.5794 22.014 18.8692 -8.94961
301 1 9.43451 22.014 18.8692 -8.94961
297 1 3.14479 22.0139 18.8691 -8.94962
256 1 15.7245 22.0141 15.7244 -8.94958
250 1 6.2895 22.0141 15.7244 -8.94962
246 1 22.0139 22.0139 15.7242 -8.94965
209 1 18.8691 22.0139 12.5794 -8.94962
526 1 1.57215 17.2969 11.0069 -8.94957
199 1 3.14472 22.0139 12.5794 -8.94961
528 1 7.86054 17.3002 11.0082 -8.94962
529 1 11.0077 17.3095 11.0073 -8.96464
671 1 18.8692 15.7242 18.8692 -8.9497
670 1 17.2968 17.2968 20.4416 -8.94963
669 1 15.7245 15.7245 18.8696 -8.94991
533 1 1.57234 20.4416 11.0069 -8.94963
534 1 4.71695 20.4418 11.007 -8.94953
668 1 14.1519 17.2968 20.4417 -8.94965
667 1 12.5795 15.7246 18.8697 -8.94982
666 1 11.007 17.2969 20.4417 -8.94959
538 1 17.2969 20.4417 11.007 -8.9496
539 1 20.4415 20.4416 11.007 -8.94963
682 1 14.1518 20.4416 20.4416 -8.94962
681 1 12.5794 18.8693 18.8693 -8.94959
542 1 7.85687 11.0016 14.158 -8.98079
680 1 11.007 20.4416 20.4416 -8.94962
544 1 14.1564 11.002 14.1563 -8.98017
679 1 9.43449 18.8693 18.8693 -8.94959
678 1 7.86208 20.4416 20.4416 -8.94962
547 1 22.0138 12.5794 12.5794 -8.95058
548 1 1.57167 14.1521 14.1522 -8.94994
549 1 3.14211 12.5794 12.5796 -8.95273
550 1 4.71433 14.1532 14.1534 -8.94892
551 1 6.27737 12.5797 12.5813 -8.96357
552 1 7.85589 14.1579 14.1582 -8.98231
553 1 9.38139 12.5797 12.6028 -9.26741
554 1 11.0069 14.1554 14.1557 -8.98253
555 1 12.6319 12.5813 12.6017 -9.24398
556 1 14.1578 14.1577 14.1571 -8.98021
557 1 15.7355 12.5793 12.5798 -8.96521
558 1 17.2992 14.1529 14.153 -8.94938
559 1 18.8714 12.5794 12.5795 -8.95262
560 1 20.442 14.152 14.1521 -8.94997
561 1 -6.4854e-05 15.7244 12.5794 -8.94967
562 1 1.57214 17.2969 14.1519 -8.94965
563 1 3.14379 15.7247 12.5795 -8.94979
564 1 4.71631 17.2976 14.1524 -8.94927
565 1 6.28666 15.7264 12.581 -8.94765
566 1 7.86103 17.2987 14.1531 -8.95056
567 1 9.43201 15.7275 12.5822 -9.00135
568 1 11.007 17.2982 14.1523 -8.95036
569 1 12.5828 15.7279 12.5827 -9.0007
570 1 14.1531 17.2987 14.1531 -8.95004
571 1 15.7261 15.7251 12.5796 -8.94972
572 1 17.2973 17.2972 14.1521 -8.94984
573 1 18.8699 15.7246 12.5794 -8.94949
574 1 20.4416 17.2968 14.1519 -8.94961
575 1 22.0139 18.8692 12.5794 -8.94962
576 1 1.57234 20.4416 14.1518 -8.94965
577 1 3.14452 18.8693 12.5794 -8.94966
578 1 4.71691 20.4418 14.152 -8.94958
579 1 6.28878 18.8702 12.5799 -8.94943
580 1 7.86169 20.4422 14.1523 -8.94955
581 1 9.43365 18.8714 12.5805 -8.94785
582 1 11.007 20.4421 14.1522 -8.94949
583 1 12.5806 18.8715 12.5806 -8.94798
584 1 14.1523 20.4423 14.1523 -8.94953
585 1 15.7248 18.8697 12.5796 -8.94957
586 1 17.2969 20.4417 14.1519 -8.94965
587 1 18.8693 18.8693 12.5794 -8.94961
588 1 20.4415 20.4415 14.1518 -8.94963
677 1 6.28956 18.8693 18.8693 -8.94959
676 1 4.71722 20.4415 20.4415 -8.94962
591 1 7.86176 11.0069 17.2981 -8.95119
592 1 11.007 11.0067 17.2998 -8.95364
593 1 14.1522 11.007 17.2978 -8.95073
675 1 3.14467 18.8692 18.8692 -8.94943
674 1 1.57239 20.4415 20.4415 -8.94956
596 1 -6.23118e-05 12.5794 15.7245 -8.94955
597 1 1.57224 14.1519 17.2969 -8.94954
598 1 3.14405 12.5794 15.7247 -8.94923
599 1 4.71681 14.1519 17.2972 -8.94974
600 1 6.28843 12.5794 15.7253 -8.94951
601 1 7.86165 14.1522 17.2981 -8.9513
602 1 9.43449 12.5801 15.7254 -9.00031
603 1 11.007 14.1522 17.2979 -8.95024
604 1 12.5796 12.5802 15.7251 -8.99979
605 1 14.1523 14.1522 17.2979 -8.95109
606 1 15.7252 12.5794 15.7247 -8.94956
607 1 17.297 14.1519 17.2971 -8.9498
608 1 18.8697 12.5794 15.7246 -8.94924
609 1 20.4416 14.1518 17.2968 -8.94954
610 1 22.0139 15.7244 15.7245 -8.94973
611 1 1.5722 17.2969 17.2969 -8.94955
612 1 3.14394 15.7248 15.7249 -8.94943
613 1 4.71662 17.2973 17.2974 -8.94898
614 1 6.28767 15.7262 15.7265 -8.94743
615 1 7.86182 17.2972 17.2974 -8.94941
616 1 9.43414 15.7258 15.7261 -8.94889
617 1 11.007 17.2973 17.2973 -8.94907
618 1 12.5799 15.7258 15.726 -8.94928
619 1 14.1521 17.2972 17.2974 -8.94946
620 1 15.7261 15.7261 15.7262 -8.94721
621 1 17.2972 17.2972 17.2972 -8.94895
622 1 18.8698 15.7247 15.7248 -8.94953
623 1 20.4417 17.2968 17.2969 -8.94956
624 1 -2.34479e-05 18.8692 15.7243 -8.94964
625 1 1.57235 20.4415 17.2967 -8.9496
626 1 3.14455 18.8694 15.7244 -8.94953
627 1 4.7171 20.4417 17.2968 -8.94962
628 1 6.28923 18.8698 15.7248 -8.94972
629 1 7.86203 20.4417 17.2969 -8.94966
630 1 9.43447 18.8698 15.7248 -8.9499
631 1 11.007 20.4418 17.2969 -8.94958
632 1 12.5795 18.8698 15.7248 -8.94996
633 1 14.1519 20.4417 17.2969 -8.94967
634 1 15.7247 18.8698 15.7248 -8.94954
635 1 17.2968 20.4417 17.2968 -8.94956
636 1 18.8693 18.8693 15.7243 -8.94969
637 1 20.4415 20.4415 17.2967 -8.94965
11 1 15.7242 22.0139 22.0139 -8.94964
673 1 22.0139 18.8691 18.8691 -8.94956
640 1 7.86195 11.007 20.4418 -8.94973
641 1 11.007 11.007 20.4418 -8.9506
642 1 14.152 11.007 20.4417 -8.94965
672 1 20.4415 17.2966 20.4415 -8.94967
391 1 18.8691 18.8691 22.0139 -8.94957
645 1 22.0139 12.5794 18.8691 -8.94961
646 1 1.57237 14.1518 20.4415 -8.94962
647 1 3.14466 12.5794 18.8693 -8.94959
648 1 4.71711 14.1518 20.4416 -8.94963
649 1 6.28937 12.5794 18.8696 -8.94946
650 1 7.86192 14.152 20.4417 -8.94981
651 1 9.43433 12.5796 18.8698 -8.9491
652 1 11.007 14.152 20.4417 -8.94968
653 1 12.5796 12.5796 18.8697 -8.94911
654 1 14.152 14.152 20.4417 -8.94982
655 1 15.7245 12.5794 18.8694 -8.94936
656 1 17.2968 14.1518 20.4416 -8.94959
657 1 18.8692 12.5794 18.8692 -8.94961
658 1 20.4415 14.1518 20.4415 -8.94963
659 1 -1.60326e-05 15.7242 18.8691 -8.94961
660 1 1.57237 17.2967 20.4415 -8.94965
661 1 3.14468 15.7243 18.8693 -8.94968
662 1 4.71711 17.2968 20.4416 -8.94966
663 1 6.28939 15.7245 18.8697 -8.94997
664 1 7.86203 17.2968 20.4417 -8.94964
665 1 9.43448 15.7246 18.8697 -8.9498
207 1 15.7245 22.014 12.5794 -8.94962
355 1 6.28949 12.5794 22.0138 -8.94968
357 1 9.43432 12.5796 22.0136 -8.94964
359 1 12.5796 12.5796 22.0135 -8.94987
365 1 -1.38933e-05 15.7242 22.0139 -8.94963
367 1 3.14475 15.7243 22.0139 -8.94963
369 1 6.2895 15.7244 22.0138 -8.9497
375 1 15.7244 15.7244 22.0138 -8.94964
381 1 3.14477 18.8691 22.0139 -8.94961
385 1 9.43451 18.8692 22.0139 -8.94962
387 1 12.5794 18.8692 22.0139 -8.94962
595 1 20.4416 11.0069 17.2968 -8.94954
594 1 17.297 11.0069 17.2971 -8.9497
590 1 4.71678 11.0069 17.2973 -8.94964
589 1 1.57223 11.0069 17.2969 -8.94954
201 1 6.28933 22.014 12.5796 -8.94969
351 1 22.0139 12.5794 22.0139 -8.94963
363 1 18.8691 12.5794 22.0139 -8.94962
1 1 -6.15318e-06 22.0139 22.0139 -8.94958
530 1 14.1527 17.2985 11.0072 -8.95027
532 1 20.4417 17.2969 11.0069 -8.94959
