ITEM: TIMESTEP
51
ITEM: NUMBER OF ATOMS
688
ITEM: BOX BOUNDS pp pp pp
0.0000000000000000e+00 2.2013900999999997e+01
0.0000000000000000e+00 2.2013900999999997e+01
0.0000000000000000e+00 2.2013900999999997e+01
ITEM: ATOMS id type x y z c_pot
175 1 18.8699 9.43422 9.43426 -8.94982
2 1 1.57241 1.57241 1.57241 -8.94959
517 1 17.2986 11.0062 11.0062 -8.94762
4 1 4.71726 1.57241 1.57241 -8.94967
174 1 15.7271 9.43337 9.43369 -8.95141
6 1 7.8621 1.57241 1.57241 -8.94963
448 1 20.4416 11.0069 7.86202 -8.94968
8 1 11.007 1.57241 1.5724 -8.94963
9 1 12.5794 3.60773e-06 1.53361e-07 -8.94964
10 1 14.1518 1.57241 1.57241 -8.94964
173 1 12.5901 9.42475 9.43099 -9.01408
12 1 17.2966 1.57241 1.57241 -8.94963
13 1 18.8691 2.64295e-06 -1.28594e-06 -8.94963
14 1 20.4415 1.57242 1.57242 -8.94962
447 1 17.2975 11.0069 7.86171 -8.94937
16 1 1.5724 4.71725 1.5724 -8.94962
17 1 3.14483 3.14483 -1.059e-05 -8.94962
18 1 4.7172 4.71719 1.57232 -8.94961
446 1 14.1532 11.0065 7.86135 -9.00099
20 1 7.86211 4.71719 1.57235 -8.94964
21 1 9.43453 3.14482 -1.01715e-05 -8.94964
22 1 11.007 4.71718 1.57233 -8.94963
23 1 12.5794 3.14482 -1.03556e-05 -8.94963
24 1 14.1518 4.7172 1.57237 -8.94973
444 1 7.85762 11.0066 7.85744 -8.98111
26 1 17.2967 4.71719 1.57234 -8.94949
27 1 18.8691 3.14483 -5.4621e-06 -8.94959
28 1 20.4415 4.71725 1.57241 -8.94963
29 1 -4.64301e-06 6.28969 -3.5785e-06 -8.94965
30 1 1.57239 7.86209 1.57239 -8.94963
443 1 4.71584 11.0069 7.86152 -8.95059
32 1 4.71714 7.86204 1.57227 -8.94965
33 1 6.2896 6.28958 -7.23003e-05 -8.94961
34 1 7.86187 7.86183 1.57197 -8.94964
442 1 1.57207 11.0069 7.86202 -8.94982
36 1 11.0069 7.86193 1.57211 -8.94944
397 1 14.1523 11.0069 4.71629 -8.9494
38 1 14.1521 7.86176 1.57191 -8.94963
39 1 15.7243 6.28957 -7.37662e-05 -8.94958
40 1 17.2967 7.8621 1.57238 -8.94969
396 1 11.0074 11.007 4.70798 -8.96384
42 1 20.4415 7.86211 1.57241 -8.94963
395 1 7.86184 11.0069 4.71585 -8.95074
44 1 3.14481 9.43452 -2.68383e-05 -8.94961
350 1 20.4415 11.0069 1.57241 -8.94963
518 1 20.4419 11.0068 11.0068 -8.94973
47 1 12.5795 9.43436 -0.000267208 -8.95
348 1 14.152 11.0069 1.57205 -8.94935
49 1 18.8691 9.43453 -4.66762e-06 -8.94963
172 1 9.41009 9.38047 9.43318 -9.24238
51 1 1.57241 1.57242 4.71727 -8.94967
171 1 6.28854 9.43449 9.43382 -9.00195
53 1 4.71714 1.57232 4.71714 -8.94952
54 1 6.28969 5.09477e-06 3.14482 -8.94967
55 1 7.86211 1.57237 4.71719 -8.9496
170 1 3.14407 9.43424 9.43427 -8.94904
57 1 11.007 1.57236 4.71717 -8.94961
169 1 -3.87335e-05 9.43441 9.43444 -8.94969
59 1 14.1519 1.57232 4.71717 -8.94961
60 1 15.7242 3.77969e-06 3.14481 -8.94964
61 1 17.2967 1.5724 4.71721 -8.94958
168 1 18.8693 6.2895 9.43451 -8.94961
63 1 20.4415 1.57242 4.71726 -8.94964
64 1 -5.92548e-06 3.14483 3.14483 -8.94963
65 1 1.57235 4.71721 4.71723 -8.94966
66 1 3.14476 3.14476 3.14477 -8.94946
67 1 4.71686 4.71683 4.71686 -8.94895
68 1 6.28968 3.14479 3.14477 -8.94975
69 1 7.86211 4.71705 4.71699 -8.95001
70 1 9.43452 3.14475 3.14476 -8.94962
71 1 11.007 4.71699 4.71693 -8.94953
72 1 12.5794 3.14477 3.14476 -8.94964
73 1 14.152 4.71679 4.71694 -8.94975
74 1 15.7243 3.14474 3.14476 -8.94963
75 1 17.2968 4.7171 4.71711 -8.94941
76 1 18.8691 3.14482 3.14482 -8.94959
77 1 20.4415 4.71723 4.71723 -8.94961
78 1 22.0139 6.28966 3.14481 -8.94963
79 1 1.57226 7.86204 4.71716 -8.94962
80 1 3.14472 6.28959 3.14473 -8.94955
81 1 4.71672 7.86179 4.71679 -8.94924
82 1 6.28943 6.28941 3.14436 -8.94973
83 1 7.86142 7.86141 4.71576 -8.95084
84 1 9.43452 6.2894 3.14457 -8.94953
85 1 11.0067 7.86188 4.71641 -8.94976
86 1 12.5794 6.28946 3.1446 -8.94991
87 1 14.1533 7.86059 4.71555 -8.94786
88 1 15.7246 6.2893 3.1444 -8.9491
89 1 17.297 7.86195 4.71703 -8.94986
90 1 18.8691 6.28964 3.14478 -8.94966
91 1 20.4415 7.86208 4.71721 -8.94969
92 1 -2.70045e-05 9.43452 3.14481 -8.94962
93 1 3.14468 9.43448 3.14469 -8.9496
94 1 6.28929 9.43443 3.14426 -8.94992
95 1 9.43386 9.4338 3.14339 -8.94815
96 1 12.5803 9.43364 3.14289 -8.94948
97 1 15.7245 9.43448 3.1446 -8.94971
98 1 18.8691 9.43452 3.14478 -8.9496
99 1 -7.14083e-07 2.61475e-06 6.28969 -8.94964
100 1 1.57241 1.57241 7.86211 -8.94963
101 1 3.14482 1.16741e-05 6.28969 -8.94965
102 1 4.71718 1.57239 7.86211 -8.94958
167 1 15.7251 6.28888 9.43441 -8.94932
104 1 7.86183 1.57203 7.86183 -8.94996
105 1 9.43453 4.91949e-05 6.28954 -8.94952
106 1 11.0071 1.57207 7.86185 -8.9496
107 1 12.5795 4.19977e-05 6.28952 -8.94961
108 1 14.152 1.5723 7.86197 -8.94977
166 1 12.5808 6.2861 9.43332 -8.94975
110 1 17.2967 1.57239 7.8621 -8.94963
111 1 18.8691 9.55261e-06 6.28968 -8.94966
112 1 20.4415 1.57242 7.86211 -8.94963
113 1 22.0139 3.14483 6.28969 -8.94963
114 1 1.57236 4.71722 7.86211 -8.94962
115 1 3.14478 3.14481 6.28969 -8.94972
116 1 4.71698 4.71711 7.86209 -8.94984
117 1 6.28924 3.14424 6.28924 -8.94941
118 1 7.86073 4.71485 7.86076 -8.94888
119 1 9.43456 3.14448 6.28946 -8.94938
120 1 11.0077 4.71547 7.86114 -8.94757
121 1 12.5796 3.14434 6.28934 -8.94952
122 1 14.1525 4.7162 7.86162 -8.94969
123 1 15.7244 3.14459 6.28952 -8.94956
124 1 17.2969 4.71706 7.86203 -8.94967
125 1 18.8691 3.1448 6.28967 -8.94965
126 1 20.4415 4.71722 7.8621 -8.94964
127 1 -1.98627e-05 6.28963 6.28965 -8.94966
128 1 1.57216 7.86199 7.86203 -8.94972
129 1 3.14446 6.28952 6.28954 -8.94989
130 1 4.71608 7.8618 7.8618 -8.95112
131 1 6.28799 6.28801 6.28798 -8.94704
132 1 7.85641 7.8563 7.85604 -8.97978
133 1 9.43477 6.28885 6.28933 -8.95025
134 1 11.0093 7.86008 7.86042 -9.00101
135 1 12.58 6.28825 6.28877 -8.95069
136 1 14.155 7.85927 7.86014 -8.94623
137 1 15.7251 6.28891 6.28904 -8.94866
138 1 17.2977 7.86158 7.86172 -8.94974
139 1 18.8693 6.28953 6.28955 -8.94957
140 1 20.4417 7.86198 7.86201 -8.9497
141 1 22.0138 9.4345 6.28962 -8.94974
142 1 3.14422 9.43441 6.28936 -8.9498
143 1 6.28787 9.43397 6.28801 -8.94842
144 1 9.43271 9.43284 6.28813 -9.00364
145 1 12.5842 9.42939 6.28437 -8.98245
146 1 15.7254 9.43422 6.28911 -8.95089
147 1 18.8694 9.43448 6.28953 -8.94977
165 1 9.43299 6.27736 9.43346 -8.96296
164 1 6.2891 6.28895 9.4345 -8.94974
150 1 6.28954 6.06234e-05 9.43453 -8.94954
163 1 3.14456 6.2895 9.43452 -8.94945
162 1 22.0139 6.28963 9.43453 -8.94965
153 1 15.7243 5.01064e-05 9.43453 -8.94963
161 1 18.8691 3.1448 9.43453 -8.94963
155 1 -3.90098e-06 3.14483 9.43453 -8.94963
156 1 3.14477 3.14479 9.43452 -8.94963
157 1 6.28943 3.14448 9.43452 -8.94926
158 1 9.43434 3.14253 9.43431 -8.95269
159 1 12.5797 3.14395 9.4343 -8.94988
160 1 15.7244 3.14458 9.43451 -8.94955
344 1 1.57239 11.0069 1.57239 -8.94964
345 1 4.71712 11.0069 1.57222 -8.94957
346 1 7.86197 11.0069 1.57199 -8.94965
347 1 11.0069 11.0069 1.57071 -8.95215
513 1 4.71466 11.0061 11.0065 -8.94903
181 1 17.2967 1.57239 11.007 -8.94962
188 1 17.2969 4.71703 11.007 -8.94958
190 1 1.57219 7.862 11.0069 -8.94973
191 1 4.71625 7.86177 11.007 -8.95104
192 1 7.85744 7.85658 11.0121 -8.98064
193 1 11.0095 7.84652 11.0091 -9.01716
512 1 1.5718 11.0068 11.0068 -8.94988
177 1 4.71718 1.57238 11.0069 -8.94958
184 1 4.71696 4.71707 11.0069 -8.94971
189 1 20.4415 4.71722 11.007 -8.94962
7 1 9.43453 3.63103e-06 1.19619e-07 -8.94964
643 1 17.2967 11.007 20.4415 -8.94961
644 1 20.4415 11.007 20.4415 -8.94964
178 1 7.86186 1.57202 11.0071 -8.94983
179 1 11.0071 1.57197 11.0071 -8.95066
180 1 14.152 1.57228 11.007 -8.94966
639 1 4.71719 11.007 20.4415 -8.94962
182 1 20.4415 1.57242 11.007 -8.94964
183 1 1.57236 4.71721 11.0069 -8.94961
638 1 1.57241 11.007 20.4415 -8.94963
185 1 7.86093 4.71496 11.0079 -8.94884
186 1 11.0077 4.71327 11.0077 -8.95183
187 1 14.1524 4.71623 11.007 -8.9498
48 1 15.7243 9.43452 22.0139 -8.94962
35 1 9.43452 6.28959 22.0139 -8.9496
46 1 9.43438 9.43434 22.0137 -8.94978
45 1 6.2896 9.43451 22.0138 -8.94974
43 1 22.0139 9.43453 22.0139 -8.94964
546 1 20.4419 11.0068 14.152 -8.94988
194 1 14.1543 7.85908 11.0076 -8.94861
195 1 17.2976 7.86155 11.007 -8.94978
196 1 20.4416 7.862 11.007 -8.94972
197 1 -5.97892e-07 3.2809e-06 12.5794 -8.94963
198 1 1.57241 1.57242 14.1518 -8.94966
343 1 18.8691 9.43454 18.8691 -8.94969
200 1 4.71714 1.57232 14.1519 -8.94958
41 1 18.8691 6.28968 22.0139 -8.94966
202 1 7.86199 1.57234 14.152 -8.94967
203 1 9.43436 0.000330851 12.5796 -8.94967
204 1 11.0069 1.5723 14.1519 -8.94961
205 1 12.5796 0.000321495 12.5796 -8.94978
206 1 14.152 1.57227 14.152 -8.94968
37 1 12.5794 6.28961 22.0139 -8.9496
208 1 17.2967 1.57239 14.1518 -8.94964
342 1 15.7244 9.43448 18.8694 -8.94987
210 1 20.4415 1.57242 14.1518 -8.94964
211 1 22.0139 3.14483 12.5794 -8.94963
212 1 1.57234 4.71721 14.1518 -8.94968
213 1 3.14477 3.1448 12.5794 -8.94969
214 1 4.71681 4.71681 14.1521 -8.94911
215 1 6.28925 3.14427 12.5797 -8.94948
216 1 7.8617 4.7164 14.1524 -8.94981
217 1 9.43434 3.144 12.5797 -8.94959
218 1 11.0069 4.71636 14.1523 -8.94956
219 1 12.5798 3.14382 12.5798 -8.94978
220 1 14.1525 4.7161 14.1524 -8.9495
221 1 15.7244 3.1446 12.5794 -8.94962
222 1 17.2969 4.71706 14.1519 -8.94956
223 1 18.8691 3.1448 12.5794 -8.94963
224 1 20.4415 4.71723 14.1518 -8.94963
225 1 -1.95387e-05 6.28964 12.5794 -8.9497
226 1 1.57221 7.86199 14.1519 -8.94962
227 1 3.14445 6.28951 12.5794 -8.94992
228 1 4.71646 7.86158 14.1522 -8.94964
229 1 6.28795 6.28802 12.5808 -8.9476
230 1 7.86014 7.8595 14.1544 -8.95027
231 1 9.43361 6.28662 12.5807 -8.94855
232 1 11.0068 7.85977 14.1535 -8.951
233 1 12.5813 6.28577 12.5813 -8.94895
234 1 14.1547 7.85861 14.1546 -8.9471
235 1 15.7252 6.2889 12.5797 -8.94909
236 1 17.2973 7.86175 14.152 -8.95034
237 1 18.8693 6.28952 12.5794 -8.94961
238 1 20.4416 7.86204 14.1518 -8.94969
239 1 22.0138 9.43444 12.5794 -8.94969
240 1 3.14396 9.4343 12.5796 -8.94968
241 1 6.28699 9.43377 12.5807 -8.94925
242 1 9.42921 9.42834 12.5855 -9.04955
243 1 12.5879 9.42424 12.588 -9.02415
244 1 15.7262 9.43412 12.5794 -8.95218
245 1 18.8696 9.43438 12.5794 -8.94965
341 1 12.5796 9.43416 18.87 -8.95018
247 1 1.57241 1.57241 17.2966 -8.94961
248 1 3.1448 1.18337e-05 15.7242 -8.9496
249 1 4.71723 1.57241 17.2967 -8.94963
340 1 9.43432 9.43415 18.87 -8.94997
251 1 7.86209 1.5724 17.2967 -8.94966
252 1 9.43451 9.23629e-05 15.7243 -8.94969
253 1 11.0069 1.5724 17.2967 -8.94965
254 1 12.5794 9.2879e-05 15.7243 -8.94969
255 1 14.1518 1.5724 17.2967 -8.94967
339 1 6.28951 9.43444 18.8695 -8.94999
257 1 17.2967 1.5724 17.2967 -8.94959
258 1 18.8691 1.15452e-05 15.7242 -8.94964
259 1 20.4415 1.57242 17.2966 -8.94964
260 1 -5.55183e-06 3.14483 15.7242 -8.94963
261 1 1.57239 4.71724 17.2967 -8.94965
262 1 3.14476 3.14476 15.7243 -8.94951
263 1 4.7171 4.71707 17.2968 -8.94953
264 1 6.28956 3.14465 15.7244 -8.94968
265 1 7.86203 4.71702 17.2969 -8.94964
266 1 9.4345 3.14461 15.7244 -8.94966
267 1 11.0069 4.71699 17.2969 -8.94955
268 1 12.5794 3.14461 15.7244 -8.94969
269 1 14.1519 4.71703 17.2969 -8.94973
270 1 15.7244 3.14459 15.7244 -8.94955
271 1 17.2968 4.71707 17.2968 -8.94938
272 1 18.8691 3.14481 15.7242 -8.94963
273 1 20.4415 4.71724 17.2967 -8.94966
274 1 22.0139 6.28965 15.7242 -8.94965
275 1 1.57229 7.862 17.2968 -8.94957
276 1 3.14464 6.28953 15.7243 -8.94965
277 1 4.71676 7.86171 17.2971 -8.94908
278 1 6.28904 6.28886 15.725 -8.94945
279 1 7.86154 7.8614 17.2977 -8.94924
280 1 9.43437 6.28877 15.725 -8.94975
281 1 11.0069 7.86143 17.2976 -8.94894
282 1 12.5795 6.2888 15.725 -8.95014
283 1 14.1525 7.86133 17.2978 -8.94921
284 1 15.725 6.28873 15.725 -8.94875
285 1 17.2971 7.8618 17.297 -8.94919
286 1 18.8692 6.28958 15.7243 -8.94978
287 1 20.4416 7.86202 17.2967 -8.94957
288 1 -2.87564e-05 9.43442 15.7243 -8.9497
289 1 3.14418 9.43416 15.7247 -8.94949
290 1 6.28787 9.43304 15.7262 -8.94782
291 1 9.43324 9.43222 15.7278 -8.94736
292 1 12.581 9.432 15.7282 -8.94836
293 1 15.7258 9.43325 15.7257 -8.94792
294 1 18.8696 9.43421 15.7246 -8.94947
295 1 -1.38468e-06 2.62798e-06 18.8691 -8.94963
296 1 1.57242 1.57242 20.4415 -8.94962
338 1 3.14479 9.43453 18.8691 -8.94968
298 1 4.71726 1.57242 20.4415 -8.94963
299 1 6.28967 2.2441e-05 18.8691 -8.94963
300 1 7.8621 1.57242 20.4415 -8.94963
337 1 22.0139 9.43454 18.8691 -8.94963
302 1 11.007 1.57242 20.4415 -8.94963
336 1 20.4415 7.86211 20.4415 -8.94966
304 1 14.1518 1.57242 20.4415 -8.94963
305 1 15.7242 2.2831e-05 18.8691 -8.94964
306 1 17.2966 1.57242 20.4415 -8.94964
335 1 18.8691 6.28963 18.8691 -8.94953
308 1 20.4415 1.57242 20.4415 -8.94962
309 1 22.0139 3.14484 18.8691 -8.94964
310 1 1.57241 4.71725 20.4415 -8.9496
311 1 3.14481 3.14481 18.8691 -8.9496
312 1 4.71722 4.71722 20.4415 -8.9496
313 1 6.28966 3.1448 18.8691 -8.94964
314 1 7.86209 4.71721 20.4415 -8.94964
315 1 9.43452 3.14479 18.8691 -8.94962
316 1 11.007 4.71721 20.4415 -8.94964
317 1 12.5794 3.14479 18.8691 -8.94962
318 1 14.1518 4.71722 20.4415 -8.94964
319 1 15.7242 3.1448 18.8691 -8.94966
320 1 17.2967 4.71722 20.4415 -8.94957
321 1 18.8691 3.14481 18.8691 -8.94957
322 1 20.4415 4.71726 20.4415 -8.94962
323 1 -5.3113e-06 6.28966 18.8691 -8.94959
324 1 1.57241 7.86211 20.4415 -8.94965
325 1 3.14474 6.2896 18.8692 -8.94949
326 1 4.71719 7.86207 20.4415 -8.9497
327 1 6.28952 6.28949 18.8693 -8.94953
328 1 7.86196 7.86193 20.4416 -8.94969
329 1 9.43448 6.28947 18.8693 -8.94958
330 1 11.007 7.86194 20.4417 -8.94955
331 1 12.5794 6.28949 18.8693 -8.94958
332 1 14.152 7.86193 20.4417 -8.94974
333 1 15.7244 6.28948 18.8693 -8.94949
334 1 17.2967 7.86209 20.4415 -8.94968
545 1 17.2987 11.0061 14.1529 -8.94875
543 1 11.0076 11.0012 14.1663 -9.00187
515 1 11.0328 10.9453 11.0386 -9.42972
541 1 4.71484 11.006 14.1532 -8.9486
540 1 1.57187 11.0068 14.1521 -8.94984
31 1 3.14481 6.28966 22.0139 -8.94963
15 1 22.0139 3.14484 22.0139 -8.94962
19 1 6.28968 3.14483 22.0139 -8.94964
25 1 15.7242 3.14483 22.0139 -8.94966
3 1 3.14484 2.5691e-06 22.0139 -8.94964
176 1 1.57241 1.57242 11.0069 -8.94964
688 2 10.2072 11.0137 9.41528 0.808478
511 1 18.8692 18.8692 9.43452 -8.94964
510 1 15.7246 18.8695 9.43452 -8.94987
509 1 12.5804 18.8715 9.43353 -8.94935
508 1 9.43359 18.8729 9.43354 -8.95205
507 1 6.28925 18.8696 9.43452 -8.94959
506 1 3.14471 18.8692 9.43452 -8.94964
349 1 17.2967 11.0069 1.57236 -8.94963
352 1 1.57239 14.1518 1.57239 -8.94963
154 1 18.8691 22.0139 9.43453 -8.94963
354 1 4.71713 14.1518 1.57226 -8.94964
152 1 12.5796 22.0143 9.43436 -8.94992
356 1 7.86184 14.1521 1.57189 -8.94969
151 1 9.43438 22.0143 9.43436 -8.95073
358 1 11.0069 14.152 1.57204 -8.94946
149 1 3.14481 22.0139 9.43453 -8.94963
360 1 14.1522 14.1521 1.57184 -8.94965
361 1 15.7243 12.5794 -2.36692e-05 -8.94958
362 1 17.2967 14.1518 1.57237 -8.94969
537 1 14.152 20.4419 11.007 -8.94951
364 1 20.4415 14.1518 1.57241 -8.94963
148 1 -7.04476e-07 22.0139 9.43453 -8.94964
366 1 1.5724 17.2967 1.5724 -8.94962
109 1 15.7243 22.014 6.28957 -8.9496
368 1 4.71718 17.2967 1.5723 -8.94961
103 1 6.28948 22.014 6.28948 -8.94965
370 1 7.86209 17.2967 1.57232 -8.9497
371 1 9.43451 15.7243 4.76694e-06 -8.9497
372 1 11.007 17.2967 1.57232 -8.94963
373 1 12.5794 15.7243 1.89082e-05 -8.9497
374 1 14.1518 17.2967 1.57233 -8.94979
62 1 18.8691 22.0139 3.14483 -8.94959
376 1 17.2967 17.2967 1.57232 -8.94948
377 1 18.8691 15.7242 -5.36765e-07 -8.94966
378 1 20.4415 17.2966 1.57241 -8.94964
379 1 22.0139 18.8691 -3.11116e-06 -8.94964
380 1 1.57241 20.4415 1.57241 -8.94959
58 1 12.5794 22.0139 3.14481 -8.94964
382 1 4.71726 20.4415 1.5724 -8.94966
383 1 6.28967 18.8691 9.48456e-06 -8.94964
384 1 7.86211 20.4415 1.5724 -8.94963
56 1 9.43453 22.0139 3.14481 -8.94964
386 1 11.007 20.4415 1.5724 -8.94963
52 1 3.1448 22.0139 3.1448 -8.94955
388 1 14.1518 20.4415 1.57241 -8.94964
389 1 15.7242 18.8691 1.17635e-05 -8.94966
390 1 17.2967 20.4415 1.5724 -8.94962
50 1 22.0139 22.0139 3.14484 -8.94964
392 1 20.4415 20.4415 1.57242 -8.94963
393 1 1.57223 11.0069 4.71715 -8.94957
394 1 4.71667 11.0069 4.71667 -8.94905
505 1 -4.36106e-06 18.8691 9.43453 -8.94964
504 1 18.8697 15.7246 9.43427 -8.94955
503 1 15.7262 15.7254 9.43375 -8.95
398 1 17.297 11.0069 4.717 -8.94938
399 1 20.4415 11.0069 4.7172 -8.94962
400 1 -2.69523e-05 12.5794 3.14481 -8.94962
401 1 1.57225 14.1519 4.71716 -8.94961
402 1 3.14467 12.5794 3.14469 -8.9496
403 1 4.71668 14.1521 4.71675 -8.94929
404 1 6.28927 12.5794 3.14423 -8.94988
405 1 7.86123 14.1525 4.71544 -8.95076
406 1 9.43383 12.5801 3.14325 -8.94823
407 1 11.0067 14.152 4.71613 -8.94964
408 1 12.5803 12.5802 3.14274 -8.94961
409 1 14.1535 14.1533 4.71527 -8.94754
410 1 15.7245 12.5794 3.14458 -8.94968
411 1 17.2971 14.1519 4.71701 -8.94992
412 1 18.8691 12.5794 3.14478 -8.9496
413 1 20.4415 14.1518 4.71721 -8.94967
414 1 22.0139 15.7242 3.14481 -8.94963
415 1 1.57233 17.2967 4.71721 -8.94968
416 1 3.1447 15.7243 3.14472 -8.94956
417 1 4.7168 17.2971 4.71678 -8.94896
418 1 6.28936 15.7245 3.14425 -8.94968
419 1 7.86201 17.297 4.71671 -8.95021
420 1 9.43451 15.7245 3.14441 -8.94966
421 1 11.007 17.297 4.71676 -8.9493
422 1 12.5794 15.7245 3.14444 -8.95008
423 1 14.1522 17.2972 4.71665 -8.94996
424 1 15.7247 15.7246 3.14431 -8.94902
425 1 17.2968 17.2968 4.71706 -8.94949
426 1 18.8692 15.7243 3.14477 -8.94968
427 1 20.4415 17.2967 4.71722 -8.94963
428 1 -7.13294e-06 18.8691 3.14483 -8.94963
429 1 1.5724 20.4415 4.71726 -8.94964
430 1 3.14475 18.8691 3.14475 -8.94947
431 1 4.7171 20.4417 4.7171 -8.94942
432 1 6.28965 18.8692 3.14471 -8.94976
433 1 7.86211 20.4416 4.71715 -8.94966
434 1 9.43453 18.8692 3.14471 -8.94959
435 1 11.007 20.4416 4.71713 -8.94961
436 1 12.5794 18.8692 3.14471 -8.9496
437 1 14.1519 20.4416 4.71712 -8.94968
438 1 15.7243 18.8692 3.14469 -8.94964
439 1 17.2967 20.4416 4.71717 -8.94947
440 1 18.8691 18.8691 3.14481 -8.94961
441 1 20.4415 20.4415 4.71725 -8.94962
502 1 12.5854 15.731 9.42909 -8.9811
501 1 9.42863 15.7395 9.42948 -8.99619
500 1 6.28784 15.7256 9.43378 -8.95003
445 1 11.0318 11.0084 7.81449 -9.26939
499 1 3.14413 15.7246 9.43427 -8.94937
498 1 22.0139 15.7244 9.43444 -8.9497
497 1 18.8698 12.5794 9.4344 -8.94978
449 1 22.0138 12.5794 6.28962 -8.94974
450 1 1.57214 14.1518 7.86204 -8.94981
451 1 3.14418 12.5794 6.28935 -8.94973
452 1 4.71595 14.1519 7.86169 -8.95152
453 1 6.28776 12.5797 6.288 -8.94818
454 1 7.85586 14.1574 7.85538 -8.98067
455 1 9.43235 12.5813 6.28761 -9.00331
456 1 11.0094 14.1532 7.86001 -9.05511
457 1 12.5846 12.5847 6.2837 -8.98181
458 1 14.1548 14.1536 7.86003 -8.94744
459 1 15.7255 12.5794 6.28912 -8.95075
460 1 17.2977 14.1521 7.86167 -8.95006
461 1 18.8694 12.5794 6.28952 -8.9497
462 1 20.4417 14.1518 7.86202 -8.94977
463 1 -2.50987e-05 15.7243 6.28964 -8.94971
464 1 1.57226 17.2968 7.86203 -8.94959
465 1 3.14439 15.7244 6.28948 -8.94995
466 1 4.71656 17.297 7.86183 -8.94976
467 1 6.28782 15.7259 6.28771 -8.94702
468 1 7.85959 17.3001 7.85964 -8.9469
469 1 9.43464 15.7252 6.28861 -8.95158
470 1 11.0077 17.2987 7.86097 -8.94771
471 1 12.5802 15.7258 6.28801 -8.95216
472 1 14.1537 17.2987 7.86046 -8.94742
473 1 15.7251 15.7249 6.28893 -8.94895
474 1 17.2973 17.297 7.86179 -8.94964
475 1 18.8693 15.7243 6.28951 -8.94963
476 1 20.4416 17.2967 7.86202 -8.94961
477 1 22.0139 18.8691 6.28966 -8.94961
478 1 1.5724 20.4415 7.86211 -8.94964
479 1 3.14468 18.8692 6.28963 -8.94966
480 1 4.71713 20.4416 7.8621 -8.94966
481 1 6.28897 18.87 6.28897 -8.94889
482 1 7.8616 20.4424 7.8616 -8.9498
483 1 9.43456 18.8695 6.28929 -8.94955
484 1 11.0071 20.4422 7.86174 -8.94933
485 1 12.5796 18.8697 6.28919 -8.9497
486 1 14.1522 20.4421 7.86173 -8.9496
487 1 15.7247 18.8696 6.28925 -8.949
488 1 17.2967 20.4416 7.86209 -8.94972
489 1 18.8692 18.8692 6.2896 -8.9496
490 1 20.4415 20.4415 7.86211 -8.94964
491 1 -5.00349e-05 12.5794 9.43447 -8.94963
492 1 3.14409 12.5794 9.4344 -8.94915
493 1 6.28839 12.5787 9.43445 -9.00334
494 1 9.40928 12.6315 9.43302 -9.24949
495 1 12.5885 12.5836 9.43099 -9.01813
496 1 15.7267 12.5796 9.43437 -8.95176
536 1 11.0071 20.4437 11.0071 -8.95257
5 1 6.28968 22.0139 1.47637e-06 -8.94963
516 1 14.154 11.0041 11.0036 -9.05173
519 1 1.57188 14.152 11.0068 -8.94985
520 1 4.71485 14.1527 11.0063 -8.94972
521 1 7.85508 14.1589 11.0101 -9.03243
522 1 11.0093 14.2083 10.9852 -9.26223
523 1 14.1555 14.1553 11.0051 -9.00026
524 1 17.2987 14.1528 11.0063 -8.94832
525 1 20.4419 14.152 11.0068 -8.94981
527 1 4.71677 17.297 11.0069 -8.94962
535 1 7.86178 20.4422 11.0071 -8.94971
531 1 17.2971 17.2971 11.007 -8.94951
353 1 3.1448 12.5794 -2.47637e-05 -8.94962
687 2 11.0029 12.6007 11.7935 0.798266
686 1 20.4415 20.4415 20.4415 -8.94959
514 1 7.85604 11.0043 11.0095 -9.03339
685 1 18.8691 18.8691 18.8691 -8.94946
307 1 18.8691 22.0139 18.8691 -8.94961
684 1 17.2967 20.4415 20.4415 -8.94963
683 1 15.7243 18.8692 18.8692 -8.94958
303 1 12.5794 22.0139 18.8691 -8.94962
301 1 9.43452 22.0139 18.8691 -8.94962
297 1 3.14483 22.0139 18.8691 -8.94963
256 1 15.7243 22.014 15.7243 -8.94959
250 1 6.2896 22.014 15.7243 -8.94962
246 1 22.0139 22.0139 15.7242 -8.94964
209 1 18.8691 22.0139 12.5794 -8.94963
526 1 1.5723 17.2967 11.0069 -8.94958
199 1 3.14481 22.0139 12.5794 -8.94963
528 1 7.8609 17.2994 11.0081 -8.94966
529 1 11.0077 17.3084 11.0073 -8.96428
671 1 18.8691 15.7242 18.8691 -8.94972
670 1 17.2967 17.2967 20.4415 -8.94964
669 1 15.7244 15.7244 18.8694 -8.94989
533 1 1.5724 20.4415 11.007 -8.94963
534 1 4.71712 20.4416 11.0069 -8.94956
668 1 14.1518 17.2967 20.4416 -8.94964
667 1 12.5794 15.7245 18.8696 -8.94981
666 1 11.007 17.2967 20.4416 -8.9496
538 1 17.2967 20.4416 11.007 -8.94961
539 1 20.4415 20.4415 11.007 -8.94964
682 1 14.1518 20.4415 20.4415 -8.94963
681 1 12.5794 18.8692 18.8692 -8.9496
542 1 7.85717 11.0018 14.1578 -8.98087
680 1 11.007 20.4415 20.4415 -8.94964
544 1 14.1562 11.0021 14.1562 -8.98009
679 1 9.43449 18.8692 18.8692 -8.9496
678 1 7.8621 20.4415 20.4415 -8.94963
547 1 22.0138 12.5794 12.5794 -8.95054
548 1 1.57189 14.152 14.152 -8.94989
549 1 3.14248 12.5794 12.5796 -8.95261
550 1 4.71484 14.153 14.1532 -8.94889
551 1 6.27795 12.5797 12.5811 -8.96342
552 1 7.85644 14.1576 14.1579 -8.98221
553 1 9.38165 12.5796 12.6027 -9.26728
554 1 11.0069 14.1554 14.1559 -8.98264
555 1 12.6321 12.5816 12.602 -9.24419
556 1 14.1574 14.1577 14.1572 -8.98002
557 1 15.735 12.5793 12.5798 -8.96516
558 1 17.2988 14.1528 14.1529 -8.94938
559 1 18.8711 12.5794 12.5794 -8.95252
560 1 20.4419 14.152 14.152 -8.94993
561 1 -2.75538e-05 15.7243 12.5794 -8.94965
562 1 1.5723 17.2967 14.1518 -8.94965
563 1 3.14417 15.7245 12.5794 -8.94976
564 1 4.71666 17.2973 14.1522 -8.94932
565 1 6.28726 15.7259 12.5807 -8.94779
566 1 7.86132 17.2983 14.1528 -8.95062
567 1 9.43235 15.7268 12.582 -9.00158
568 1 11.007 17.2979 14.1522 -8.95047
569 1 12.5824 15.7273 12.5824 -9.00105
570 1 14.1528 17.2984 14.1528 -8.95017
571 1 15.7257 15.7249 12.5795 -8.94972
572 1 17.297 17.297 14.1519 -8.94983
573 1 18.8696 15.7245 12.5794 -8.94947
574 1 20.4416 17.2967 14.1518 -8.94961
575 1 22.0139 18.8691 12.5794 -8.94963
576 1 1.5724 20.4415 14.1518 -8.94966
577 1 3.1447 18.8692 12.5794 -8.94968
578 1 4.71709 20.4417 14.1519 -8.94958
579 1 6.28905 18.8698 12.5797 -8.94945
580 1 7.86182 20.442 14.1521 -8.94956
581 1 9.43378 18.8709 12.5803 -8.94785
582 1 11.007 20.4419 14.152 -8.94954
583 1 12.5804 18.871 12.5804 -8.94797
584 1 14.1522 20.4421 14.1521 -8.94954
585 1 15.7246 18.8695 12.5795 -8.94957
586 1 17.2967 20.4416 14.1518 -8.94964
587 1 18.8692 18.8692 12.5794 -8.94962
588 1 20.4415 20.4415 14.1518 -8.94963
677 1 6.28961 18.8692 18.8692 -8.94957
676 1 4.71725 20.4415 20.4415 -8.94962
591 1 7.86193 11.007 17.2979 -8.95119
592 1 11.007 11.0067 17.2995 -8.9535
593 1 14.152 11.007 17.2976 -8.95075
675 1 3.14475 18.8691 18.8691 -8.94947
674 1 1.57241 20.4415 20.4415 -8.94959
596 1 -3.11142e-05 12.5794 15.7243 -8.94955
597 1 1.57235 14.1518 17.2967 -8.94957
598 1 3.14438 12.5794 15.7245 -8.94924
599 1 4.71705 14.1518 17.297 -8.94975
600 1 6.28881 12.5794 15.725 -8.94951
601 1 7.86182 14.1521 17.2979 -8.95123
602 1 9.43463 12.5801 15.7253 -9.00028
603 1 11.007 14.1521 17.2979 -8.95027
604 1 12.5794 12.5802 15.7251 -8.99994
605 1 14.1521 14.1521 17.2978 -8.95108
606 1 15.7249 12.5793 15.7246 -8.94953
607 1 17.2968 14.1518 17.2969 -8.9498
608 1 18.8694 12.5794 15.7244 -8.94924
609 1 20.4415 14.1518 17.2967 -8.94957
610 1 22.0139 15.7243 15.7243 -8.94971
611 1 1.5723 17.2967 17.2968 -8.94956
612 1 3.14422 15.7246 15.7247 -8.94944
613 1 4.71682 17.2971 17.2971 -8.94901
614 1 6.28801 15.7259 15.7261 -8.94747
615 1 7.86187 17.2971 17.2972 -8.94935
616 1 9.43421 15.7257 15.726 -8.94879
617 1 11.007 17.2972 17.2972 -8.94905
618 1 12.5798 15.7257 15.726 -8.94914
619 1 14.1521 17.2971 17.2972 -8.9494
620 1 15.7258 15.7259 15.7259 -8.94719
621 1 17.2971 17.297 17.2971 -8.94898
622 1 18.8696 15.7246 15.7246 -8.94954
623 1 20.4416 17.2967 17.2967 -8.94957
624 1 -6.8101e-06 18.8691 15.7242 -8.94964
625 1 1.5724 20.4415 17.2966 -8.94963
626 1 3.14471 18.8692 15.7243 -8.94957
627 1 4.71719 20.4416 17.2967 -8.94963
628 1 6.2894 18.8696 15.7246 -8.94972
629 1 7.86206 20.4416 17.2968 -8.94965
630 1 9.43449 18.8696 15.7246 -8.94991
631 1 11.0069 20.4417 17.2968 -8.94958
632 1 12.5794 18.8696 15.7246 -8.94995
633 1 14.1518 20.4416 17.2968 -8.94967
634 1 15.7245 18.8696 15.7246 -8.94957
635 1 17.2967 20.4416 17.2967 -8.94958
636 1 18.8691 18.8691 15.7242 -8.9497
637 1 20.4415 20.4415 17.2966 -8.94965
11 1 15.7242 22.0139 22.0139 -8.94964
673 1 22.0139 18.8691 18.8691 -8.94958
640 1 7.86202 11.007 20.4417 -8.94974
641 1 11.0069 11.007 20.4418 -8.95058
642 1 14.1519 11.007 20.4416 -8.94965
672 1 20.4415 17.2966 20.4415 -8.94967
391 1 18.8691 18.8691 22.0139 -8.9496
645 1 22.0139 12.5794 18.8691 -8.94964
646 1 1.57241 14.1518 20.4415 -8.94963
647 1 3.14477 12.5794 18.8691 -8.94962
648 1 4.7172 14.1518 20.4415 -8.94963
649 1 6.2895 12.5794 18.8694 -8.94946
650 1 7.86199 14.1519 20.4416 -8.9498
651 1 9.43438 12.5795 18.8697 -8.9491
652 1 11.007 14.1519 20.4417 -8.94973
653 1 12.5796 12.5795 18.8696 -8.94913
654 1 14.1519 14.1519 20.4416 -8.94981
655 1 15.7244 12.5794 18.8693 -8.94936
656 1 17.2967 14.1518 20.4415 -8.9496
657 1 18.8691 12.5794 18.8691 -8.94963
658 1 20.4415 14.1518 20.4415 -8.94963
659 1 -5.35081e-06 15.7242 18.8691 -8.94963
660 1 1.57241 17.2966 20.4415 -8.94966
661 1 3.14479 15.7242 18.8691 -8.94969
662 1 4.7172 17.2967 20.4415 -8.94966
663 1 6.28951 15.7244 18.8695 -8.94993
664 1 7.86206 17.2967 20.4416 -8.94963
665 1 9.43448 15.7245 18.8696 -8.9498
207 1 15.7243 22.014 12.5794 -8.94964
355 1 6.28959 12.5794 22.0138 -8.94969
357 1 9.43438 12.5795 22.0136 -8.94967
359 1 12.5795 12.5795 22.0136 -8.94988
365 1 -4.6401e-06 15.7242 22.0139 -8.94963
367 1 3.14481 15.7242 22.0139 -8.94963
369 1 6.28959 15.7243 22.0138 -8.94967
375 1 15.7243 15.7243 22.0138 -8.94963
381 1 3.14482 18.8691 22.0139 -8.94962
385 1 9.43452 18.8691 22.0139 -8.94962
387 1 12.5794 18.8691 22.0139 -8.94962
595 1 20.4415 11.007 17.2967 -8.94957
594 1 17.2968 11.007 17.2969 -8.94972
590 1 4.71703 11.007 17.297 -8.94966
589 1 1.57235 11.007 17.2967 -8.94957
201 1 6.2895 22.014 12.5795 -8.94969
351 1 22.0139 12.5794 22.0139 -8.94964
363 1 18.8691 12.5794 22.0139 -8.94963
1 1 -1.54075e-06 22.0139 22.0139 -8.94961
530 1 14.1524 17.298 11.0072 -8.95034
532 1 20.4416 17.2967 11.007 -8.9496
