ITEM: TIMESTEP
31
ITEM: NUMBER OF ATOMS
688
ITEM: BOX BOUNDS pp pp pp
0.0000000000000000e+00 2.2013900999999997e+01
0.0000000000000000e+00 2.2013900999999997e+01
0.0000000000000000e+00 2.2013900999999997e+01
ITEM: ATOMS id type x y z c_pot
175 1 18.8691 9.43453 9.43453 -8.94965
2 1 1.57242 1.57242 1.57242 -8.94963
517 1 17.2966 11.0069 11.0069 -8.94929
4 1 4.71726 1.57242 1.57242 -8.94963
174 1 15.7243 9.43454 9.43453 -8.95045
6 1 7.86211 1.57242 1.57242 -8.94963
448 1 20.4415 11.007 7.86211 -8.94963
8 1 11.007 1.57242 1.57242 -8.94963
9 1 12.5794 1.30352e-10 3.12666e-10 -8.94963
10 1 14.1518 1.57242 1.57242 -8.94963
173 1 12.582 9.43325 9.43476 -9.02632
12 1 17.2966 1.57242 1.57242 -8.94963
13 1 18.8691 6.87535e-12 2.96332e-11 -8.94963
14 1 20.4415 1.57242 1.57242 -8.94963
447 1 17.2966 11.0069 7.86211 -8.94944
16 1 1.57242 4.71726 1.57242 -8.94963
17 1 3.14484 3.14484 3.08557e-10 -8.94963
18 1 4.71726 4.71726 1.57242 -8.94963
446 1 14.1512 11.0069 7.8625 -8.99677
20 1 7.86211 4.71726 1.57242 -8.94963
21 1 9.43453 3.14484 3.89532e-10 -8.94963
22 1 11.007 4.71726 1.57242 -8.94963
23 1 12.5794 3.14484 1.50402e-09 -8.94963
24 1 14.1518 4.71726 1.57242 -8.94963
444 1 7.85941 11.0069 7.86028 -8.98457
26 1 17.2966 4.71726 1.57242 -8.94963
27 1 18.8691 3.14484 7.87033e-11 -8.94963
28 1 20.4415 4.71726 1.57242 -8.94963
29 1 1.21683e-10 6.28969 6.25571e-11 -8.94963
30 1 1.57242 7.86211 1.57242 -8.94963
443 1 4.71721 11.0069 7.86211 -8.95043
32 1 4.71726 7.86211 1.57242 -8.94963
33 1 6.28969 6.28969 9.30853e-09 -8.94963
34 1 7.86211 7.86211 1.57242 -8.94963
442 1 1.57242 11.007 7.86211 -8.94965
36 1 11.007 7.86211 1.57242 -8.94964
397 1 14.1518 11.0069 4.7173 -8.95012
38 1 14.1518 7.86211 1.57242 -8.94963
39 1 15.7242 6.28969 1.09051e-08 -8.94963
40 1 17.2966 7.86211 1.57242 -8.94963
396 1 11.0069 11.0069 4.71676 -8.95414
42 1 20.4415 7.86211 1.57242 -8.94963
395 1 7.8621 11.0069 4.71721 -8.95022
44 1 3.14484 9.43453 4.99167e-09 -8.94963
350 1 20.4415 11.007 1.57242 -8.94963
518 1 20.4415 11.007 11.007 -8.94963
47 1 12.5794 9.43453 9.2197e-08 -8.94963
348 1 14.1518 11.007 1.57242 -8.94963
49 1 18.8691 9.43453 2.31522e-09 -8.94963
172 1 9.42588 9.41779 9.43486 -9.28399
51 1 1.57242 1.57242 4.71726 -8.94963
171 1 6.29034 9.43498 9.43453 -8.99743
53 1 4.71726 1.57242 4.71726 -8.94963
54 1 6.28969 3.6612e-10 3.14484 -8.94963
55 1 7.86211 1.57242 4.71726 -8.94963
170 1 3.14486 9.43453 9.43453 -8.94943
57 1 11.007 1.57242 4.71726 -8.94963
169 1 2.57341e-07 9.43453 9.43453 -8.94963
59 1 14.1518 1.57242 4.71726 -8.94963
60 1 15.7242 3.68323e-10 3.14484 -8.94963
61 1 17.2966 1.57242 4.71726 -8.94963
168 1 18.8691 6.28969 9.43453 -8.94963
63 1 20.4415 1.57242 4.71726 -8.94963
64 1 4.8282e-10 3.14484 3.14484 -8.94963
65 1 1.57242 4.71726 4.71726 -8.94963
66 1 3.14484 3.14484 3.14484 -8.94963
67 1 4.71726 4.71726 4.71726 -8.94964
68 1 6.28969 3.14484 3.14484 -8.94963
69 1 7.86211 4.71726 4.71726 -8.94963
70 1 9.43453 3.14484 3.14484 -8.94963
71 1 11.007 4.71726 4.71726 -8.94963
72 1 12.5794 3.14484 3.14484 -8.94963
73 1 14.1518 4.71726 4.71726 -8.94963
74 1 15.7242 3.14484 3.14484 -8.94963
75 1 17.2966 4.71726 4.71726 -8.94963
76 1 18.8691 3.14484 3.14484 -8.94963
77 1 20.4415 4.71726 4.71726 -8.94963
78 1 22.0139 6.28969 3.14484 -8.94963
79 1 1.57242 7.86211 4.71726 -8.94963
80 1 3.14484 6.28969 3.14484 -8.94963
81 1 4.71726 7.86211 4.71726 -8.9496
82 1 6.28969 6.28969 3.14484 -8.94963
83 1 7.86211 7.86211 4.71727 -8.94967
84 1 9.43453 6.28969 3.14484 -8.94963
85 1 11.0069 7.86212 4.71728 -8.94994
86 1 12.5794 6.28969 3.14484 -8.94963
87 1 14.1518 7.86212 4.71727 -8.94973
88 1 15.7242 6.28969 3.14484 -8.94964
89 1 17.2966 7.86211 4.71726 -8.94964
90 1 18.8691 6.28969 3.14484 -8.94963
91 1 20.4415 7.86211 4.71726 -8.94963
92 1 4.97388e-09 9.43453 3.14484 -8.94963
93 1 3.14484 9.43453 3.14484 -8.94964
94 1 6.28969 9.43453 3.14484 -8.94964
95 1 9.43452 9.43452 3.14484 -8.9495
96 1 12.5794 9.43452 3.14485 -8.94942
97 1 15.7242 9.43453 3.14484 -8.94963
98 1 18.8691 9.43453 3.14484 -8.94963
99 1 7.5869e-11 4.18081e-11 6.28969 -8.94963
100 1 1.57242 1.57242 7.86211 -8.94963
101 1 3.14484 6.15793e-10 6.28969 -8.94963
102 1 4.71726 1.57242 7.86211 -8.94963
167 1 15.7242 6.28969 9.43453 -8.94967
104 1 7.86211 1.57242 7.86211 -8.94963
105 1 9.43453 -8.00951e-09 6.28969 -8.94963
106 1 11.007 1.57242 7.86211 -8.94963
107 1 12.5794 -7.58578e-09 6.28969 -8.94963
108 1 14.1518 1.57242 7.86211 -8.94963
166 1 12.5794 6.28964 9.43452 -8.95001
110 1 17.2966 1.57242 7.86211 -8.94963
111 1 18.8691 6.20311e-10 6.28969 -8.94963
112 1 20.4415 1.57242 7.86211 -8.94963
113 1 22.0139 3.14484 6.28969 -8.94963
114 1 1.57242 4.71726 7.86211 -8.94963
115 1 3.14484 3.14484 6.28969 -8.94963
116 1 4.71726 4.71726 7.86211 -8.94963
117 1 6.28969 3.14484 6.28969 -8.94963
118 1 7.8621 4.71727 7.8621 -8.94942
119 1 9.43453 3.14484 6.28969 -8.94964
120 1 11.007 4.71726 7.8621 -8.9495
121 1 12.5794 3.14484 6.28969 -8.94963
122 1 14.1518 4.71726 7.86211 -8.94964
123 1 15.7242 3.14484 6.28969 -8.94963
124 1 17.2966 4.71726 7.86211 -8.94963
125 1 18.8691 3.14484 6.28969 -8.94963
126 1 20.4415 4.71726 7.86211 -8.94963
127 1 2.3596e-08 6.28969 6.28969 -8.94963
128 1 1.57242 7.86211 7.86211 -8.94963
129 1 3.14484 6.28969 6.28969 -8.94964
130 1 4.71728 7.86212 7.86212 -8.94978
131 1 6.2897 6.28969 6.2897 -8.94973
132 1 7.8623 7.86255 7.86204 -8.99114
133 1 9.43453 6.2897 6.2897 -8.94996
134 1 11.0071 7.86226 7.86219 -9.00574
135 1 12.5794 6.28969 6.28969 -8.94966
136 1 14.1518 7.86205 7.86207 -8.94917
137 1 15.7242 6.28968 6.28968 -8.9496
138 1 17.2966 7.86211 7.86211 -8.94963
139 1 18.8691 6.28969 6.28969 -8.94963
140 1 20.4415 7.86211 7.86211 -8.94963
141 1 22.0139 9.43453 6.28969 -8.94963
142 1 3.14484 9.43453 6.28968 -8.94963
143 1 6.28962 9.43447 6.28962 -8.94902
144 1 9.43437 9.43459 6.28982 -9.00546
145 1 12.5792 9.43447 6.29014 -8.99113
146 1 15.7242 9.43454 6.2897 -8.94975
147 1 18.8691 9.43453 6.28969 -8.94963
165 1 9.43456 6.28916 9.43452 -8.95411
164 1 6.28972 6.28972 9.43453 -8.95012
150 1 6.28969 3.57237e-09 9.43453 -8.94963
163 1 3.14484 6.28968 9.43453 -8.94962
162 1 22.0139 6.28969 9.43453 -8.94963
153 1 15.7242 3.63856e-09 9.43453 -8.94963
161 1 18.8691 3.14484 9.43453 -8.94963
155 1 1.12315e-09 3.14484 9.43453 -8.94963
156 1 3.14484 3.14484 9.43453 -8.94963
157 1 6.28969 3.14484 9.43453 -8.94963
158 1 9.43453 3.14483 9.43453 -8.94978
159 1 12.5794 3.14484 9.43453 -8.94965
160 1 15.7242 3.14484 9.43453 -8.94963
344 1 1.57242 11.007 1.57242 -8.94963
345 1 4.71726 11.007 1.57242 -8.94963
346 1 7.86211 11.007 1.57242 -8.94965
347 1 11.007 11.007 1.57241 -8.94977
513 1 4.71721 11.0069 11.0069 -8.95027
181 1 17.2966 1.57242 11.007 -8.94963
188 1 17.2966 4.71726 11.007 -8.94963
190 1 1.57242 7.86211 11.007 -8.94963
191 1 4.71728 7.86212 11.0069 -8.94978
192 1 7.86231 7.86256 11.007 -8.99123
193 1 11.0071 7.8617 11.0069 -9.0103
512 1 1.57242 11.007 11.007 -8.94965
177 1 4.71726 1.57242 11.007 -8.94963
184 1 4.71726 4.71726 11.007 -8.94963
189 1 20.4415 4.71726 11.007 -8.94963
7 1 9.43453 1.332e-10 3.25369e-10 -8.94963
643 1 17.2966 11.007 20.4415 -8.94963
644 1 20.4415 11.007 20.4415 -8.94963
178 1 7.86211 1.57242 11.007 -8.94963
179 1 11.007 1.57242 11.007 -8.94964
180 1 14.1518 1.57242 11.007 -8.94963
639 1 4.71726 11.007 20.4415 -8.94963
182 1 20.4415 1.57242 11.007 -8.94963
183 1 1.57242 4.71726 11.007 -8.94963
638 1 1.57242 11.007 20.4415 -8.94963
185 1 7.8621 4.71727 11.007 -8.94943
186 1 11.007 4.71725 11.007 -8.94965
187 1 14.1518 4.71726 11.007 -8.94965
48 1 15.7242 9.43453 22.0139 -8.94963
35 1 9.43453 6.28969 22.0139 -8.94963
46 1 9.43453 9.43453 22.0139 -8.94963
45 1 6.28969 9.43453 22.0139 -8.94963
43 1 22.0139 9.43453 22.0139 -8.94963
546 1 20.4415 11.007 14.1518 -8.94963
194 1 14.1518 7.86206 11.007 -8.94946
195 1 17.2966 7.86211 11.007 -8.94963
196 1 20.4415 7.86211 11.007 -8.94963
197 1 7.73041e-11 -6.54115e-11 12.5794 -8.94963
198 1 1.57242 1.57242 14.1518 -8.94963
343 1 18.8691 9.43453 18.8691 -8.94963
200 1 4.71726 1.57242 14.1518 -8.94963
41 1 18.8691 6.28969 22.0139 -8.94963
202 1 7.86211 1.57242 14.1518 -8.94963
203 1 9.43453 1.57271e-07 12.5794 -8.94963
204 1 11.007 1.57242 14.1518 -8.94963
205 1 12.5794 1.57414e-07 12.5794 -8.94963
206 1 14.1518 1.57242 14.1518 -8.94963
37 1 12.5794 6.28969 22.0139 -8.94963
208 1 17.2966 1.57242 14.1518 -8.94963
342 1 15.7242 9.43453 18.8691 -8.94964
210 1 20.4415 1.57242 14.1518 -8.94963
211 1 22.0139 3.14484 12.5794 -8.94963
212 1 1.57242 4.71726 14.1518 -8.94963
213 1 3.14484 3.14484 12.5794 -8.94963
214 1 4.71726 4.71726 14.1518 -8.94964
215 1 6.28969 3.14484 12.5794 -8.94963
216 1 7.86211 4.71726 14.1518 -8.94963
217 1 9.43453 3.14484 12.5794 -8.94964
218 1 11.007 4.71726 14.1518 -8.94965
219 1 12.5794 3.14484 12.5794 -8.94963
220 1 14.1518 4.71726 14.1518 -8.94963
221 1 15.7242 3.14484 12.5794 -8.94963
222 1 17.2966 4.71726 14.1518 -8.94963
223 1 18.8691 3.14484 12.5794 -8.94963
224 1 20.4415 4.71726 14.1518 -8.94963
225 1 2.36557e-08 6.28969 12.5794 -8.94963
226 1 1.57242 7.86211 14.1518 -8.94963
227 1 3.14484 6.28969 12.5794 -8.94964
228 1 4.71726 7.8621 14.1518 -8.9496
229 1 6.28969 6.28969 12.5794 -8.94973
230 1 7.86211 7.86211 14.1518 -8.9497
231 1 9.43452 6.28969 12.5794 -8.94983
232 1 11.0069 7.86207 14.1518 -8.95063
233 1 12.5794 6.28968 12.5794 -8.94953
234 1 14.1518 7.86212 14.1518 -8.94975
235 1 15.7242 6.28968 12.5794 -8.9496
236 1 17.2966 7.86211 14.1518 -8.94964
237 1 18.8691 6.28969 12.5794 -8.94963
238 1 20.4415 7.86211 14.1518 -8.94963
239 1 22.0139 9.43453 12.5794 -8.94963
240 1 3.14484 9.43453 12.5794 -8.94964
241 1 6.28963 9.43449 12.5794 -8.9494
242 1 9.43442 9.43471 12.5794 -9.06024
243 1 12.5791 9.43456 12.5791 -9.04521
244 1 15.7242 9.43455 12.5794 -8.95013
245 1 18.8691 9.43453 12.5794 -8.94963
341 1 12.5794 9.43453 18.8691 -8.94963
247 1 1.57242 1.57242 17.2966 -8.94963
248 1 3.14484 9.71363e-10 15.7242 -8.94963
249 1 4.71726 1.57242 17.2966 -8.94963
340 1 9.43453 9.43453 18.8691 -8.94963
251 1 7.86211 1.57242 17.2966 -8.94963
252 1 9.43453 2.97015e-08 15.7242 -8.94963
253 1 11.007 1.57242 17.2966 -8.94963
254 1 12.5794 2.96254e-08 15.7242 -8.94963
255 1 14.1518 1.57242 17.2966 -8.94963
339 1 6.28969 9.43453 18.8691 -8.94964
257 1 17.2966 1.57242 17.2966 -8.94963
258 1 18.8691 9.72019e-10 15.7242 -8.94963
259 1 20.4415 1.57242 17.2966 -8.94963
260 1 4.83875e-10 3.14484 15.7242 -8.94963
261 1 1.57242 4.71726 17.2966 -8.94963
262 1 3.14484 3.14484 15.7242 -8.94963
263 1 4.71726 4.71726 17.2966 -8.94963
264 1 6.28969 3.14484 15.7242 -8.94963
265 1 7.86211 4.71726 17.2966 -8.94963
266 1 9.43453 3.14484 15.7242 -8.94963
267 1 11.007 4.71726 17.2966 -8.94963
268 1 12.5794 3.14484 15.7242 -8.94963
269 1 14.1518 4.71726 17.2966 -8.94963
270 1 15.7242 3.14484 15.7242 -8.94963
271 1 17.2966 4.71726 17.2966 -8.94963
272 1 18.8691 3.14484 15.7242 -8.94963
273 1 20.4415 4.71726 17.2966 -8.94963
274 1 22.0139 6.28969 15.7242 -8.94963
275 1 1.57242 7.86211 17.2966 -8.94963
276 1 3.14484 6.28969 15.7242 -8.94963
277 1 4.71726 7.86211 17.2966 -8.94964
278 1 6.28969 6.28969 15.7242 -8.94963
279 1 7.86211 7.86211 17.2966 -8.9496
280 1 9.43453 6.28968 15.7242 -8.94964
281 1 11.007 7.86211 17.2966 -8.94968
282 1 12.5794 6.28968 15.7242 -8.94964
283 1 14.1518 7.86211 17.2966 -8.9496
284 1 15.7242 6.28969 15.7242 -8.94964
285 1 17.2966 7.86211 17.2966 -8.94964
286 1 18.8691 6.28969 15.7242 -8.94963
287 1 20.4415 7.86211 17.2966 -8.94963
288 1 5.00851e-09 9.43453 15.7242 -8.94963
289 1 3.14484 9.43453 15.7242 -8.94963
290 1 6.28969 9.43454 15.7242 -8.94974
291 1 9.43447 9.43446 15.7243 -8.94893
292 1 12.5794 9.43446 15.7243 -8.94885
293 1 15.7242 9.43454 15.7242 -8.94973
294 1 18.8691 9.43453 15.7242 -8.94963
295 1 1.90897e-12 2.08131e-11 18.8691 -8.94963
296 1 1.57242 1.57242 20.4415 -8.94963
338 1 3.14484 9.43453 18.8691 -8.94963
298 1 4.71726 1.57242 20.4415 -8.94963
299 1 6.28969 1.89559e-09 18.8691 -8.94963
300 1 7.86211 1.57242 20.4415 -8.94963
337 1 22.0139 9.43453 18.8691 -8.94963
302 1 11.007 1.57242 20.4415 -8.94963
336 1 20.4415 7.86211 20.4415 -8.94963
304 1 14.1518 1.57242 20.4415 -8.94963
305 1 15.7242 1.89449e-09 18.8691 -8.94963
306 1 17.2966 1.57242 20.4415 -8.94963
335 1 18.8691 6.28969 18.8691 -8.94963
308 1 20.4415 1.57242 20.4415 -8.94963
309 1 22.0139 3.14484 18.8691 -8.94963
310 1 1.57242 4.71726 20.4415 -8.94963
311 1 3.14484 3.14484 18.8691 -8.94963
312 1 4.71726 4.71726 20.4415 -8.94963
313 1 6.28969 3.14484 18.8691 -8.94963
314 1 7.86211 4.71726 20.4415 -8.94963
315 1 9.43453 3.14484 18.8691 -8.94963
316 1 11.007 4.71726 20.4415 -8.94963
317 1 12.5794 3.14484 18.8691 -8.94963
318 1 14.1518 4.71726 20.4415 -8.94963
319 1 15.7242 3.14484 18.8691 -8.94963
320 1 17.2966 4.71726 20.4415 -8.94963
321 1 18.8691 3.14484 18.8691 -8.94963
322 1 20.4415 4.71726 20.4415 -8.94963
323 1 1.21749e-10 6.28969 18.8691 -8.94963
324 1 1.57242 7.86211 20.4415 -8.94963
325 1 3.14484 6.28969 18.8691 -8.94963
326 1 4.71726 7.86211 20.4415 -8.94963
327 1 6.28969 6.28969 18.8691 -8.94963
328 1 7.86211 7.86211 20.4415 -8.94963
329 1 9.43453 6.28969 18.8691 -8.94964
330 1 11.007 7.86211 20.4415 -8.94963
331 1 12.5794 6.28969 18.8691 -8.94964
332 1 14.1518 7.86211 20.4415 -8.94963
333 1 15.7242 6.28969 18.8691 -8.94963
334 1 17.2966 7.86211 20.4415 -8.94963
545 1 17.2966 11.0069 14.1518 -8.94941
543 1 11.0069 11.0052 14.1549 -8.99056
515 1 11.0167 10.9875 11.0166 -9.47416
541 1 4.71727 11.0069 14.1518 -8.94946
540 1 1.57242 11.007 14.1518 -8.94963
31 1 3.14484 6.28969 22.0139 -8.94963
15 1 22.0139 3.14484 22.0139 -8.94963
19 1 6.28969 3.14484 22.0139 -8.94963
25 1 15.7242 3.14484 22.0139 -8.94963
3 1 3.14484 6.91052e-12 22.0139 -8.94963
176 1 1.57242 1.57242 11.007 -8.94963
688 2 10.2196 11.0071 9.43242 1.07905
511 1 18.8691 18.8691 9.43453 -8.94963
510 1 15.7242 18.8691 9.43453 -8.94963
509 1 12.5794 18.8691 9.43452 -8.94945
508 1 9.43452 18.8691 9.43452 -8.94957
507 1 6.28969 18.8691 9.43453 -8.94963
506 1 3.14484 18.8691 9.43453 -8.94963
349 1 17.2966 11.007 1.57242 -8.94963
352 1 1.57242 14.1518 1.57242 -8.94963
154 1 18.8691 22.0139 9.43453 -8.94963
354 1 4.71726 14.1518 1.57242 -8.94963
152 1 12.5794 22.0139 9.43453 -8.94963
356 1 7.86211 14.1518 1.57242 -8.94963
151 1 9.43453 22.0139 9.43453 -8.94963
358 1 11.007 14.1518 1.57242 -8.94963
149 1 3.14484 22.0139 9.43453 -8.94963
360 1 14.1518 14.1518 1.57242 -8.94963
361 1 15.7242 12.5794 1.74672e-08 -8.94963
362 1 17.2966 14.1518 1.57242 -8.94963
537 1 14.1518 20.4415 11.007 -8.94964
364 1 20.4415 14.1518 1.57242 -8.94963
148 1 1.87805e-10 22.0139 9.43453 -8.94963
366 1 1.57242 17.2966 1.57242 -8.94963
109 1 15.7242 22.0139 6.28969 -8.94963
368 1 4.71726 17.2966 1.57242 -8.94963
103 1 6.28969 22.0139 6.28969 -8.94963
370 1 7.86211 17.2966 1.57242 -8.94963
371 1 9.43453 15.7242 6.86096e-08 -8.94963
372 1 11.007 17.2966 1.57242 -8.94963
373 1 12.5794 15.7242 5.57009e-08 -8.94963
374 1 14.1518 17.2966 1.57242 -8.94963
62 1 18.8691 22.0139 3.14484 -8.94963
376 1 17.2966 17.2966 1.57242 -8.94963
377 1 18.8691 15.7242 1.37699e-09 -8.94963
378 1 20.4415 17.2966 1.57242 -8.94963
379 1 22.0139 18.8691 1.29054e-11 -8.94963
380 1 1.57242 20.4415 1.57242 -8.94963
58 1 12.5794 22.0139 3.14484 -8.94963
382 1 4.71726 20.4415 1.57242 -8.94963
383 1 6.28969 18.8691 2.3331e-09 -8.94963
384 1 7.86211 20.4415 1.57242 -8.94963
56 1 9.43453 22.0139 3.14484 -8.94963
386 1 11.007 20.4415 1.57242 -8.94963
52 1 3.14484 22.0139 3.14484 -8.94963
388 1 14.1518 20.4415 1.57242 -8.94963
389 1 15.7242 18.8691 2.69551e-09 -8.94963
390 1 17.2966 20.4415 1.57242 -8.94963
50 1 22.0139 22.0139 3.14484 -8.94963
392 1 20.4415 20.4415 1.57242 -8.94963
393 1 1.57242 11.007 4.71726 -8.94963
394 1 4.71727 11.007 4.71727 -8.94968
505 1 1.12326e-09 18.8691 9.43453 -8.94963
504 1 18.8691 15.7242 9.43453 -8.94963
503 1 15.7242 15.7242 9.43453 -8.9497
398 1 17.2966 11.007 4.71726 -8.94962
399 1 20.4415 11.007 4.71726 -8.94963
400 1 4.97188e-09 12.5794 3.14484 -8.94963
401 1 1.57242 14.1518 4.71726 -8.94963
402 1 3.14484 12.5794 3.14484 -8.94964
403 1 4.71726 14.1518 4.71726 -8.9496
404 1 6.28969 12.5794 3.14484 -8.94964
405 1 7.86211 14.1518 4.71726 -8.94967
406 1 9.43452 12.5794 3.14484 -8.94952
407 1 11.0069 14.1518 4.71729 -8.94976
408 1 12.5794 12.5794 3.14485 -8.94945
409 1 14.1518 14.1518 4.71727 -8.94973
410 1 15.7242 12.5794 3.14484 -8.94963
411 1 17.2966 14.1518 4.71727 -8.94964
412 1 18.8691 12.5794 3.14484 -8.94963
413 1 20.4415 14.1518 4.71726 -8.94963
414 1 22.0139 15.7242 3.14484 -8.94963
415 1 1.57242 17.2966 4.71726 -8.94963
416 1 3.14484 15.7242 3.14484 -8.94963
417 1 4.71726 17.2966 4.71726 -8.94963
418 1 6.28969 15.7242 3.14484 -8.94963
419 1 7.86211 17.2966 4.71726 -8.94964
420 1 9.43453 15.7242 3.14484 -8.94963
421 1 11.007 17.2966 4.71726 -8.94962
422 1 12.5794 15.7242 3.14484 -8.94963
423 1 14.1518 17.2966 4.71727 -8.94964
424 1 15.7242 15.7242 3.14484 -8.94964
425 1 17.2966 17.2966 4.71726 -8.94963
426 1 18.8691 15.7242 3.14484 -8.94963
427 1 20.4415 17.2966 4.71726 -8.94963
428 1 4.82368e-10 18.8691 3.14484 -8.94963
429 1 1.57242 20.4415 4.71726 -8.94963
430 1 3.14484 18.8691 3.14484 -8.94963
431 1 4.71726 20.4415 4.71726 -8.94963
432 1 6.28969 18.8691 3.14484 -8.94963
433 1 7.86211 20.4415 4.71726 -8.94963
434 1 9.43453 18.8691 3.14484 -8.94963
435 1 11.007 20.4415 4.71726 -8.94963
436 1 12.5794 18.8691 3.14484 -8.94963
437 1 14.1518 20.4415 4.71726 -8.94963
438 1 15.7242 18.8691 3.14484 -8.94963
439 1 17.2966 20.4415 4.71726 -8.94963
440 1 18.8691 18.8691 3.14484 -8.94963
441 1 20.4415 20.4415 4.71726 -8.94963
502 1 12.5795 15.7238 9.43471 -8.99152
501 1 9.43449 15.7243 9.43471 -8.99563
500 1 6.28972 15.7242 9.43453 -8.95015
445 1 11.0157 11.0074 7.84563 -9.29025
499 1 3.14484 15.7242 9.43453 -8.94961
498 1 22.0139 15.7242 9.43453 -8.94963
497 1 18.8691 12.5794 9.43453 -8.94967
449 1 22.0139 12.5794 6.28969 -8.94963
450 1 1.57242 14.1518 7.86211 -8.94963
451 1 3.14484 12.5794 6.28968 -8.94963
452 1 4.71728 14.1518 7.86212 -8.94979
453 1 6.28963 12.5794 6.28963 -8.9491
454 1 7.86222 14.1514 7.86197 -8.9903
455 1 9.43436 12.5793 6.28974 -9.00613
456 1 11.0071 14.1512 7.86281 -9.05301
457 1 12.5792 12.5794 6.29007 -8.99174
458 1 14.1519 14.1519 7.86199 -8.94849
459 1 15.7242 12.5794 6.28971 -8.94983
460 1 17.2966 14.1518 7.86211 -8.94964
461 1 18.8691 12.5794 6.28969 -8.94963
462 1 20.4415 14.1518 7.86211 -8.94963
463 1 2.35783e-08 15.7242 6.28969 -8.94963
464 1 1.57242 17.2966 7.86211 -8.94963
465 1 3.14484 15.7242 6.28969 -8.94964
466 1 4.71726 17.2966 7.86211 -8.94963
467 1 6.28969 15.7242 6.28969 -8.94969
468 1 7.86211 17.2966 7.86211 -8.94952
469 1 9.43454 15.7242 6.28972 -8.95012
470 1 11.007 17.2966 7.86213 -8.94999
471 1 12.5794 15.7242 6.28971 -8.94981
472 1 14.1518 17.2966 7.86212 -8.94974
473 1 15.7242 15.7242 6.28968 -8.94957
474 1 17.2966 17.2966 7.86211 -8.94964
475 1 18.8691 15.7242 6.28969 -8.94963
476 1 20.4415 17.2966 7.86211 -8.94963
477 1 22.0139 18.8691 6.28969 -8.94963
478 1 1.57242 20.4415 7.86211 -8.94963
479 1 3.14484 18.8691 6.28969 -8.94963
480 1 4.71726 20.4415 7.86211 -8.94963
481 1 6.28969 18.8691 6.28969 -8.94963
482 1 7.86211 20.4415 7.86211 -8.94963
483 1 9.43453 18.8691 6.28969 -8.94964
484 1 11.007 20.4415 7.86211 -8.94963
485 1 12.5794 18.8691 6.28969 -8.94963
486 1 14.1518 20.4415 7.86211 -8.94963
487 1 15.7242 18.8691 6.28969 -8.94964
488 1 17.2966 20.4415 7.86211 -8.94963
489 1 18.8691 18.8691 6.28969 -8.94963
490 1 20.4415 20.4415 7.86211 -8.94963
491 1 2.5684e-07 12.5794 9.43453 -8.94963
492 1 3.14486 12.5794 9.43453 -8.94945
493 1 6.29029 12.5789 9.43452 -8.99799
494 1 9.4241 12.5966 9.43189 -9.27893
495 1 12.5837 12.5811 9.43195 -9.02132
496 1 15.7243 12.5794 9.43452 -8.95101
536 1 11.007 20.4415 11.007 -8.94978
5 1 6.28969 22.0139 -3.21927e-11 -8.94963
516 1 14.151 11.007 11.0063 -9.05304
519 1 1.57242 14.1518 11.007 -8.94963
520 1 4.71728 14.1518 11.0069 -8.94965
521 1 7.8624 14.1513 11.0069 -9.04654
522 1 11.0071 14.1689 10.9982 -9.29775
523 1 14.1517 14.1518 11.0068 -9.00466
524 1 17.2966 14.1518 11.0069 -8.9495
525 1 20.4415 14.1518 11.007 -8.94963
527 1 4.71726 17.2966 11.007 -8.94963
535 1 7.86211 20.4415 11.007 -8.94963
531 1 17.2966 17.2966 11.007 -8.94964
353 1 3.14484 12.5794 2.14275e-09 -8.94963
687 2 11.0069 12.5815 11.7941 1.07863
686 1 20.4415 20.4415 20.4415 -8.94963
514 1 7.85967 11.007 11.0086 -9.04042
685 1 18.8691 18.8691 18.8691 -8.94963
307 1 18.8691 22.0139 18.8691 -8.94963
684 1 17.2966 20.4415 20.4415 -8.94963
683 1 15.7242 18.8691 18.8691 -8.94963
303 1 12.5794 22.0139 18.8691 -8.94963
301 1 9.43453 22.0139 18.8691 -8.94963
297 1 3.14484 22.0139 18.8691 -8.94963
256 1 15.7242 22.0139 15.7242 -8.94963
250 1 6.28969 22.0139 15.7242 -8.94963
246 1 22.0139 22.0139 15.7242 -8.94963
209 1 18.8691 22.0139 12.5794 -8.94963
526 1 1.57242 17.2966 11.007 -8.94963
199 1 3.14484 22.0139 12.5794 -8.94963
528 1 7.86211 17.2966 11.007 -8.94976
529 1 11.007 17.2972 11.007 -8.95421
671 1 18.8691 15.7242 18.8691 -8.94963
670 1 17.2966 17.2966 20.4415 -8.94963
669 1 15.7242 15.7242 18.8691 -8.94964
533 1 1.57242 20.4415 11.007 -8.94963
534 1 4.71726 20.4415 11.007 -8.94963
668 1 14.1518 17.2966 20.4415 -8.94963
667 1 12.5794 15.7242 18.8691 -8.94963
666 1 11.007 17.2966 20.4415 -8.94963
538 1 17.2966 20.4415 11.007 -8.94963
539 1 20.4415 20.4415 11.007 -8.94963
682 1 14.1518 20.4415 20.4415 -8.94963
681 1 12.5794 18.8691 18.8691 -8.94964
542 1 7.86254 11.0069 14.1517 -8.99147
680 1 11.007 20.4415 20.4415 -8.94963
544 1 14.1513 11.0069 14.1516 -8.99141
679 1 9.43453 18.8691 18.8691 -8.94964
678 1 7.86211 20.4415 20.4415 -8.94963
547 1 22.0139 12.5794 12.5794 -8.94964
548 1 1.57242 14.1518 14.1518 -8.94963
549 1 3.14483 12.5794 12.5794 -8.94978
550 1 4.71727 14.1518 14.1518 -8.94939
551 1 6.28909 12.5794 12.5794 -8.95375
552 1 7.86255 14.1519 14.1516 -8.99104
553 1 9.41712 12.5792 12.5879 -9.29844
554 1 11.007 14.1535 14.1544 -8.98543
555 1 12.5964 12.5793 12.5875 -9.28399
556 1 14.1513 14.1519 14.1516 -8.99114
557 1 15.7247 12.5794 12.5793 -8.95447
558 1 17.2966 14.1518 14.1518 -8.94943
559 1 18.8691 12.5794 12.5794 -8.94978
560 1 20.4415 14.1518 14.1518 -8.94963
561 1 2.35475e-08 15.7242 12.5794 -8.94963
562 1 1.57242 17.2966 14.1518 -8.94963
563 1 3.14484 15.7242 12.5794 -8.94964
564 1 4.71726 17.2966 14.1518 -8.94964
565 1 6.28971 15.7242 12.5794 -8.95006
566 1 7.86211 17.2966 14.1518 -8.94966
567 1 9.43458 15.7241 12.5795 -9.00563
568 1 11.007 17.2967 14.1518 -8.95023
569 1 12.5793 15.7241 12.5795 -9.00532
570 1 14.1518 17.2966 14.1518 -8.94966
571 1 15.7242 15.7242 12.5794 -8.94993
572 1 17.2966 17.2966 14.1518 -8.94963
573 1 18.8691 15.7242 12.5794 -8.94964
574 1 20.4415 17.2966 14.1518 -8.94963
575 1 22.0139 18.8691 12.5794 -8.94963
576 1 1.57242 20.4415 14.1518 -8.94963
577 1 3.14484 18.8691 12.5794 -8.94963
578 1 4.71726 20.4415 14.1518 -8.94963
579 1 6.28969 18.8691 12.5794 -8.94963
580 1 7.86211 20.4415 14.1518 -8.94963
581 1 9.43452 18.8691 12.5794 -8.94951
582 1 11.007 20.4415 14.1518 -8.94965
583 1 12.5794 18.8691 12.5794 -8.9495
584 1 14.1518 20.4415 14.1518 -8.94963
585 1 15.7242 18.8691 12.5794 -8.94963
586 1 17.2966 20.4415 14.1518 -8.94963
587 1 18.8691 18.8691 12.5794 -8.94963
588 1 20.4415 20.4415 14.1518 -8.94963
677 1 6.28969 18.8691 18.8691 -8.94963
676 1 4.71726 20.4415 20.4415 -8.94963
591 1 7.86212 11.007 17.2966 -8.9498
592 1 11.007 11.007 17.2967 -8.95056
593 1 14.1518 11.007 17.2966 -8.94978
675 1 3.14484 18.8691 18.8691 -8.94963
674 1 1.57242 20.4415 20.4415 -8.94963
596 1 4.85062e-09 12.5794 15.7242 -8.94963
597 1 1.57242 14.1518 17.2966 -8.94963
598 1 3.14484 12.5794 15.7242 -8.94963
599 1 4.71726 14.1518 17.2966 -8.94963
600 1 6.28972 12.5794 15.7242 -8.95013
601 1 7.86212 14.1518 17.2966 -8.94978
602 1 9.43497 12.5794 15.7236 -8.99727
603 1 11.007 14.1518 17.2967 -8.95043
604 1 12.5789 12.5794 15.7236 -8.99718
605 1 14.1518 14.1518 17.2966 -8.94978
606 1 15.7242 12.5794 15.7242 -8.95012
607 1 17.2966 14.1518 17.2966 -8.94963
608 1 18.8691 12.5794 15.7242 -8.94963
609 1 20.4415 14.1518 17.2966 -8.94963
610 1 22.0139 15.7242 15.7242 -8.94963
611 1 1.57242 17.2966 17.2966 -8.94963
612 1 3.14484 15.7242 15.7242 -8.94963
613 1 4.71726 17.2966 17.2966 -8.94964
614 1 6.28969 15.7242 15.7242 -8.94973
615 1 7.86211 17.2966 17.2966 -8.9496
616 1 9.43448 15.7243 15.7243 -8.94905
617 1 11.007 17.2966 17.2966 -8.94967
618 1 12.5794 15.7243 15.7243 -8.94905
619 1 14.1518 17.2966 17.2966 -8.9496
620 1 15.7242 15.7242 15.7242 -8.94973
621 1 17.2966 17.2966 17.2966 -8.94964
622 1 18.8691 15.7242 15.7242 -8.94963
623 1 20.4415 17.2966 17.2966 -8.94963
624 1 4.83118e-10 18.8691 15.7242 -8.94963
625 1 1.57242 20.4415 17.2966 -8.94963
626 1 3.14484 18.8691 15.7242 -8.94963
627 1 4.71726 20.4415 17.2966 -8.94963
628 1 6.28969 18.8691 15.7242 -8.94963
629 1 7.86211 20.4415 17.2966 -8.94963
630 1 9.43453 18.8691 15.7242 -8.94964
631 1 11.007 20.4415 17.2966 -8.94963
632 1 12.5794 18.8691 15.7242 -8.94964
633 1 14.1518 20.4415 17.2966 -8.94963
634 1 15.7242 18.8691 15.7242 -8.94963
635 1 17.2966 20.4415 17.2966 -8.94963
636 1 18.8691 18.8691 15.7242 -8.94963
637 1 20.4415 20.4415 17.2966 -8.94963
11 1 15.7242 22.0139 22.0139 -8.94963
673 1 22.0139 18.8691 18.8691 -8.94963
640 1 7.86211 11.007 20.4415 -8.94963
641 1 11.007 11.007 20.4415 -8.94966
642 1 14.1518 11.007 20.4415 -8.94963
672 1 20.4415 17.2966 20.4415 -8.94963
391 1 18.8691 18.8691 22.0139 -8.94963
645 1 22.0139 12.5794 18.8691 -8.94963
646 1 1.57242 14.1518 20.4415 -8.94963
647 1 3.14484 12.5794 18.8691 -8.94963
648 1 4.71726 14.1518 20.4415 -8.94963
649 1 6.28968 12.5794 18.8691 -8.94962
650 1 7.86211 14.1518 20.4415 -8.94963
651 1 9.43453 12.5794 18.869 -8.94943
652 1 11.007 14.1518 20.4415 -8.94965
653 1 12.5794 12.5794 18.869 -8.94943
654 1 14.1518 14.1518 20.4415 -8.94963
655 1 15.7242 12.5794 18.8691 -8.94962
656 1 17.2966 14.1518 20.4415 -8.94963
657 1 18.8691 12.5794 18.8691 -8.94963
658 1 20.4415 14.1518 20.4415 -8.94963
659 1 1.17788e-10 15.7242 18.8691 -8.94963
660 1 1.57242 17.2966 20.4415 -8.94963
661 1 3.14484 15.7242 18.8691 -8.94963
662 1 4.71726 17.2966 20.4415 -8.94963
663 1 6.28969 15.7242 18.8691 -8.94964
664 1 7.86211 17.2966 20.4415 -8.94963
665 1 9.43453 15.7242 18.8691 -8.94963
207 1 15.7242 22.0139 12.5794 -8.94963
355 1 6.28969 12.5794 22.0139 -8.94963
357 1 9.43453 12.5794 22.0139 -8.94963
359 1 12.5794 12.5794 22.0139 -8.94963
365 1 1.22056e-10 15.7242 22.0139 -8.94963
367 1 3.14484 15.7242 22.0139 -8.94963
369 1 6.28969 15.7242 22.0139 -8.94963
375 1 15.7242 15.7242 22.0139 -8.94963
381 1 3.14484 18.8691 22.0139 -8.94963
385 1 9.43453 18.8691 22.0139 -8.94963
387 1 12.5794 18.8691 22.0139 -8.94963
595 1 20.4415 11.007 17.2966 -8.94963
594 1 17.2966 11.007 17.2966 -8.94963
590 1 4.71726 11.007 17.2966 -8.94963
589 1 1.57242 11.007 17.2966 -8.94963
201 1 6.28969 22.0139 12.5794 -8.94963
351 1 22.0139 12.5794 22.0139 -8.94963
363 1 18.8691 12.5794 22.0139 -8.94963
1 1 1.90115e-12 22.0139 22.0139 -8.94963
530 1 14.1518 17.2966 11.007 -8.94997
532 1 20.4415 17.2966 11.007 -8.94963
