ITEM: TIMESTEP
58
ITEM: NUMBER OF ATOMS
688
ITEM: BOX BOUNDS pp pp pp
0.0000000000000000e+00 2.2013900999999997e+01
0.0000000000000000e+00 2.2013900999999997e+01
0.0000000000000000e+00 2.2013900999999997e+01
ITEM: ATOMS id type x y z c_pot
175 1 18.8704 9.43391 9.43405 -8.94976
2 1 1.57224 1.57236 1.57225 -8.94949
517 1 17.2992 11.0058 11.0062 -8.94746
4 1 4.71702 1.57235 1.57218 -8.94964
174 1 15.7274 9.43264 9.43363 -8.95146
6 1 7.86198 1.57233 1.57219 -8.9496
448 1 20.4419 11.0069 7.86174 -8.94954
8 1 11.007 1.57233 1.57222 -8.9496
9 1 12.5794 4.38282e-05 -3.7152e-05 -8.94963
10 1 14.152 1.57231 1.57219 -8.94962
173 1 12.5905 9.42335 9.43159 -9.01487
12 1 17.2969 1.57231 1.57222 -8.94958
13 1 18.8692 4.81514e-05 -2.64073e-05 -8.94955
14 1 20.4416 1.57236 1.5723 -8.94953
447 1 17.2977 11.0068 7.8615 -8.9494
16 1 1.57223 4.71709 1.57227 -8.9496
17 1 3.1446 3.14465 -3.20275e-05 -8.94957
18 1 4.71687 4.71694 1.57211 -8.9496
446 1 14.1533 11.0062 7.86149 -9.00118
20 1 7.86191 4.71689 1.57213 -8.94965
21 1 9.43445 3.14462 -1.69414e-06 -8.94962
22 1 11.007 4.71687 1.57211 -8.94961
23 1 12.5795 3.1446 -2.00758e-05 -8.94963
24 1 14.152 4.71686 1.57212 -8.94973
444 1 7.85941 11.0068 7.85899 -8.9812
26 1 17.2971 4.71686 1.57212 -8.94943
27 1 18.8693 3.14464 -1.60165e-05 -8.94952
28 1 20.4416 4.71707 1.57228 -8.9496
29 1 -2.67313e-05 6.28953 1.62938e-05 -8.94961
30 1 1.57223 7.86199 1.57228 -8.94962
443 1 4.71631 11.0068 7.86164 -8.95015
32 1 4.71685 7.86191 1.57217 -8.94969
33 1 6.2893 6.28929 -5.12355e-05 -8.94964
34 1 7.8616 7.86156 1.57176 -8.94969
442 1 1.57207 11.0068 7.86172 -8.94966
36 1 11.007 7.86164 1.57177 -8.94948
397 1 14.1527 11.0068 4.71578 -8.94934
38 1 14.1525 7.86141 1.57152 -8.9497
39 1 15.7247 6.28922 -0.000153439 -8.94959
40 1 17.2971 7.8619 1.57213 -8.94969
396 1 11.0076 11.0069 4.70743 -8.96416
42 1 20.4416 7.86198 1.57229 -8.94962
395 1 7.86218 11.0069 4.71609 -8.95059
44 1 3.14455 9.43443 1.89778e-05 -8.94959
350 1 20.4416 11.0069 1.57228 -8.94961
518 1 20.4422 11.0066 11.0067 -8.94967
47 1 12.5797 9.43419 -0.00041347 -8.95004
348 1 14.1524 11.0069 1.57158 -8.94934
49 1 18.8693 9.43443 -8.04606e-06 -8.94961
172 1 9.41115 9.37883 9.43413 -9.2413
51 1 1.57217 1.57237 4.71701 -8.94963
171 1 6.28852 9.43366 9.43392 -9.00206
53 1 4.71664 1.57221 4.71664 -8.94941
54 1 6.28939 9.86868e-05 3.14439 -8.94963
55 1 7.8618 1.57223 4.71663 -8.94954
170 1 3.14397 9.43391 9.43406 -8.9491
57 1 11.007 1.5722 4.71661 -8.94955
169 1 3.74448e-05 9.43419 9.43418 -8.94964
59 1 14.1523 1.57217 4.71663 -8.94958
60 1 15.7246 8.85697e-05 3.14442 -8.94961
61 1 17.2971 1.57232 4.71684 -8.94952
168 1 18.8698 6.28903 9.43433 -8.94959
63 1 20.4416 1.57235 4.71706 -8.94961
64 1 -4.53233e-05 3.14469 3.14463 -8.94958
65 1 1.5721 4.71699 4.71693 -8.94964
66 1 3.14442 3.14458 3.14444 -8.94937
67 1 4.71633 4.71648 4.71635 -8.94887
68 1 6.28936 3.14455 3.14436 -8.94973
69 1 7.86177 4.71653 4.71637 -8.95
70 1 9.43443 3.14449 3.14434 -8.94957
71 1 11.0071 4.71639 4.71636 -8.9495
72 1 12.5795 3.14448 3.14432 -8.94959
73 1 14.1525 4.71624 4.71629 -8.94974
74 1 15.7247 3.14445 3.14437 -8.94959
75 1 17.2973 4.71672 4.71667 -8.94935
76 1 18.8694 3.14463 3.14457 -8.94953
77 1 20.4417 4.71699 4.71697 -8.94959
78 1 22.0139 6.2895 3.1446 -8.94964
79 1 1.57215 7.86191 4.71688 -8.94964
80 1 3.14443 6.28944 3.14448 -8.94961
81 1 4.71652 7.86168 4.71652 -8.94942
82 1 6.28905 6.28909 3.14395 -8.9498
83 1 7.86138 7.86104 4.71557 -8.95095
84 1 9.43437 6.28899 3.14416 -8.94954
85 1 11.0069 7.86149 4.71602 -8.94977
86 1 12.5796 6.28898 3.14404 -8.94995
87 1 14.1538 7.86015 4.71492 -8.94776
88 1 15.7251 6.28887 3.14392 -8.94912
89 1 17.2975 7.86165 4.71658 -8.94994
90 1 18.8695 6.28938 3.14449 -8.94967
91 1 20.4417 7.8619 4.71692 -8.9497
92 1 -2.79638e-05 9.43445 3.1446 -8.9496
93 1 3.14447 9.43441 3.14447 -8.9496
94 1 6.28916 9.4344 3.14416 -8.94994
95 1 9.43397 9.43372 3.14327 -8.94808
96 1 12.5805 9.43353 3.14242 -8.94952
97 1 15.725 9.43427 3.14413 -8.9497
98 1 18.8694 9.43443 3.14448 -8.94959
99 1 -5.17893e-05 8.96653e-05 6.28952 -8.94962
100 1 1.57216 1.57235 7.86198 -8.94961
101 1 3.14438 0.000105047 6.28936 -8.94961
102 1 4.71662 1.57225 7.86182 -8.94952
167 1 15.7258 6.28798 9.43421 -8.94937
104 1 7.86128 1.57167 7.86133 -8.95004
105 1 9.43435 0.000250995 6.2889 -8.94948
106 1 11.0072 1.57174 7.86133 -8.94966
107 1 12.5798 0.000251035 6.2889 -8.94957
108 1 14.1526 1.57208 7.86152 -8.94975
166 1 12.5814 6.28427 9.43319 -8.94967
110 1 17.2972 1.57227 7.86187 -8.94957
111 1 18.8694 7.86885e-05 6.28945 -8.94963
112 1 20.4416 1.57235 7.862 -8.94963
113 1 22.0139 3.14465 6.2895 -8.94963
114 1 1.57213 4.71693 7.86191 -8.94963
115 1 3.14434 3.14459 6.28938 -8.9497
116 1 4.71633 4.71649 7.86168 -8.94983
117 1 6.28855 3.1437 6.28858 -8.94938
118 1 7.86025 4.71373 7.86031 -8.94875
119 1 9.43444 3.14385 6.28885 -8.94936
120 1 11.0078 4.71411 7.86066 -8.94752
121 1 12.58 3.14377 6.28871 -8.94946
122 1 14.1532 4.71526 7.86109 -8.9496
123 1 15.725 3.1442 6.28903 -8.94953
124 1 17.2975 4.71653 7.86169 -8.94964
125 1 18.8695 3.14456 6.2894 -8.94963
126 1 20.4417 4.71693 7.86191 -8.94963
127 1 -2.49978e-05 6.28937 6.28937 -8.94968
128 1 1.57201 7.86172 7.86173 -8.94974
129 1 3.14405 6.28916 6.28911 -8.94991
130 1 4.7159 7.8613 7.86147 -8.95116
131 1 6.28753 6.2874 6.28746 -8.94691
132 1 7.85634 7.85498 7.85576 -8.98003
133 1 9.43468 6.28793 6.2889 -8.95016
134 1 11.01 7.85835 7.85997 -9.00061
135 1 12.5805 6.28747 6.28815 -8.95064
136 1 14.1553 7.85847 7.85987 -8.94625
137 1 15.7258 6.28826 6.28842 -8.94873
138 1 17.2983 7.86105 7.86133 -8.94979
139 1 18.8698 6.28917 6.28919 -8.94957
140 1 20.442 7.86168 7.8617 -8.94972
141 1 22.0139 9.43438 6.28932 -8.94968
142 1 3.14424 9.43432 6.28911 -8.94979
143 1 6.28832 9.43383 6.28825 -8.94889
144 1 9.43306 9.43218 6.28838 -9.00397
145 1 12.5847 9.42843 6.28394 -8.9826
146 1 15.7257 9.434 6.28871 -8.9511
147 1 18.8697 9.43431 6.28918 -8.94976
165 1 9.43275 6.27461 9.4334 -8.96312
164 1 6.28867 6.28773 9.43436 -8.94976
150 1 6.2889 0.000320073 9.43434 -8.94954
163 1 3.14413 6.28905 9.43437 -8.94946
162 1 22.0139 6.28932 9.43438 -8.94967
153 1 15.7249 0.000233356 9.43435 -8.94959
161 1 18.8695 3.14453 9.43442 -8.94961
155 1 -3.60177e-05 3.14465 9.43447 -8.94962
156 1 3.14434 3.14452 9.43443 -8.94959
157 1 6.28872 3.14369 9.43434 -8.94931
158 1 9.43407 3.14149 9.43407 -8.95304
159 1 12.5801 3.14293 9.43403 -8.94998
160 1 15.7251 3.14399 9.43427 -8.94954
344 1 1.57224 11.0069 1.57227 -8.94962
345 1 4.71686 11.0069 1.57212 -8.94957
346 1 7.86178 11.007 1.57189 -8.94955
347 1 11.007 11.0069 1.57048 -8.9522
513 1 4.7143 11.0059 11.0065 -8.94903
181 1 17.2972 1.57222 11.007 -8.94958
188 1 17.2976 4.71642 11.007 -8.94955
190 1 1.57201 7.86169 11.0069 -8.94972
191 1 4.7158 7.86107 11.007 -8.95107
192 1 7.8571 7.8549 11.0127 -8.98071
193 1 11.0098 7.8438 11.0101 -9.0163
512 1 1.57159 11.0066 11.0067 -8.94985
177 1 4.71661 1.57221 11.007 -8.94951
184 1 4.71623 4.71635 11.0071 -8.94968
189 1 20.4417 4.71693 11.0069 -8.94961
7 1 9.43449 4.54903e-05 -3.27063e-05 -8.94962
643 1 17.297 11.007 20.4416 -8.94957
644 1 20.4416 11.0069 20.4416 -8.9496
178 1 7.86132 1.57157 11.0072 -8.94991
179 1 11.0072 1.57141 11.0072 -8.95086
180 1 14.1525 1.57191 11.007 -8.94968
639 1 4.71685 11.0069 20.4417 -8.94961
182 1 20.4416 1.57234 11.007 -8.94962
183 1 1.57212 4.71692 11.0069 -8.94961
638 1 1.57221 11.0069 20.4417 -8.9496
185 1 7.86044 4.71351 11.0081 -8.9487
186 1 11.0078 4.71139 11.008 -8.95199
187 1 14.1531 4.715 11.0072 -8.94977
48 1 15.7247 9.43438 22.0138 -8.94961
35 1 9.4344 6.28928 22.0139 -8.94959
46 1 9.43425 9.4342 22.0136 -8.94979
45 1 6.28933 9.4344 22.0139 -8.94973
43 1 22.0139 9.43445 22.0139 -8.9496
546 1 20.4422 11.0066 14.1523 -8.94991
194 1 14.155 7.85761 11.0078 -8.94864
195 1 17.2983 7.86089 11.007 -8.9499
196 1 20.442 7.86166 11.0069 -8.94972
197 1 -5.34297e-05 7.51131e-05 12.5794 -8.94961
198 1 1.57215 1.57234 14.152 -8.94965
343 1 18.8694 9.43442 18.8694 -8.94963
200 1 4.71658 1.57212 14.1523 -8.94952
41 1 18.8693 6.28947 22.0139 -8.94964
202 1 7.86156 1.572 14.1525 -8.94965
203 1 9.43415 0.000558451 12.58 -8.94973
204 1 11.007 1.57184 14.1525 -8.94959
205 1 12.5801 0.000509972 12.58 -8.94983
206 1 14.1525 1.57189 14.1525 -8.94965
37 1 12.5795 6.28927 22.0139 -8.9496
208 1 17.2972 1.57221 14.1521 -8.94959
342 1 15.7248 9.43429 18.8698 -8.94988
210 1 20.4416 1.57234 14.1519 -8.94963
211 1 22.0139 3.14465 12.5794 -8.94962
212 1 1.57201 4.71688 14.152 -8.9497
213 1 3.1443 3.14452 12.5795 -8.94964
214 1 4.71609 4.71618 14.1526 -8.9491
215 1 6.2885 3.14352 12.5802 -8.94947
216 1 7.86101 4.71521 14.1532 -8.94978
217 1 9.43407 3.14284 12.5802 -8.94971
218 1 11.0072 4.71503 14.1531 -8.94953
219 1 12.5804 3.14276 12.5804 -8.94987
220 1 14.1532 4.71503 14.1532 -8.94932
221 1 15.7251 3.14399 12.5797 -8.94962
222 1 17.2976 4.71649 14.1523 -8.94952
223 1 18.8695 3.14452 12.5795 -8.94961
224 1 20.4418 4.7169 14.152 -8.94964
225 1 -4.72013e-05 6.28933 12.5795 -8.94975
226 1 1.57187 7.86167 14.1521 -8.94965
227 1 3.14393 6.28903 12.5796 -8.94993
228 1 4.71565 7.86087 14.1528 -8.94975
229 1 6.28721 6.28695 12.5813 -8.94752
230 1 7.85928 7.85816 14.1554 -8.95027
231 1 9.43333 6.28453 12.5814 -8.94846
232 1 11.007 7.85799 14.1544 -8.95128
233 1 12.5819 6.28368 12.5821 -8.94868
234 1 14.1555 7.85763 14.1554 -8.94738
235 1 15.7261 6.28782 12.5802 -8.9491
236 1 17.2981 7.86111 14.1525 -8.95044
237 1 18.8699 6.28902 12.5796 -8.94962
238 1 20.4419 7.8617 14.1521 -8.94972
239 1 22.0138 9.43419 12.5795 -8.9497
240 1 3.14339 9.43393 12.5797 -8.94972
241 1 6.28654 9.43296 12.5811 -8.94925
242 1 9.4289 9.42649 12.5862 -9.04943
243 1 12.5873 9.42293 12.5878 -9.02407
244 1 15.7267 9.4334 12.5796 -8.95208
245 1 18.8702 9.43407 12.5795 -8.9496
341 1 12.5799 9.43393 18.8704 -8.95028
247 1 1.57219 1.57233 17.2969 -8.94955
248 1 3.14439 0.000112085 15.7246 -8.94954
249 1 4.71684 1.57226 17.2971 -8.94959
340 1 9.43418 9.43389 18.8705 -8.95012
251 1 7.86187 1.5722 17.2972 -8.94962
252 1 9.43441 0.000113473 15.7248 -8.94961
253 1 11.007 1.57217 17.2972 -8.94961
254 1 12.5796 7.38074e-05 15.7248 -8.9496
255 1 14.1521 1.57217 17.2972 -8.94964
339 1 6.28905 9.43421 18.87 -8.94998
257 1 17.2971 1.57226 17.2971 -8.94951
258 1 18.8694 6.94586e-05 15.7245 -8.94962
259 1 20.4416 1.57233 17.2968 -8.9496
260 1 -4.11187e-05 3.14463 15.7244 -8.94962
261 1 1.57214 4.71693 17.297 -8.94963
262 1 3.14428 3.14444 15.7247 -8.94946
263 1 4.71653 4.71657 17.2974 -8.94946
264 1 6.28902 3.14412 15.725 -8.94965
265 1 7.86165 4.71639 17.2976 -8.94959
266 1 9.43427 3.14394 15.7251 -8.94964
267 1 11.007 4.71634 17.2976 -8.94948
268 1 12.5797 3.14398 15.7251 -8.94967
269 1 14.1523 4.71638 17.2976 -8.94968
270 1 15.7251 3.144 15.725 -8.9495
271 1 17.2974 4.71655 17.2974 -8.94933
272 1 18.8695 3.14451 15.7245 -8.94961
273 1 20.4417 4.71694 17.2969 -8.94965
274 1 22.0138 6.28932 15.7245 -8.94967
275 1 1.57198 7.86168 17.2972 -8.94953
276 1 3.14408 6.28909 15.7248 -8.94965
277 1 4.71609 7.86123 17.2978 -8.94912
278 1 6.28825 6.28797 15.7259 -8.94936
279 1 7.86104 7.86074 17.2986 -8.94926
280 1 9.4341 6.28765 15.726 -8.94972
281 1 11.007 7.86075 17.2985 -8.94905
282 1 12.5801 6.28762 15.7259 -8.95013
283 1 14.1531 7.86071 17.2985 -8.94925
284 1 15.7258 6.28803 15.7257 -8.94875
285 1 17.2977 7.86139 17.2976 -8.94929
286 1 18.8697 6.28913 15.7247 -8.94978
287 1 20.4418 7.86171 17.2971 -8.94954
288 1 -0.000102427 9.43417 15.7247 -8.94972
289 1 3.14348 9.43378 15.7253 -8.9495
290 1 6.28728 9.43259 15.7268 -8.9478
291 1 9.43287 9.4314 15.7287 -8.94738
292 1 12.5816 9.43124 15.7287 -8.94812
293 1 15.7263 9.43282 15.726 -8.94809
294 1 18.8702 9.4339 15.7251 -8.94943
295 1 -3.8465e-05 7.22866e-05 18.8692 -8.94955
296 1 1.57227 1.57235 20.4416 -8.94954
338 1 3.14442 9.43437 18.8695 -8.9496
298 1 4.71704 1.57231 20.4416 -8.94962
299 1 6.28947 5.23398e-05 18.8694 -8.94963
300 1 7.862 1.57231 20.4416 -8.94961
337 1 22.0138 9.43438 18.8694 -8.94959
302 1 11.007 1.57231 20.4417 -8.94961
336 1 20.4416 7.86194 20.4417 -8.94963
304 1 14.1519 1.5723 20.4416 -8.94962
305 1 15.7245 3.85867e-05 18.8694 -8.94963
306 1 17.2969 1.5723 20.4416 -8.9496
335 1 18.8695 6.28928 18.8695 -8.94948
308 1 20.4416 1.57235 20.4416 -8.94952
309 1 22.0139 3.14466 18.8693 -8.94958
310 1 1.57223 4.71702 20.4417 -8.94955
311 1 3.14451 3.14457 18.8694 -8.94954
312 1 4.71691 4.7169 20.4417 -8.94957
313 1 6.28937 3.1445 18.8695 -8.94962
314 1 7.86189 4.71687 20.4418 -8.94962
315 1 9.43441 3.14448 18.8695 -8.94958
316 1 11.007 4.71689 20.4417 -8.94961
317 1 12.5795 3.14448 18.8695 -8.94958
318 1 14.152 4.71686 20.4418 -8.94963
319 1 15.7246 3.14447 18.8695 -8.94962
320 1 17.297 4.7169 20.4417 -8.94951
321 1 18.8694 3.14458 18.8693 -8.94949
322 1 20.4416 4.71704 20.4416 -8.94955
323 1 -4.21259e-05 6.28939 18.8694 -8.94954
324 1 1.57222 7.86193 20.4417 -8.94963
325 1 3.14437 6.28926 18.8695 -8.94942
326 1 4.71684 7.86183 20.4418 -8.94971
327 1 6.28905 6.28902 18.8699 -8.94951
328 1 7.86168 7.86162 20.442 -8.94975
329 1 9.43434 6.28897 18.8699 -8.94957
330 1 11.007 7.86161 20.442 -8.9496
331 1 12.5796 6.28893 18.8699 -8.94957
332 1 14.1523 7.86159 20.4419 -8.94979
333 1 15.7249 6.28899 18.8699 -8.94945
334 1 17.297 7.86184 20.4417 -8.94966
545 1 17.2994 11.0058 14.1531 -8.94866
543 1 11.0075 11 14.1667 -9.00217
515 1 11.0309 10.9457 11.0378 -9.4267
541 1 4.71422 11.0058 14.1536 -8.94855
540 1 1.57139 11.0066 14.1524 -8.94987
31 1 3.14455 6.28946 22.0139 -8.94963
15 1 22.0139 3.14471 22.0139 -8.94954
19 1 6.28949 3.14462 22.0139 -8.94964
25 1 15.7244 3.14458 22.0139 -8.94966
3 1 3.14464 5.65148e-05 22.0139 -8.94959
176 1 1.57216 1.57234 11.007 -8.94961
688 2 10.1992 11.0157 9.40994 0.809
511 1 18.8696 18.8696 9.43439 -8.9496
510 1 15.7253 18.8702 9.43424 -8.94983
509 1 12.5811 18.8731 9.43314 -8.9495
508 1 9.43317 18.8748 9.43323 -8.95253
507 1 6.28839 18.8707 9.43423 -8.94962
506 1 3.1441 18.8697 9.43438 -8.94958
349 1 17.2971 11.0069 1.57212 -8.94959
352 1 1.57223 14.1519 1.57226 -8.94962
154 1 18.8694 22.014 9.43446 -8.9496
354 1 4.71683 14.1519 1.57212 -8.94964
152 1 12.58 22.0146 9.4341 -8.95002
356 1 7.86159 14.1523 1.57163 -8.94967
151 1 9.43415 22.0146 9.43411 -8.95092
358 1 11.0069 14.1522 1.57159 -8.94943
149 1 3.14437 22.014 9.43446 -8.94959
360 1 14.1525 14.1524 1.57134 -8.94963
361 1 15.7247 12.5795 -0.00020955 -8.94954
362 1 17.2971 14.1519 1.57211 -8.94964
537 1 14.1526 20.4426 11.007 -8.94951
364 1 20.4416 14.1519 1.57228 -8.94962
148 1 -3.61219e-05 22.014 9.43448 -8.94962
366 1 1.57222 17.2968 1.57224 -8.94964
109 1 15.7249 22.0142 6.2891 -8.94955
368 1 4.71684 17.297 1.57204 -8.94962
103 1 6.28889 22.0142 6.28888 -8.94962
370 1 7.86187 17.2971 1.57193 -8.94973
371 1 9.43441 15.7246 -0.000200332 -8.94968
372 1 11.007 17.2971 1.57193 -8.94964
373 1 12.5795 15.7246 -0.000239063 -8.94968
374 1 14.1521 17.2971 1.57193 -8.94984
62 1 18.8693 22.014 3.14457 -8.94952
376 1 17.2971 17.297 1.57206 -8.94942
377 1 18.8693 15.7244 -2.26835e-05 -8.94964
378 1 20.4416 17.2968 1.57228 -8.94963
379 1 22.0139 18.8692 1.33288e-06 -8.94959
380 1 1.57222 20.4416 1.57224 -8.94952
58 1 12.5795 22.014 3.14441 -8.94959
382 1 4.717 20.4417 1.57216 -8.94963
383 1 6.28948 18.8693 -4.98967e-05 -8.94967
384 1 7.86197 20.4417 1.57214 -8.9496
56 1 9.43447 22.014 3.14441 -8.9496
386 1 11.007 20.4417 1.57216 -8.94959
52 1 3.14447 22.014 3.14447 -8.94943
388 1 14.152 20.4417 1.57213 -8.94962
389 1 15.7245 18.8694 -6.98334e-05 -8.94968
390 1 17.2969 20.4417 1.57218 -8.94957
50 1 22.0138 22.014 3.14465 -8.94957
392 1 20.4416 20.4416 1.57229 -8.94957
393 1 1.57214 11.0069 4.71686 -8.94955
394 1 4.71667 11.0068 4.71654 -8.94913
505 1 -4.515e-05 18.8694 9.4344 -8.94961
504 1 18.8703 15.725 9.43406 -8.94959
503 1 15.7269 15.7261 9.43351 -8.95014
398 1 17.2974 11.0068 4.7166 -8.94943
399 1 20.4417 11.0069 4.71689 -8.9496
400 1 -3.4304e-05 12.5794 3.14459 -8.9496
401 1 1.57212 14.1519 4.71687 -8.9496
402 1 3.14446 12.5794 3.14447 -8.94958
403 1 4.71634 14.1521 4.71641 -8.94947
404 1 6.28913 12.5794 3.14409 -8.94986
405 1 7.86116 14.1529 4.71526 -8.95092
406 1 9.43385 12.5802 3.14301 -8.94807
407 1 11.0069 14.1526 4.71556 -8.94977
408 1 12.5806 12.5804 3.14215 -8.94966
409 1 14.154 14.1537 4.71473 -8.94737
410 1 15.725 12.5795 3.14406 -8.94965
411 1 17.2976 14.1521 4.71658 -8.94999
412 1 18.8694 12.5794 3.14449 -8.94958
413 1 20.4417 14.1519 4.71692 -8.94968
414 1 22.0139 15.7244 3.14459 -8.94964
415 1 1.57204 17.2969 4.71684 -8.94968
416 1 3.14441 15.7244 3.14443 -8.9496
417 1 4.71614 17.2976 4.71609 -8.94891
418 1 6.28891 15.7248 3.14371 -8.94977
419 1 7.86156 17.2977 4.71603 -8.95024
420 1 9.43441 15.7249 3.14391 -8.94972
421 1 11.0071 17.2977 4.71603 -8.94938
422 1 12.5796 15.7249 3.14383 -8.95012
423 1 14.1527 17.2979 4.71589 -8.95
424 1 15.7252 15.725 3.14376 -8.949
425 1 17.2974 17.2972 4.71661 -8.94952
426 1 18.8695 15.7245 3.14448 -8.94968
427 1 20.4417 17.2969 4.71693 -8.94965
428 1 -7.51436e-05 18.8693 3.14461 -8.9496
429 1 1.57215 20.4417 4.71696 -8.94959
430 1 3.14439 18.8694 3.14438 -8.94938
431 1 4.71649 20.442 4.71648 -8.9493
432 1 6.28923 18.8695 3.14413 -8.94976
433 1 7.86183 20.442 4.71655 -8.94958
434 1 9.43443 18.8696 3.14418 -8.94958
435 1 11.007 20.442 4.71652 -8.94953
436 1 12.5796 18.8696 3.14417 -8.94958
437 1 14.1523 20.442 4.71653 -8.94964
438 1 15.7248 18.8696 3.14417 -8.94964
439 1 17.2972 20.4419 4.71674 -8.94936
440 1 18.8694 18.8693 3.14453 -8.9496
441 1 20.4416 20.4417 4.71701 -8.94958
502 1 12.5865 15.7334 9.42819 -8.98081
501 1 9.42752 15.743 9.42892 -8.99663
500 1 6.28696 15.727 9.4336 -8.94999
445 1 11.0319 11.0087 7.81591 -9.27272
499 1 3.14345 15.7251 9.43404 -8.94941
498 1 22.0138 15.7247 9.43421 -8.94974
497 1 18.8702 12.5793 9.43421 -8.94976
449 1 22.0139 12.5794 6.28931 -8.94969
450 1 1.57193 14.152 7.86172 -8.94982
451 1 3.14409 12.5794 6.28909 -8.94972
452 1 4.71556 14.1524 7.86146 -8.95154
453 1 6.28819 12.5798 6.28835 -8.94862
454 1 7.85527 14.1592 7.85499 -8.98075
455 1 9.43251 12.5821 6.2882 -9.00371
456 1 11.0098 14.1552 7.85942 -9.05531
457 1 12.5853 12.5856 6.28318 -8.98199
458 1 14.1552 14.1542 7.85973 -8.94738
459 1 15.7257 12.5794 6.28891 -8.95098
460 1 17.2981 14.1522 7.86144 -8.95012
461 1 18.8698 12.5794 6.28922 -8.94968
462 1 20.4419 14.152 7.86174 -8.94975
463 1 -8.07143e-05 15.7244 6.28932 -8.94975
464 1 1.57187 17.2972 7.86172 -8.94961
465 1 3.14387 15.7246 6.289 -8.95
466 1 4.71578 17.2978 7.8613 -8.94981
467 1 6.28719 15.7268 6.28717 -8.94673
468 1 7.85853 17.3019 7.85874 -8.94659
469 1 9.43437 15.7264 6.28792 -8.95158
470 1 11.008 17.3007 7.86011 -8.94764
471 1 12.5809 15.7268 6.28719 -8.95226
472 1 14.1546 17.2998 7.85972 -8.94706
473 1 15.7257 15.7253 6.28842 -8.94902
474 1 17.298 17.2976 7.86137 -8.9497
475 1 18.8697 15.7246 6.28916 -8.94966
476 1 20.4419 17.2971 7.86174 -8.94965
477 1 22.0138 18.8694 6.28938 -8.94961
478 1 1.57213 20.4417 7.86193 -8.9496
479 1 3.14408 18.8696 6.28914 -8.94963
480 1 4.71647 20.442 7.86173 -8.9496
481 1 6.2882 18.8708 6.28817 -8.94873
482 1 7.86098 20.4433 7.86095 -8.94988
483 1 9.43424 18.8706 6.28845 -8.94948
484 1 11.0072 20.4432 7.86116 -8.94946
485 1 12.5801 18.8706 6.28838 -8.94958
486 1 14.1529 20.4428 7.8612 -8.94956
487 1 15.7255 18.8702 6.28859 -8.94887
488 1 17.2973 20.4419 7.86178 -8.94968
489 1 18.8696 18.8695 6.28925 -8.94958
490 1 20.4417 20.4417 7.86194 -8.94963
491 1 -3.00784e-05 12.5794 9.43423 -8.94956
492 1 3.14384 12.5794 9.43428 -8.94931
493 1 6.28774 12.5795 9.43452 -9.00384
494 1 9.4103 12.6344 9.43371 -9.25018
495 1 12.5882 12.5846 9.43144 -9.01893
496 1 15.727 12.5796 9.43428 -8.95189
536 1 11.0072 20.4447 11.0072 -8.95294
5 1 6.28955 22.0139 -5.03663e-05 -8.94963
516 1 14.1535 11.0031 11.0033 -9.05064
519 1 1.5715 14.1522 11.0067 -8.94994
520 1 4.71385 14.1532 11.0065 -8.94978
521 1 7.85391 14.1615 11.0107 -9.03272
522 1 11.0093 14.2125 10.9853 -9.26243
523 1 14.1561 14.1563 11.0051 -9.00052
524 1 17.2994 14.153 11.0064 -8.94835
525 1 20.4422 14.1522 11.0067 -8.94984
527 1 4.71578 17.2979 11.007 -8.94962
535 1 7.86124 20.4431 11.0073 -8.94978
531 1 17.2978 17.2976 11.0069 -8.94953
353 1 3.14454 12.5794 1.48354e-06 -8.94959
687 2 11.0005 12.6078 11.789 0.797396
686 1 20.4416 20.4416 20.4416 -8.94949
514 1 7.85613 11.0033 11.0096 -9.03452
685 1 18.8694 18.8694 18.8694 -8.94939
307 1 18.8693 22.014 18.8693 -8.94954
684 1 17.2969 20.4417 20.4416 -8.94961
683 1 15.7245 18.8695 18.8695 -8.94962
303 1 12.5795 22.0139 18.8694 -8.94959
301 1 9.43448 22.0139 18.8694 -8.94959
297 1 3.14457 22.014 18.8693 -8.94957
256 1 15.7248 22.0141 15.7248 -8.94955
250 1 6.28917 22.0141 15.7249 -8.94961
246 1 22.0138 22.014 15.7244 -8.94961
209 1 18.8694 22.014 12.5795 -8.9496
526 1 1.57188 17.2972 11.0069 -8.94958
199 1 3.14439 22.014 12.5795 -8.94958
528 1 7.86007 17.3012 11.0083 -8.94957
529 1 11.0078 17.3111 11.0075 -8.965
671 1 18.8693 15.7244 18.8694 -8.9497
670 1 17.297 17.297 20.4417 -8.94962
669 1 15.7247 15.7247 18.8697 -8.94993
533 1 1.57214 20.4417 11.007 -8.94958
534 1 4.71645 20.4421 11.0071 -8.94951
668 1 14.152 17.297 20.4417 -8.94968
667 1 12.5796 15.7247 18.8696 -8.94987
666 1 11.007 17.297 20.4417 -8.94961
538 1 17.2973 20.4419 11.007 -8.94957
539 1 20.4416 20.4417 11.0069 -8.94961
682 1 14.1519 20.4417 20.4416 -8.94963
681 1 12.5795 18.8695 18.8695 -8.94961
542 1 7.85645 11.0011 14.1583 -8.98093
680 1 11.007 20.4416 20.4416 -8.94961
544 1 14.1563 11.0015 14.156 -8.98038
679 1 9.43444 18.8695 18.8695 -8.9496
678 1 7.86202 20.4417 20.4416 -8.94963
547 1 22.0138 12.5794 12.5795 -8.95054
548 1 1.57132 14.1522 14.1524 -8.94994
549 1 3.14192 12.5794 12.5797 -8.95284
550 1 4.71404 14.1533 14.1536 -8.94892
551 1 6.27651 12.5799 12.5818 -8.96358
552 1 7.85497 14.1585 14.1587 -8.98265
553 1 9.38219 12.5799 12.6027 -9.26942
554 1 11.0069 14.1557 14.1553 -8.98228
555 1 12.6303 12.5814 12.6007 -9.24502
556 1 14.158 14.1578 14.1568 -8.98062
557 1 15.7358 12.5793 12.5798 -8.96513
558 1 17.2993 14.1529 14.153 -8.94935
559 1 18.8715 12.5793 12.5795 -8.95263
560 1 20.4423 14.1522 14.1523 -8.94999
561 1 -0.00016277 15.7246 12.5795 -8.94972
562 1 1.57186 17.2972 14.1522 -8.94966
563 1 3.14332 15.725 12.5797 -8.94984
564 1 4.71569 17.298 14.1528 -8.94927
565 1 6.28601 15.7269 12.5814 -8.94737
566 1 7.86051 17.2992 14.1535 -8.95053
567 1 9.4316 15.7287 12.5823 -9.00101
568 1 11.0071 17.2987 14.1523 -8.95032
569 1 12.5831 15.7288 12.5828 -9.0002
570 1 14.1536 17.2991 14.1534 -8.94993
571 1 15.7266 15.7252 12.5797 -8.94966
572 1 17.2977 17.2975 14.1523 -8.94987
573 1 18.8702 15.7248 12.5795 -8.94957
574 1 20.4418 17.2971 14.1521 -8.94963
575 1 22.0138 18.8694 12.5795 -8.94962
576 1 1.57211 20.4417 14.152 -8.94962
577 1 3.14409 18.8697 12.5796 -8.9496
578 1 4.71645 20.4421 14.1524 -8.94954
579 1 6.28824 18.8708 12.5802 -8.9494
580 1 7.86137 20.4425 14.1527 -8.94954
581 1 9.43344 18.8721 12.5807 -8.94788
582 1 11.0071 20.4424 14.1526 -8.94952
583 1 12.5809 18.8721 12.5808 -8.94793
584 1 14.1528 20.4425 14.1527 -8.9495
585 1 15.7254 18.8701 12.5798 -8.94953
586 1 17.2972 20.4419 14.1521 -8.94963
587 1 18.8696 18.8695 12.5795 -8.9496
588 1 20.4416 20.4417 14.152 -8.94962
677 1 6.28938 18.8695 18.8695 -8.94961
676 1 4.71705 20.4417 20.4416 -8.94962
591 1 7.8616 11.0068 17.2982 -8.9512
592 1 11.007 11.0066 17.2997 -8.95372
593 1 14.1523 11.0069 17.2976 -8.95073
675 1 3.14445 18.8695 18.8695 -8.94938
674 1 1.57225 20.4417 20.4416 -8.94951
596 1 -0.000113748 12.5794 15.7247 -8.94955
597 1 1.57206 14.152 17.2972 -8.94949
598 1 3.14357 12.5794 15.7251 -8.9493
599 1 4.71638 14.1521 17.2976 -8.94977
600 1 6.28809 12.5795 15.7253 -8.94949
601 1 7.86141 14.1524 17.2981 -8.95141
602 1 9.4344 12.5799 15.7253 -9.00032
603 1 11.007 14.1521 17.2977 -8.95023
604 1 12.5795 12.58 15.7247 -8.99951
605 1 14.1525 14.1522 17.2977 -8.95113
606 1 15.7255 12.5793 15.7246 -8.94966
607 1 17.2973 14.152 17.2973 -8.94982
608 1 18.87 12.5794 15.7249 -8.94927
609 1 20.4417 14.152 17.2971 -8.94951
610 1 22.0138 15.7246 15.7247 -8.94973
611 1 1.57201 17.2971 17.2972 -8.94952
612 1 3.14348 15.7251 15.7253 -8.94947
613 1 4.7162 17.2976 17.2978 -8.94904
614 1 6.28731 15.7263 15.7267 -8.9473
615 1 7.86166 17.2975 17.2977 -8.94945
616 1 9.43388 15.726 15.7262 -8.94891
617 1 11.007 17.2974 17.2974 -8.94904
618 1 12.5801 15.7259 15.726 -8.94935
619 1 14.1523 17.2974 17.2975 -8.94949
620 1 15.7264 15.7261 15.7262 -8.94729
621 1 17.2975 17.2974 17.2975 -8.949
622 1 18.8702 15.725 15.7251 -8.94958
623 1 20.4417 17.2971 17.2971 -8.94952
624 1 -7.60432e-05 18.8694 15.7245 -8.94961
625 1 1.57217 20.4417 17.2969 -8.94956
626 1 3.14418 18.8697 15.7248 -8.94948
627 1 4.71681 20.4419 17.2972 -8.94958
628 1 6.28884 18.8702 15.7252 -8.94967
629 1 7.86188 20.4418 17.2972 -8.94963
630 1 9.43434 18.87 15.7251 -8.94991
631 1 11.007 20.4419 17.2972 -8.94956
632 1 12.5797 18.87 15.7251 -8.94996
633 1 14.1521 20.4418 17.2972 -8.94967
634 1 15.7251 18.8701 15.7251 -8.94949
635 1 17.2971 20.4418 17.2971 -8.94953
636 1 18.8695 18.8695 15.7246 -8.94968
637 1 20.4416 20.4417 17.2969 -8.94962
11 1 15.7244 22.0139 22.0139 -8.94964
673 1 22.0139 18.8694 18.8694 -8.94951
640 1 7.86178 11.007 20.4419 -8.94966
641 1 11.007 11.007 20.4418 -8.95055
642 1 14.1522 11.007 20.4416 -8.9496
672 1 20.4416 17.2968 20.4416 -8.94964
391 1 18.8693 18.8693 22.0139 -8.94955
645 1 22.0138 12.5794 18.8694 -8.9496
646 1 1.57222 14.1519 20.4417 -8.9496
647 1 3.14442 12.5794 18.8695 -8.94956
648 1 4.71687 14.152 20.4417 -8.94962
649 1 6.28907 12.5795 18.8698 -8.94946
650 1 7.86176 14.1521 20.4417 -8.94979
651 1 9.43426 12.5796 18.8698 -8.94914
652 1 11.007 14.1521 20.4416 -8.94967
653 1 12.5798 12.5796 18.8695 -8.94908
654 1 14.1522 14.1521 20.4415 -8.9498
655 1 15.7248 12.5795 18.8695 -8.94937
656 1 17.297 14.1519 20.4416 -8.94956
657 1 18.8694 12.5794 18.8694 -8.94958
658 1 20.4416 14.1519 20.4416 -8.94959
659 1 -5.88393e-05 15.7244 18.8694 -8.94959
660 1 1.57224 17.2969 20.4417 -8.94963
661 1 3.14446 15.7245 18.8695 -8.94964
662 1 4.71691 17.297 20.4417 -8.94969
663 1 6.28914 15.7247 18.8699 -8.94997
664 1 7.86193 17.297 20.4417 -8.94968
665 1 9.43443 15.7247 18.8697 -8.94987
207 1 15.7249 22.0141 12.5796 -8.9496
355 1 6.2893 12.5794 22.0138 -8.94966
357 1 9.43426 12.5796 22.0135 -8.9496
359 1 12.5797 12.5797 22.0133 -8.94982
365 1 -2.9397e-05 15.7243 22.0139 -8.9496
367 1 3.14455 15.7244 22.0139 -8.94963
369 1 6.28931 15.7246 22.0138 -8.94975
375 1 15.7247 15.7246 22.0136 -8.94964
381 1 3.14459 18.8693 22.0139 -8.9496
385 1 9.43447 18.8693 22.0138 -8.9496
387 1 12.5795 18.8693 22.0138 -8.94961
595 1 20.4417 11.0069 17.2971 -8.94951
594 1 17.2974 11.0068 17.2974 -8.94974
590 1 4.71634 11.0068 17.2977 -8.94965
589 1 1.57208 11.0069 17.2972 -8.94948
201 1 6.28888 22.0141 12.5799 -8.94969
351 1 22.0139 12.5794 22.0139 -8.9496
363 1 18.8693 12.5794 22.0139 -8.9496
1 1 -3.59084e-05 22.0139 22.0139 -8.9495
530 1 14.1532 17.2992 11.0071 -8.95022
532 1 20.4418 17.2971 11.0069 -8.9496
