ITEM: TIMESTEP
7
ITEM: NUMBER OF ATOMS
688
ITEM: BOX BOUNDS pp pp pp
0.0000000000000000e+00 2.2013900999999997e+01
0.0000000000000000e+00 2.2013900999999997e+01
0.0000000000000000e+00 2.2013900999999997e+01
ITEM: ATOMS id type x y z c_pot
1 1 9.96725e-17 -1.81115e-17 4.19303e-17 -8.94963
2 1 1.57242 1.57242 1.57242 -8.94963
3 1 3.14484 -6.86834e-16 1.13197e-15 -8.94963
4 1 4.71726 1.57242 1.57242 -8.94963
5 1 6.28969 8.93839e-15 -4.50354e-15 -8.94963
6 1 7.86211 1.57242 1.57242 -8.94963
7 1 9.43453 1.36133e-13 -1.63927e-13 -8.94963
8 1 11.007 1.57242 1.57242 -8.94963
9 1 12.5794 1.36149e-13 8.71483e-14 -8.94963
10 1 14.1518 1.57242 1.57242 -8.94963
11 1 15.7242 8.92892e-15 1.04166e-14 -8.94963
12 1 17.2966 1.57242 1.57242 -8.94963
13 1 18.8691 -6.92317e-16 -2.67971e-16 -8.94963
14 1 20.4415 1.57242 1.57242 -8.94963
15 1 4.64806e-16 3.14484 7.1591e-16 -8.94963
16 1 1.57242 4.71726 1.57242 -8.94963
17 1 3.14484 3.14484 2.04054e-14 -8.94963
18 1 4.71726 4.71726 1.57242 -8.94963
19 1 6.28969 3.14484 -5.47317e-13 -8.94963
20 1 7.86211 4.71726 1.57242 -8.94963
21 1 9.43453 3.14484 1.34152e-13 -8.94963
22 1 11.007 4.71726 1.57242 -8.94963
23 1 12.5794 3.14484 4.31907e-12 -8.94963
24 1 14.1518 4.71726 1.57242 -8.94963
25 1 15.7242 3.14484 -1.1632e-13 -8.94963
26 1 17.2966 4.71726 1.57242 -8.94963
27 1 18.8691 3.14484 1.27259e-14 -8.94963
28 1 20.4415 4.71726 1.57242 -8.94963
29 1 -1.11911e-14 6.28969 -1.05164e-14 -8.94963
30 1 1.57242 7.86211 1.57242 -8.94963
31 1 3.14484 6.28969 -6.78952e-13 -8.94963
32 1 4.71726 7.86211 1.57242 -8.94963
33 1 6.28969 6.28969 5.11864e-12 -8.94963
34 1 7.86211 7.86211 1.57242 -8.94963
35 1 9.43453 6.28969 -5.13603e-11 -8.94963
36 1 11.007 7.86211 1.57242 -8.94963
37 1 12.5794 6.28969 4.6449e-12 -8.94963
38 1 14.1518 7.86211 1.57242 -8.94963
39 1 15.7242 6.28969 1.50984e-11 -8.94963
40 1 17.2966 7.86211 1.57242 -8.94963
41 1 18.8691 6.28969 -1.41729e-13 -8.94963
42 1 20.4415 7.86211 1.57242 -8.94963
43 1 -9.79523e-14 9.43453 -1.19819e-13 -8.94963
44 1 3.14484 9.43453 -7.71913e-13 -8.94963
45 1 6.28969 9.43453 -1.16865e-10 -8.94963
46 1 9.43453 9.43453 -1.3853e-10 -8.94963
47 1 12.5794 9.43453 1.03229e-09 -8.94963
48 1 15.7242 9.43453 8.59354e-12 -8.94963
49 1 18.8691 9.43453 6.15342e-12 -8.94963
50 1 1.70103e-15 -8.02514e-17 3.14484 -8.94963
51 1 1.57242 1.57242 4.71726 -8.94963
52 1 3.14484 -1.30747e-14 3.14484 -8.94963
53 1 4.71726 1.57242 4.71726 -8.94963
54 1 6.28969 1.10142e-13 3.14484 -8.94963
55 1 7.86211 1.57242 4.71726 -8.94963
56 1 9.43453 -5.63259e-12 3.14484 -8.94963
57 1 11.007 1.57242 4.71726 -8.94963
58 1 12.5794 -5.63264e-12 3.14484 -8.94963
59 1 14.1518 1.57242 4.71726 -8.94963
60 1 15.7242 1.10177e-13 3.14484 -8.94963
61 1 17.2966 1.57242 4.71726 -8.94963
62 1 18.8691 -1.3057e-14 3.14484 -8.94963
63 1 20.4415 1.57242 4.71726 -8.94963
64 1 3.17172e-14 3.14484 3.14484 -8.94963
65 1 1.57242 4.71726 4.71726 -8.94963
66 1 3.14484 3.14484 3.14484 -8.94963
67 1 4.71726 4.71726 4.71726 -8.94963
68 1 6.28969 3.14484 3.14484 -8.94963
69 1 7.86211 4.71726 4.71726 -8.94963
70 1 9.43453 3.14484 3.14484 -8.94963
71 1 11.007 4.71726 4.71726 -8.94963
72 1 12.5794 3.14484 3.14484 -8.94963
73 1 14.1518 4.71726 4.71726 -8.94963
74 1 15.7242 3.14484 3.14484 -8.94963
75 1 17.2966 4.71726 4.71726 -8.94963
76 1 18.8691 3.14484 3.14484 -8.94963
77 1 20.4415 4.71726 4.71726 -8.94963
78 1 -6.52296e-13 6.28969 3.14484 -8.94963
79 1 1.57242 7.86211 4.71726 -8.94963
80 1 3.14484 6.28969 3.14484 -8.94963
81 1 4.71726 7.86211 4.71726 -8.94963
82 1 6.28969 6.28969 3.14484 -8.94963
83 1 7.86211 7.86211 4.71726 -8.94963
84 1 9.43453 6.28969 3.14484 -8.94963
85 1 11.007 7.86211 4.71726 -8.94968
86 1 12.5794 6.28969 3.14484 -8.94963
87 1 14.1518 7.86211 4.71726 -8.94966
88 1 15.7242 6.28969 3.14484 -8.94963
89 1 17.2966 7.86211 4.71726 -8.94963
90 1 18.8691 6.28969 3.14484 -8.94963
91 1 20.4415 7.86211 4.71726 -8.94963
92 1 2.9248e-12 9.43453 3.14484 -8.94963
93 1 3.14484 9.43453 3.14484 -8.94963
94 1 6.28969 9.43453 3.14484 -8.94963
95 1 9.43453 9.43453 3.14484 -8.94962
96 1 12.5794 9.43453 3.14484 -8.9496
97 1 15.7242 9.43453 3.14484 -8.94963
98 1 18.8691 9.43453 3.14484 -8.94963
99 1 -1.62033e-14 8.7574e-16 6.28969 -8.94963
100 1 1.57242 1.57242 7.86211 -8.94963
101 1 3.14484 1.27653e-13 6.28969 -8.94963
102 1 4.71726 1.57242 7.86211 -8.94963
103 1 6.28969 -1.44513e-11 6.28969 -8.94963
104 1 7.86211 1.57242 7.86211 -8.94963
105 1 9.43453 -2.84688e-11 6.28969 -8.94963
106 1 11.007 1.57242 7.86211 -8.94963
107 1 12.5794 -2.84185e-11 6.28969 -8.94963
108 1 14.1518 1.57242 7.86211 -8.94963
109 1 15.7242 -1.44441e-11 6.28969 -8.94963
110 1 17.2966 1.57242 7.86211 -8.94963
111 1 18.8691 1.27704e-13 6.28969 -8.94963
112 1 20.4415 1.57242 7.86211 -8.94963
113 1 -5.18894e-13 3.14484 6.28969 -8.94963
114 1 1.57242 4.71726 7.86211 -8.94963
115 1 3.14484 3.14484 6.28969 -8.94963
116 1 4.71726 4.71726 7.86211 -8.94963
117 1 6.28969 3.14484 6.28969 -8.94963
118 1 7.86211 4.71726 7.86211 -8.9496
119 1 9.43453 3.14484 6.28969 -8.94963
120 1 11.007 4.71726 7.86211 -8.94962
121 1 12.5794 3.14484 6.28969 -8.94963
122 1 14.1518 4.71726 7.86211 -8.94963
123 1 15.7242 3.14484 6.28969 -8.94963
124 1 17.2966 4.71726 7.86211 -8.94963
125 1 18.8691 3.14484 6.28969 -8.94963
126 1 20.4415 4.71726 7.86211 -8.94963
127 1 1.98425e-11 6.28969 6.28969 -8.94963
128 1 1.57242 7.86211 7.86211 -8.94963
129 1 3.14484 6.28969 6.28969 -8.94963
130 1 4.71726 7.86211 7.86211 -8.94965
131 1 6.28969 6.28969 6.28969 -8.94966
132 1 7.86217 7.86221 7.86214 -8.99489
133 1 9.43453 6.28968 6.28968 -8.94968
134 1 11.007 7.86213 7.86213 -9.00657
135 1 12.5794 6.28969 6.28969 -8.94963
136 1 14.1518 7.8621 7.86211 -8.94958
137 1 15.7242 6.28969 6.28969 -8.94963
138 1 17.2966 7.86211 7.86211 -8.94963
139 1 18.8691 6.28969 6.28969 -8.94963
140 1 20.4415 7.86211 7.86211 -8.94963
141 1 -1.01997e-11 9.43453 6.28969 -8.94963
142 1 3.14484 9.43453 6.28969 -8.94963
143 1 6.28968 9.43453 6.28968 -8.94954
144 1 9.43452 9.43455 6.28971 -9.00651
145 1 12.5793 9.43456 6.28979 -8.99487
146 1 15.7242 9.43453 6.28969 -8.94965
147 1 18.8691 9.43453 6.28969 -8.94963
148 1 -2.90771e-13 1.0874e-14 9.43453 -8.94963
149 1 3.14484 -4.21863e-12 9.43453 -8.94963
150 1 6.28969 -7.5874e-12 9.43453 -8.94963
151 1 9.43453 -1.0234e-09 9.43453 -8.94963
152 1 12.5794 -1.02219e-09 9.43453 -8.94963
153 1 15.7242 -7.54577e-12 9.43453 -8.94963
154 1 18.8691 -4.21977e-12 9.43453 -8.94963
155 1 5.42506e-12 3.14484 9.43453 -8.94963
156 1 3.14484 3.14484 9.43453 -8.94963
157 1 6.28969 3.14484 9.43453 -8.94963
158 1 9.43453 3.14484 9.43453 -8.94964
159 1 12.5794 3.14484 9.43453 -8.94963
160 1 15.7242 3.14484 9.43453 -8.94963
161 1 18.8691 3.14484 9.43453 -8.94963
162 1 5.25482e-11 6.28969 9.43453 -8.94963
163 1 3.14484 6.28969 9.43453 -8.94963
164 1 6.28968 6.28969 9.43453 -8.94971
165 1 9.43453 6.28966 9.43453 -8.95056
166 1 12.5794 6.28968 9.43453 -8.94969
167 1 15.7242 6.28969 9.43453 -8.94964
168 1 18.8691 6.28969 9.43453 -8.94963
169 1 1.64149e-09 9.43453 9.43453 -8.94963
170 1 3.14484 9.43453 9.43453 -8.9496
171 1 6.28981 9.4346 9.43453 -8.99579
172 1 9.43322 9.43197 9.4346 -9.29391
173 1 12.5798 9.43436 9.4346 -9.03096
174 1 15.7242 9.43453 9.43453 -8.94977
175 1 18.8691 9.43453 9.43453 -8.94963
176 1 1.57242 1.57242 11.007 -8.94963
177 1 4.71726 1.57242 11.007 -8.94963
178 1 7.86211 1.57242 11.007 -8.94963
179 1 11.007 1.57242 11.007 -8.94963
180 1 14.1518 1.57242 11.007 -8.94963
181 1 17.2966 1.57242 11.007 -8.94963
182 1 20.4415 1.57242 11.007 -8.94963
183 1 1.57242 4.71726 11.007 -8.94963
184 1 4.71726 4.71726 11.007 -8.94963
185 1 7.86211 4.71726 11.007 -8.9496
186 1 11.007 4.71726 11.007 -8.94962
187 1 14.1518 4.71726 11.007 -8.94963
188 1 17.2966 4.71726 11.007 -8.94963
189 1 20.4415 4.71726 11.007 -8.94963
190 1 1.57242 7.86211 11.007 -8.94963
191 1 4.71726 7.86211 11.007 -8.94965
192 1 7.86217 7.86221 11.0069 -8.99489
193 1 11.007 7.86212 11.0069 -9.0075
194 1 14.1518 7.8621 11.007 -8.9496
195 1 17.2966 7.86211 11.007 -8.94963
196 1 20.4415 7.86211 11.007 -8.94963
197 1 -1.62213e-14 2.62113e-13 12.5794 -8.94963
198 1 1.57242 1.57242 14.1518 -8.94963
199 1 3.14484 -3.48343e-14 12.5794 -8.94963
200 1 4.71726 1.57242 14.1518 -8.94963
201 1 6.28969 4.84518e-11 12.5794 -8.94963
202 1 7.86211 1.57242 14.1518 -8.94963
203 1 9.43453 1.48592e-10 12.5794 -8.94963
204 1 11.007 1.57242 14.1518 -8.94963
205 1 12.5794 1.48682e-10 12.5794 -8.94963
206 1 14.1518 1.57242 14.1518 -8.94963
207 1 15.7242 4.846e-11 12.5794 -8.94963
208 1 17.2966 1.57242 14.1518 -8.94963
209 1 18.8691 -3.5332e-14 12.5794 -8.94963
210 1 20.4415 1.57242 14.1518 -8.94963
211 1 -5.18657e-13 3.14484 12.5794 -8.94963
212 1 1.57242 4.71726 14.1518 -8.94963
213 1 3.14484 3.14484 12.5794 -8.94963
214 1 4.71726 4.71726 14.1518 -8.94963
215 1 6.28969 3.14484 12.5794 -8.94963
216 1 7.86211 4.71726 14.1518 -8.94963
217 1 9.43453 3.14484 12.5794 -8.94963
218 1 11.007 4.71726 14.1518 -8.94963
219 1 12.5794 3.14484 12.5794 -8.94963
220 1 14.1518 4.71726 14.1518 -8.94963
221 1 15.7242 3.14484 12.5794 -8.94963
222 1 17.2966 4.71726 14.1518 -8.94963
223 1 18.8691 3.14484 12.5794 -8.94963
224 1 20.4415 4.71726 14.1518 -8.94963
225 1 1.98495e-11 6.28969 12.5794 -8.94963
226 1 1.57242 7.86211 14.1518 -8.94963
227 1 3.14484 6.28969 12.5794 -8.94963
228 1 4.71726 7.86211 14.1518 -8.94963
229 1 6.28969 6.28969 12.5794 -8.94966
230 1 7.86211 7.86211 14.1518 -8.94964
231 1 9.43453 6.28968 12.5794 -8.94967
232 1 11.007 7.8621 14.1518 -8.94979
233 1 12.5794 6.28969 12.5794 -8.94962
234 1 14.1518 7.86211 14.1518 -8.94967
235 1 15.7242 6.28969 12.5794 -8.94963
236 1 17.2966 7.86211 14.1518 -8.94963
237 1 18.8691 6.28969 12.5794 -8.94963
238 1 20.4415 7.86211 14.1518 -8.94963
239 1 -1.01478e-11 9.43453 12.5794 -8.94963
240 1 3.14484 9.43453 12.5794 -8.94963
241 1 6.28968 9.43453 12.5794 -8.9496
242 1 9.43455 9.43458 12.5793 -9.06327
243 1 12.5793 9.43459 12.5793 -9.05157
244 1 15.7242 9.43453 12.5794 -8.9497
245 1 18.8691 9.43453 12.5794 -8.94963
246 1 1.71542e-15 1.57729e-14 15.7242 -8.94963
247 1 1.57242 1.57242 17.2966 -8.94963
248 1 3.14484 5.58736e-13 15.7242 -8.94963
249 1 4.71726 1.57242 17.2966 -8.94963
250 1 6.28969 -4.46586e-12 15.7242 -8.94963
251 1 7.86211 1.57242 17.2966 -8.94963
252 1 9.43453 9.70296e-11 15.7242 -8.94963
253 1 11.007 1.57242 17.2966 -8.94963
254 1 12.5794 9.70286e-11 15.7242 -8.94963
255 1 14.1518 1.57242 17.2966 -8.94963
256 1 15.7242 -4.46604e-12 15.7242 -8.94963
257 1 17.2966 1.57242 17.2966 -8.94963
258 1 18.8691 5.58654e-13 15.7242 -8.94963
259 1 20.4415 1.57242 17.2966 -8.94963
260 1 3.17702e-14 3.14484 15.7242 -8.94963
261 1 1.57242 4.71726 17.2966 -8.94963
262 1 3.14484 3.14484 15.7242 -8.94963
263 1 4.71726 4.71726 17.2966 -8.94963
264 1 6.28969 3.14484 15.7242 -8.94963
265 1 7.86211 4.71726 17.2966 -8.94963
266 1 9.43453 3.14484 15.7242 -8.94963
267 1 11.007 4.71726 17.2966 -8.94963
268 1 12.5794 3.14484 15.7242 -8.94963
269 1 14.1518 4.71726 17.2966 -8.94963
270 1 15.7242 3.14484 15.7242 -8.94963
271 1 17.2966 4.71726 17.2966 -8.94963
272 1 18.8691 3.14484 15.7242 -8.94963
273 1 20.4415 4.71726 17.2966 -8.94963
274 1 -6.51783e-13 6.28969 15.7242 -8.94963
275 1 1.57242 7.86211 17.2966 -8.94963
276 1 3.14484 6.28969 15.7242 -8.94963
277 1 4.71726 7.86211 17.2966 -8.94963
278 1 6.28969 6.28969 15.7242 -8.94963
279 1 7.86211 7.86211 17.2966 -8.94963
280 1 9.43453 6.28969 15.7242 -8.94963
281 1 11.007 7.86211 17.2966 -8.94964
282 1 12.5794 6.28969 15.7242 -8.94963
283 1 14.1518 7.86211 17.2966 -8.94963
284 1 15.7242 6.28969 15.7242 -8.94963
285 1 17.2966 7.86211 17.2966 -8.94963
286 1 18.8691 6.28969 15.7242 -8.94963
287 1 20.4415 7.86211 17.2966 -8.94963
288 1 2.92982e-12 9.43453 15.7242 -8.94963
289 1 3.14484 9.43453 15.7242 -8.94963
290 1 6.28969 9.43453 15.7242 -8.94966
291 1 9.43453 9.43453 15.7242 -8.94953
292 1 12.5794 9.43453 15.7242 -8.94951
293 1 15.7242 9.43453 15.7242 -8.94966
294 1 18.8691 9.43453 15.7242 -8.94963
295 1 9.92782e-17 -1.46967e-15 18.8691 -8.94963
296 1 1.57242 1.57242 20.4415 -8.94963
297 1 3.14484 -2.07621e-14 18.8691 -8.94963
298 1 4.71726 1.57242 20.4415 -8.94963
299 1 6.28969 6.47355e-13 18.8691 -8.94963
300 1 7.86211 1.57242 20.4415 -8.94963
301 1 9.43453 1.29083e-12 18.8691 -8.94963
302 1 11.007 1.57242 20.4415 -8.94963
303 1 12.5794 1.29065e-12 18.8691 -8.94963
304 1 14.1518 1.57242 20.4415 -8.94963
305 1 15.7242 6.47282e-13 18.8691 -8.94963
306 1 17.2966 1.57242 20.4415 -8.94963
307 1 18.8691 -2.07647e-14 18.8691 -8.94963
308 1 20.4415 1.57242 20.4415 -8.94963
309 1 4.57884e-16 3.14484 18.8691 -8.94963
310 1 1.57242 4.71726 20.4415 -8.94963
311 1 3.14484 3.14484 18.8691 -8.94963
312 1 4.71726 4.71726 20.4415 -8.94963
313 1 6.28969 3.14484 18.8691 -8.94963
314 1 7.86211 4.71726 20.4415 -8.94963
315 1 9.43453 3.14484 18.8691 -8.94963
316 1 11.007 4.71726 20.4415 -8.94963
317 1 12.5794 3.14484 18.8691 -8.94963
318 1 14.1518 4.71726 20.4415 -8.94963
319 1 15.7242 3.14484 18.8691 -8.94963
320 1 17.2966 4.71726 20.4415 -8.94963
321 1 18.8691 3.14484 18.8691 -8.94963
322 1 20.4415 4.71726 20.4415 -8.94963
323 1 -1.12007e-14 6.28969 18.8691 -8.94963
324 1 1.57242 7.86211 20.4415 -8.94963
325 1 3.14484 6.28969 18.8691 -8.94963
326 1 4.71726 7.86211 20.4415 -8.94963
327 1 6.28969 6.28969 18.8691 -8.94963
328 1 7.86211 7.86211 20.4415 -8.94963
329 1 9.43453 6.28969 18.8691 -8.94963
330 1 11.007 7.86211 20.4415 -8.94963
331 1 12.5794 6.28969 18.8691 -8.94963
332 1 14.1518 7.86211 20.4415 -8.94963
333 1 15.7242 6.28969 18.8691 -8.94963
334 1 17.2966 7.86211 20.4415 -8.94963
335 1 18.8691 6.28969 18.8691 -8.94963
336 1 20.4415 7.86211 20.4415 -8.94963
337 1 -9.77948e-14 9.43453 18.8691 -8.94963
338 1 3.14484 9.43453 18.8691 -8.94963
339 1 6.28969 9.43453 18.8691 -8.94963
340 1 9.43453 9.43453 18.8691 -8.94963
341 1 12.5794 9.43453 18.8691 -8.94963
342 1 15.7242 9.43453 18.8691 -8.94963
343 1 18.8691 9.43453 18.8691 -8.94963
344 1 1.57242 11.007 1.57242 -8.94963
345 1 4.71726 11.007 1.57242 -8.94963
346 1 7.86211 11.007 1.57242 -8.94963
347 1 11.007 11.007 1.57242 -8.94964
348 1 14.1518 11.007 1.57242 -8.94963
349 1 17.2966 11.007 1.57242 -8.94963
350 1 20.4415 11.007 1.57242 -8.94963
351 1 -9.7916e-14 12.5794 1.54838e-13 -8.94963
352 1 1.57242 14.1518 1.57242 -8.94963
353 1 3.14484 12.5794 -6.71281e-12 -8.94963
354 1 4.71726 14.1518 1.57242 -8.94963
355 1 6.28969 12.5794 -1.49531e-10 -8.94963
356 1 7.86211 14.1518 1.57242 -8.94963
357 1 9.43453 12.5794 -1.78925e-09 -8.94963
358 1 11.007 14.1518 1.57242 -8.94963
359 1 12.5794 12.5794 -6.19218e-10 -8.94963
360 1 14.1518 14.1518 1.57242 -8.94963
361 1 15.7242 12.5794 -2.41087e-11 -8.94963
362 1 17.2966 14.1518 1.57242 -8.94963
363 1 18.8691 12.5794 2.08936e-13 -8.94963
364 1 20.4415 14.1518 1.57242 -8.94963
365 1 -1.12105e-14 15.7242 7.37378e-15 -8.94963
366 1 1.57242 17.2966 1.57242 -8.94963
367 1 3.14484 15.7242 -1.28325e-13 -8.94963
368 1 4.71726 17.2966 1.57242 -8.94963
369 1 6.28969 15.7242 -1.53684e-11 -8.94963
370 1 7.86211 17.2966 1.57242 -8.94963
371 1 9.43453 15.7242 -3.82199e-11 -8.94963
372 1 11.007 17.2966 1.57242 -8.94963
373 1 12.5794 15.7242 1.77667e-11 -8.94963
374 1 14.1518 17.2966 1.57242 -8.94963
375 1 15.7242 15.7242 -5.39708e-12 -8.94963
376 1 17.2966 17.2966 1.57242 -8.94963
377 1 18.8691 15.7242 4.08811e-13 -8.94963
378 1 20.4415 17.2966 1.57242 -8.94963
379 1 4.62546e-16 18.8691 -8.84185e-16 -8.94963
380 1 1.57242 20.4415 1.57242 -8.94963
381 1 3.14484 18.8691 -1.08533e-14 -8.94963
382 1 4.71726 20.4415 1.57242 -8.94963
383 1 6.28969 18.8691 9.37249e-14 -8.94963
384 1 7.86211 20.4415 1.57242 -8.94963
385 1 9.43453 18.8691 -2.88809e-12 -8.94963
386 1 11.007 20.4415 1.57242 -8.94963
387 1 12.5794 18.8691 1.29503e-12 -8.94963
388 1 14.1518 20.4415 1.57242 -8.94963
389 1 15.7242 18.8691 5.24716e-13 -8.94963
390 1 17.2966 20.4415 1.57242 -8.94963
391 1 18.8691 18.8691 -1.85539e-14 -8.94963
392 1 20.4415 20.4415 1.57242 -8.94963
393 1 1.57242 11.007 4.71726 -8.94963
394 1 4.71726 11.007 4.71726 -8.94964
395 1 7.86211 11.007 4.71726 -8.94972
396 1 11.0069 11.007 4.71724 -8.95056
397 1 14.1518 11.007 4.71726 -8.94971
398 1 17.2966 11.007 4.71726 -8.94963
399 1 20.4415 11.007 4.71726 -8.94963
400 1 2.92628e-12 12.5794 3.14484 -8.94963
401 1 1.57242 14.1518 4.71726 -8.94963
402 1 3.14484 12.5794 3.14484 -8.94963
403 1 4.71726 14.1518 4.71726 -8.94963
404 1 6.28969 12.5794 3.14484 -8.94963
405 1 7.86211 14.1518 4.71726 -8.94963
406 1 9.43453 12.5794 3.14484 -8.94962
407 1 11.007 14.1518 4.71726 -8.94965
408 1 12.5794 12.5794 3.14484 -8.9496
409 1 14.1518 14.1518 4.71726 -8.94966
410 1 15.7242 12.5794 3.14484 -8.94963
411 1 17.2966 14.1518 4.71726 -8.94963
412 1 18.8691 12.5794 3.14484 -8.94963
413 1 20.4415 14.1518 4.71726 -8.94963
414 1 -6.52307e-13 15.7242 3.14484 -8.94963
415 1 1.57242 17.2966 4.71726 -8.94963
416 1 3.14484 15.7242 3.14484 -8.94963
417 1 4.71726 17.2966 4.71726 -8.94963
418 1 6.28969 15.7242 3.14484 -8.94963
419 1 7.86211 17.2966 4.71726 -8.94963
420 1 9.43453 15.7242 3.14484 -8.94963
421 1 11.007 17.2966 4.71726 -8.94963
422 1 12.5794 15.7242 3.14484 -8.94963
423 1 14.1518 17.2966 4.71726 -8.94963
424 1 15.7242 15.7242 3.14484 -8.94963
425 1 17.2966 17.2966 4.71726 -8.94963
426 1 18.8691 15.7242 3.14484 -8.94963
427 1 20.4415 17.2966 4.71726 -8.94963
428 1 3.17235e-14 18.8691 3.14484 -8.94963
429 1 1.57242 20.4415 4.71726 -8.94963
430 1 3.14484 18.8691 3.14484 -8.94963
431 1 4.71726 20.4415 4.71726 -8.94963
432 1 6.28969 18.8691 3.14484 -8.94963
433 1 7.86211 20.4415 4.71726 -8.94963
434 1 9.43453 18.8691 3.14484 -8.94963
435 1 11.007 20.4415 4.71726 -8.94963
436 1 12.5794 18.8691 3.14484 -8.94963
437 1 14.1518 20.4415 4.71726 -8.94963
438 1 15.7242 18.8691 3.14484 -8.94963
439 1 17.2966 20.4415 4.71726 -8.94963
440 1 18.8691 18.8691 3.14484 -8.94963
441 1 20.4415 20.4415 4.71726 -8.94963
442 1 1.57242 11.007 7.86211 -8.94963
443 1 4.71726 11.007 7.86211 -8.94976
444 1 7.86168 11.0069 7.86183 -8.98572
445 1 11.0083 11.007 7.85957 -9.29489
446 1 14.1517 11.0069 7.86218 -8.99569
447 1 17.2966 11.007 7.86211 -8.9496
448 1 20.4415 11.007 7.86211 -8.94963
449 1 -1.01801e-11 12.5794 6.28969 -8.94963
450 1 1.57242 14.1518 7.86211 -8.94963
451 1 3.14484 12.5794 6.28969 -8.94963
452 1 4.71726 14.1518 7.86211 -8.94965
453 1 6.28968 12.5794 6.28968 -8.94955
454 1 7.86217 14.1517 7.86214 -8.99476
455 1 9.43452 12.5794 6.28971 -9.00663
456 1 11.007 14.1517 7.86225 -9.05263
457 1 12.5793 12.5793 6.28979 -8.99498
458 1 14.1518 14.1518 7.8621 -8.94946
459 1 15.7242 12.5794 6.28969 -8.94966
460 1 17.2966 14.1518 7.86211 -8.94963
461 1 18.8691 12.5794 6.28969 -8.94963
462 1 20.4415 14.1518 7.86211 -8.94963
463 1 1.98483e-11 15.7242 6.28969 -8.94963
464 1 1.57242 17.2966 7.86211 -8.94963
465 1 3.14484 15.7242 6.28969 -8.94963
466 1 4.71726 17.2966 7.86211 -8.94963
467 1 6.28969 15.7242 6.28969 -8.94966
468 1 7.86211 17.2966 7.86211 -8.94963
469 1 9.43453 15.7242 6.28968 -8.9497
470 1 11.007 17.2966 7.86211 -8.9497
471 1 12.5794 15.7242 6.28969 -8.94965
472 1 14.1518 17.2966 7.86211 -8.94966
473 1 15.7242 15.7242 6.28969 -8.94963
474 1 17.2966 17.2966 7.86211 -8.94963
475 1 18.8691 15.7242 6.28969 -8.94963
476 1 20.4415 17.2966 7.86211 -8.94963
477 1 -5.18888e-13 18.8691 6.28969 -8.94963
478 1 1.57242 20.4415 7.86211 -8.94963
479 1 3.14484 18.8691 6.28969 -8.94963
480 1 4.71726 20.4415 7.86211 -8.94963
481 1 6.28969 18.8691 6.28969 -8.94963
482 1 7.86211 20.4415 7.86211 -8.94963
483 1 9.43453 18.8691 6.28969 -8.94963
484 1 11.007 20.4415 7.86211 -8.94963
485 1 12.5794 18.8691 6.28969 -8.94963
486 1 14.1518 20.4415 7.86211 -8.94963
487 1 15.7242 18.8691 6.28969 -8.94963
488 1 17.2966 20.4415 7.86211 -8.94963
489 1 18.8691 18.8691 6.28969 -8.94963
490 1 20.4415 20.4415 7.86211 -8.94963
491 1 1.6423e-09 12.5794 9.43453 -8.94963
492 1 3.14484 12.5794 9.43453 -8.9496
493 1 6.2898 12.5793 9.43453 -8.99588
494 1 9.43291 12.582 9.4341 -9.28479
495 1 12.5801 12.5796 9.43411 -9.02211
496 1 15.7242 12.5794 9.43453 -8.94986
497 1 18.8691 12.5794 9.43453 -8.94963
498 1 5.25582e-11 15.7242 9.43453 -8.94963
499 1 3.14484 15.7242 9.43453 -8.94963
500 1 6.28969 15.7242 9.43453 -8.94971
501 1 9.43457 15.7241 9.4346 -8.99581
502 1 12.5793 15.7241 9.4346 -8.99494
503 1 15.7242 15.7242 9.43453 -8.94964
504 1 18.8691 15.7242 9.43453 -8.94963
505 1 5.42382e-12 18.8691 9.43453 -8.94963
506 1 3.14484 18.8691 9.43453 -8.94963
507 1 6.28969 18.8691 9.43453 -8.94963
508 1 9.43453 18.8691 9.43453 -8.94961
509 1 12.5794 18.8691 9.43453 -8.9496
510 1 15.7242 18.8691 9.43453 -8.94963
511 1 18.8691 18.8691 9.43453 -8.94963
688 2 10.2206 11.007 9.43425 1.20512
512 1 1.57242 11.007 11.007 -8.94963
513 1 4.71726 11.007 11.007 -8.94975
514 1 7.86172 11.007 11.0072 -9.04262
515 1 11.0084 11.004 11.0084 -9.47479
516 1 14.1516 11.007 11.0069 -9.05265
517 1 17.2966 11.007 11.007 -8.94958
518 1 20.4415 11.007 11.007 -8.94963
519 1 1.57242 14.1518 11.007 -8.94963
520 1 4.71726 14.1518 11.007 -8.94964
521 1 7.8622 14.1517 11.0069 -9.05169
522 1 11.007 14.1544 11.0056 -9.30561
523 1 14.1518 14.1518 11.0069 -9.0064
524 1 17.2966 14.1518 11.007 -8.94962
525 1 20.4415 14.1518 11.007 -8.94963
526 1 1.57242 17.2966 11.007 -8.94963
527 1 4.71726 17.2966 11.007 -8.94963
528 1 7.86211 17.2966 11.007 -8.94965
529 1 11.007 17.2967 11.007 -8.95058
530 1 14.1518 17.2966 11.007 -8.94968
531 1 17.2966 17.2966 11.007 -8.94963
532 1 20.4415 17.2966 11.007 -8.94963
533 1 1.57242 20.4415 11.007 -8.94963
534 1 4.71726 20.4415 11.007 -8.94963
535 1 7.86211 20.4415 11.007 -8.94963
536 1 11.007 20.4415 11.007 -8.94964
537 1 14.1518 20.4415 11.007 -8.94963
538 1 17.2966 20.4415 11.007 -8.94963
539 1 20.4415 20.4415 11.007 -8.94963
540 1 1.57242 11.007 14.1518 -8.94963
541 1 4.71726 11.007 14.1518 -8.94961
542 1 7.86221 11.007 14.1517 -8.99493
543 1 11.0069 11.0067 14.1522 -8.98683
544 1 14.1517 11.007 14.1517 -8.99493
545 1 17.2966 11.007 14.1518 -8.9496
546 1 20.4415 11.007 14.1518 -8.94963
547 1 -1.01175e-11 12.5794 12.5794 -8.94963
548 1 1.57242 14.1518 14.1518 -8.94963
549 1 3.14484 12.5794 12.5794 -8.94964
550 1 4.71726 14.1518 14.1518 -8.9496
551 1 6.28966 12.5794 12.5794 -8.9505
552 1 7.86221 14.1518 14.1517 -8.99486
553 1 9.43186 12.5793 12.5807 -9.30567
554 1 11.007 14.1521 14.1522 -8.98586
555 1 12.582 12.5793 12.5806 -9.29391
556 1 14.1517 14.1518 14.1517 -8.99489
557 1 15.7242 12.5794 12.5794 -8.95061
558 1 17.2966 14.1518 14.1518 -8.9496
559 1 18.8691 12.5794 12.5794 -8.94964
560 1 20.4415 14.1518 14.1518 -8.94963
561 1 1.98505e-11 15.7242 12.5794 -8.94963
562 1 1.57242 17.2966 14.1518 -8.94963
563 1 3.14484 15.7242 12.5794 -8.94963
564 1 4.71726 17.2966 14.1518 -8.94963
565 1 6.28968 15.7242 12.5794 -8.94972
566 1 7.86211 17.2966 14.1518 -8.94963
567 1 9.43455 15.7242 12.5794 -9.00655
568 1 11.007 17.2966 14.1518 -8.94973
569 1 12.5794 15.7242 12.5794 -9.00649
570 1 14.1518 17.2966 14.1518 -8.94963
571 1 15.7242 15.7242 12.5794 -8.94968
572 1 17.2966 17.2966 14.1518 -8.94963
573 1 18.8691 15.7242 12.5794 -8.94963
574 1 20.4415 17.2966 14.1518 -8.94963
575 1 -5.19269e-13 18.8691 12.5794 -8.94963
576 1 1.57242 20.4415 14.1518 -8.94963
577 1 3.14484 18.8691 12.5794 -8.94963
578 1 4.71726 20.4415 14.1518 -8.94963
579 1 6.28969 18.8691 12.5794 -8.94963
580 1 7.86211 20.4415 14.1518 -8.94963
581 1 9.43453 18.8691 12.5794 -8.94962
582 1 11.007 20.4415 14.1518 -8.94963
583 1 12.5794 18.8691 12.5794 -8.94962
584 1 14.1518 20.4415 14.1518 -8.94963
585 1 15.7242 18.8691 12.5794 -8.94963
586 1 17.2966 20.4415 14.1518 -8.94963
587 1 18.8691 18.8691 12.5794 -8.94963
588 1 20.4415 20.4415 14.1518 -8.94963
589 1 1.57242 11.007 17.2966 -8.94963
590 1 4.71726 11.007 17.2966 -8.94963
591 1 7.86211 11.007 17.2966 -8.94965
592 1 11.007 11.007 17.2966 -8.94977
593 1 14.1518 11.007 17.2966 -8.94965
594 1 17.2966 11.007 17.2966 -8.94963
595 1 20.4415 11.007 17.2966 -8.94963
596 1 2.91077e-12 12.5794 15.7242 -8.94963
597 1 1.57242 14.1518 17.2966 -8.94963
598 1 3.14484 12.5794 15.7242 -8.94963
599 1 4.71726 14.1518 17.2966 -8.94963
600 1 6.28969 12.5794 15.7242 -8.94971
601 1 7.86211 14.1518 17.2966 -8.94965
602 1 9.4346 12.5794 15.7241 -8.99577
603 1 11.007 14.1518 17.2966 -8.94976
604 1 12.5793 12.5794 15.7241 -8.99576
605 1 14.1518 14.1518 17.2966 -8.94965
606 1 15.7242 12.5794 15.7242 -8.94971
607 1 17.2966 14.1518 17.2966 -8.94963
608 1 18.8691 12.5794 15.7242 -8.94963
609 1 20.4415 14.1518 17.2966 -8.94963
610 1 -6.53136e-13 15.7242 15.7242 -8.94963
611 1 1.57242 17.2966 17.2966 -8.94963
612 1 3.14484 15.7242 15.7242 -8.94963
613 1 4.71726 17.2966 17.2966 -8.94963
614 1 6.28969 15.7242 15.7242 -8.94966
615 1 7.86211 17.2966 17.2966 -8.94963
616 1 9.43453 15.7242 15.7242 -8.94954
617 1 11.007 17.2966 17.2966 -8.94964
618 1 12.5794 15.7242 15.7242 -8.94954
619 1 14.1518 17.2966 17.2966 -8.94963
620 1 15.7242 15.7242 15.7242 -8.94966
621 1 17.2966 17.2966 17.2966 -8.94963
622 1 18.8691 15.7242 15.7242 -8.94963
623 1 20.4415 17.2966 17.2966 -8.94963
624 1 3.16708e-14 18.8691 15.7242 -8.94963
625 1 1.57242 20.4415 17.2966 -8.94963
626 1 3.14484 18.8691 15.7242 -8.94963
627 1 4.71726 20.4415 17.2966 -8.94963
628 1 6.28969 18.8691 15.7242 -8.94963
629 1 7.86211 20.4415 17.2966 -8.94963
630 1 9.43453 18.8691 15.7242 -8.94963
631 1 11.007 20.4415 17.2966 -8.94963
632 1 12.5794 18.8691 15.7242 -8.94963
633 1 14.1518 20.4415 17.2966 -8.94963
634 1 15.7242 18.8691 15.7242 -8.94963
635 1 17.2966 20.4415 17.2966 -8.94963
636 1 18.8691 18.8691 15.7242 -8.94963
637 1 20.4415 20.4415 17.2966 -8.94963
638 1 1.57242 11.007 20.4415 -8.94963
639 1 4.71726 11.007 20.4415 -8.94963
640 1 7.86211 11.007 20.4415 -8.94963
641 1 11.007 11.007 20.4415 -8.94963
642 1 14.1518 11.007 20.4415 -8.94963
643 1 17.2966 11.007 20.4415 -8.94963
644 1 20.4415 11.007 20.4415 -8.94963
645 1 -9.94041e-14 12.5794 18.8691 -8.94963
646 1 1.57242 14.1518 20.4415 -8.94963
647 1 3.14484 12.5794 18.8691 -8.94963
648 1 4.71726 14.1518 20.4415 -8.94963
649 1 6.28969 12.5794 18.8691 -8.94963
650 1 7.86211 14.1518 20.4415 -8.94963
651 1 9.43453 12.5794 18.8691 -8.9496
652 1 11.007 14.1518 20.4415 -8.94963
653 1 12.5794 12.5794 18.8691 -8.9496
654 1 14.1518 14.1518 20.4415 -8.94963
655 1 15.7242 12.5794 18.8691 -8.94963
656 1 17.2966 14.1518 20.4415 -8.94963
657 1 18.8691 12.5794 18.8691 -8.94963
658 1 20.4415 14.1518 20.4415 -8.94963
659 1 -1.13283e-14 15.7242 18.8691 -8.94963
660 1 1.57242 17.2966 20.4415 -8.94963
661 1 3.14484 15.7242 18.8691 -8.94963
662 1 4.71726 17.2966 20.4415 -8.94963
663 1 6.28969 15.7242 18.8691 -8.94963
664 1 7.86211 17.2966 20.4415 -8.94963
665 1 9.43453 15.7242 18.8691 -8.94963
666 1 11.007 17.2966 20.4415 -8.94963
667 1 12.5794 15.7242 18.8691 -8.94963
668 1 14.1518 17.2966 20.4415 -8.94963
669 1 15.7242 15.7242 18.8691 -8.94963
670 1 17.2966 17.2966 20.4415 -8.94963
671 1 18.8691 15.7242 18.8691 -8.94963
672 1 20.4415 17.2966 20.4415 -8.94963
673 1 4.59503e-16 18.8691 18.8691 -8.94963
674 1 1.57242 20.4415 20.4415 -8.94963
675 1 3.14484 18.8691 18.8691 -8.94963
676 1 4.71726 20.4415 20.4415 -8.94963
677 1 6.28969 18.8691 18.8691 -8.94963
678 1 7.86211 20.4415 20.4415 -8.94963
679 1 9.43453 18.8691 18.8691 -8.94963
680 1 11.007 20.4415 20.4415 -8.94963
681 1 12.5794 18.8691 18.8691 -8.94963
682 1 14.1518 20.4415 20.4415 -8.94963
683 1 15.7242 18.8691 18.8691 -8.94963
684 1 17.2966 20.4415 20.4415 -8.94963
685 1 18.8691 18.8691 18.8691 -8.94963
686 1 20.4415 20.4415 20.4415 -8.94963
687 2 11.007 12.5796 11.7933 1.20508
