ITEM: TIMESTEP
46
ITEM: NUMBER OF ATOMS
688
ITEM: BOX BOUNDS pp pp pp
0.0000000000000000e+00 2.2013900999999997e+01
0.0000000000000000e+00 2.2013900999999997e+01
0.0000000000000000e+00 2.2013900999999997e+01
ITEM: ATOMS id type x y z c_pot
175 1 18.8691 9.43451 9.43451 -8.94981
2 1 1.57242 1.57242 1.57242 -8.94963
517 1 17.2969 11.0067 11.0067 -8.94834
4 1 4.71726 1.57242 1.57242 -8.94963
174 1 15.7252 9.43432 9.4344 -8.95133
6 1 7.86211 1.57242 1.57242 -8.94963
448 1 20.4415 11.007 7.8621 -8.94965
8 1 11.007 1.57242 1.57242 -8.94963
9 1 12.5794 1.51023e-08 -7.8679e-09 -8.94963
10 1 14.1518 1.57242 1.57242 -8.94963
173 1 12.5878 9.42868 9.43247 -9.01543
12 1 17.2966 1.57242 1.57242 -8.94963
13 1 18.8691 2.41554e-09 3.87782e-08 -8.94963
14 1 20.4415 1.57242 1.57242 -8.94963
447 1 17.2967 11.0069 7.86203 -8.9494
16 1 1.57242 4.71726 1.57242 -8.94963
17 1 3.14484 3.14484 3.74423e-08 -8.94963
18 1 4.71726 4.71726 1.57242 -8.94963
446 1 14.1521 11.0066 7.8624 -8.99951
20 1 7.86211 4.71726 1.57242 -8.94964
21 1 9.43453 3.14484 -8.95646e-08 -8.94963
22 1 11.007 4.71726 1.57242 -8.94963
23 1 12.5794 3.14484 -1.27421e-07 -8.94963
24 1 14.1518 4.71727 1.57242 -8.94965
444 1 7.85628 11.0066 7.85723 -8.98137
26 1 17.2966 4.71726 1.57242 -8.94963
27 1 18.8691 3.14484 -4.02958e-09 -8.94963
28 1 20.4415 4.71726 1.57242 -8.94963
29 1 3.38299e-08 6.28969 -9.04079e-09 -8.94963
30 1 1.57242 7.86211 1.57242 -8.94964
443 1 4.71653 11.0069 7.86197 -8.95106
32 1 4.71726 7.8621 1.57241 -8.94963
33 1 6.28968 6.28968 -1.3657e-06 -8.94962
34 1 7.86209 7.86208 1.57238 -8.94961
442 1 1.57237 11.007 7.86212 -8.94985
36 1 11.0069 7.86211 1.57243 -8.9496
397 1 14.1516 11.0069 4.71747 -8.95019
38 1 14.1518 7.86208 1.57239 -8.94958
39 1 15.7242 6.28968 -1.50824e-06 -8.94962
40 1 17.2966 7.86211 1.57242 -8.94965
396 1 11.007 11.0069 4.71207 -8.96149
42 1 20.4415 7.86211 1.57242 -8.94963
395 1 7.86199 11.0069 4.71668 -8.95102
44 1 3.14484 9.43453 1.74725e-07 -8.94963
350 1 20.4415 11.007 1.57242 -8.94963
518 1 20.4415 11.0069 11.0069 -8.94963
47 1 12.5794 9.43451 -1.9994e-05 -8.94969
348 1 14.1518 11.0069 1.57244 -8.94953
49 1 18.8691 9.43453 -2.49867e-07 -8.94963
172 1 9.41115 9.38909 9.43383 -9.25174
51 1 1.57242 1.57242 4.71726 -8.94963
171 1 6.28979 9.43549 9.43443 -9.00108
53 1 4.71726 1.57242 4.71726 -8.94962
54 1 6.28969 -3.17793e-07 3.14484 -8.94964
55 1 7.86211 1.57242 4.71727 -8.94964
170 1 3.14482 9.43447 9.43451 -8.94922
57 1 11.0069 1.57242 4.71727 -8.94964
169 1 3.97667e-06 9.43452 9.43453 -8.94963
59 1 14.1518 1.57242 4.71726 -8.94963
60 1 15.7242 -3.25035e-07 3.14484 -8.94963
61 1 17.2966 1.57242 4.71726 -8.94963
168 1 18.8691 6.28968 9.43453 -8.94963
63 1 20.4415 1.57242 4.71726 -8.94963
64 1 2.25584e-07 3.14484 3.14484 -8.94963
65 1 1.57242 4.71727 4.71727 -8.94964
66 1 3.14484 3.14484 3.14484 -8.94962
67 1 4.71725 4.71724 4.71725 -8.94952
68 1 6.28969 3.14484 3.14484 -8.94965
69 1 7.86213 4.71728 4.71727 -8.94982
70 1 9.43453 3.14484 3.14484 -8.94963
71 1 11.0069 4.71727 4.71725 -8.94963
72 1 12.5794 3.14484 3.14484 -8.94964
73 1 14.1518 4.71725 4.71725 -8.94965
74 1 15.7242 3.14484 3.14484 -8.94963
75 1 17.2966 4.71726 4.71726 -8.9496
76 1 18.8691 3.14484 3.14484 -8.94963
77 1 20.4415 4.71726 4.71726 -8.94963
78 1 22.0139 6.28969 3.14484 -8.94963
79 1 1.57241 7.8621 4.71726 -8.94962
80 1 3.14484 6.28968 3.14484 -8.9496
81 1 4.71718 7.86202 4.7172 -8.94935
82 1 6.28967 6.28967 3.14482 -8.94964
83 1 7.86202 7.86201 4.71695 -8.95019
84 1 9.43454 6.28967 3.14485 -8.94963
85 1 11.0068 7.86222 4.71731 -8.95012
86 1 12.5794 6.28969 3.14486 -8.94979
87 1 14.152 7.86187 4.71701 -8.94874
88 1 15.7242 6.28967 3.14482 -8.94954
89 1 17.2966 7.86211 4.71727 -8.94971
90 1 18.8691 6.28969 3.14484 -8.94964
91 1 20.4415 7.86211 4.71726 -8.94963
92 1 1.20049e-07 9.43453 3.14484 -8.94963
93 1 3.14484 9.43453 3.14484 -8.94966
94 1 6.28963 9.4345 3.14475 -8.94978
95 1 9.43431 9.43429 3.14457 -8.94866
96 1 12.5796 9.43429 3.14452 -8.94918
97 1 15.7242 9.43456 3.14487 -8.94976
98 1 18.8691 9.43453 3.14484 -8.94963
99 1 -3.57484e-08 1.57507e-09 6.28969 -8.94963
100 1 1.57242 1.57242 7.86211 -8.94963
101 1 3.14484 -3.79857e-08 6.28969 -8.94964
102 1 4.71727 1.57243 7.86211 -8.94964
167 1 15.7243 6.28966 9.43454 -8.94961
104 1 7.86209 1.57239 7.86209 -8.94966
105 1 9.43453 -4.57403e-06 6.28969 -8.94962
106 1 11.007 1.57239 7.86209 -8.94961
107 1 12.5794 -4.74554e-06 6.28968 -8.94964
108 1 14.1518 1.57242 7.8621 -8.94966
166 1 12.5797 6.28882 9.43424 -8.95022
110 1 17.2966 1.57242 7.86211 -8.94963
111 1 18.8691 -5.18615e-08 6.28969 -8.94963
112 1 20.4415 1.57242 7.86211 -8.94963
113 1 22.0139 3.14484 6.28969 -8.94963
114 1 1.57242 4.71726 7.86211 -8.94963
115 1 3.14485 3.14485 6.28969 -8.94966
116 1 4.71728 4.71731 7.86214 -8.94979
117 1 6.28966 3.1448 6.28966 -8.94957
118 1 7.86183 4.7169 7.86183 -8.94904
119 1 9.43453 3.14486 6.28969 -8.94961
120 1 11.0072 4.71701 7.86187 -8.94853
121 1 12.5794 3.14481 6.28966 -8.94961
122 1 14.1519 4.71714 7.86206 -8.94971
123 1 15.7242 3.14483 6.28968 -8.94962
124 1 17.2966 4.71727 7.86211 -8.94967
125 1 18.8691 3.14484 6.28969 -8.94964
126 1 20.4415 4.71726 7.86211 -8.94963
127 1 2.5223e-06 6.28969 6.28969 -8.94963
128 1 1.57243 7.86211 7.86211 -8.94963
129 1 3.14485 6.2897 6.2897 -8.94973
130 1 4.7172 7.8622 7.86219 -8.95048
131 1 6.28944 6.28941 6.28942 -8.94856
132 1 7.85964 7.86027 7.85894 -8.98177
133 1 9.43467 6.28975 6.28981 -8.95041
134 1 11.0084 7.86211 7.86171 -9.00296
135 1 12.5794 6.2894 6.2896 -8.95026
136 1 14.1528 7.86117 7.86148 -8.94727
137 1 15.7243 6.2896 6.28959 -8.94928
138 1 17.2968 7.86205 7.86206 -8.94971
139 1 18.8691 6.28968 6.28968 -8.94962
140 1 20.4415 7.8621 7.8621 -8.94964
141 1 22.0139 9.43453 6.28968 -8.94966
142 1 3.14473 9.43449 6.28964 -8.94973
143 1 6.28882 9.43407 6.28892 -8.94803
144 1 9.43322 9.43392 6.28942 -9.00363
145 1 12.5816 9.43165 6.288 -8.98338
146 1 15.7243 9.43455 6.28972 -8.95026
147 1 18.8691 9.43453 6.28968 -8.94965
165 1 9.4342 6.28389 9.43425 -8.96102
164 1 6.28992 6.28999 9.43455 -8.95031
150 1 6.28969 -2.0632e-06 9.43453 -8.94961
163 1 3.14486 6.28968 9.43453 -8.94954
162 1 22.0139 6.28969 9.43453 -8.94963
153 1 15.7242 -2.24895e-06 9.43453 -8.94964
161 1 18.8691 3.14484 9.43453 -8.94963
155 1 -1.23971e-07 3.14484 9.43453 -8.94963
156 1 3.14484 3.14484 9.43453 -8.94963
157 1 6.28969 3.14488 9.43453 -8.94953
158 1 9.43451 3.14438 9.43451 -8.95121
159 1 12.5794 3.14477 9.43451 -8.94977
160 1 15.7242 3.14484 9.43453 -8.94962
344 1 1.57242 11.007 1.57242 -8.94964
345 1 4.71726 11.007 1.57242 -8.94961
346 1 7.86211 11.0069 1.57238 -8.94977
347 1 11.0069 11.0069 1.57201 -8.95111
513 1 4.71633 11.0067 11.0068 -8.94993
181 1 17.2966 1.57242 11.007 -8.94963
188 1 17.2966 4.71726 11.0069 -8.94966
190 1 1.57243 7.86211 11.0069 -8.94965
191 1 4.71723 7.8622 11.0069 -8.95048
192 1 7.85999 7.86054 11.01 -8.98249
193 1 11.0085 7.85501 11.0078 -9.0159
512 1 1.57235 11.0069 11.0069 -8.94983
177 1 4.71727 1.57243 11.0069 -8.94963
184 1 4.71728 4.7173 11.0069 -8.94977
189 1 20.4415 4.71726 11.007 -8.94963
7 1 9.43453 1.55761e-08 8.1371e-09 -8.94963
643 1 17.2966 11.007 20.4415 -8.94963
644 1 20.4415 11.007 20.4415 -8.94963
178 1 7.86209 1.57239 11.007 -8.94965
179 1 11.007 1.57239 11.007 -8.94989
180 1 14.1518 1.57242 11.0069 -8.94965
639 1 4.71726 11.007 20.4415 -8.94963
182 1 20.4415 1.57242 11.007 -8.94963
183 1 1.57242 4.71726 11.007 -8.94963
638 1 1.57242 11.007 20.4415 -8.94963
185 1 7.86186 4.71694 11.0072 -8.94908
186 1 11.0072 4.71645 11.0072 -8.95055
187 1 14.1518 4.71718 11.007 -8.94978
48 1 15.7242 9.43453 22.0139 -8.94963
35 1 9.43453 6.28969 22.0139 -8.94964
46 1 9.43451 9.43451 22.0139 -8.94966
45 1 6.28969 9.43453 22.0139 -8.94966
43 1 22.0139 9.43453 22.0139 -8.94963
546 1 20.4415 11.0069 14.1518 -8.94966
194 1 14.1526 7.86133 11.0074 -8.949
195 1 17.2967 7.86205 11.007 -8.94974
196 1 20.4415 7.86211 11.007 -8.94966
197 1 -3.4603e-08 -1.02571e-08 12.5794 -8.94963
198 1 1.57242 1.57242 14.1518 -8.94963
343 1 18.8691 9.43453 18.8691 -8.94965
200 1 4.71726 1.57242 14.1518 -8.94962
41 1 18.8691 6.28969 22.0139 -8.94964
202 1 7.86211 1.57242 14.1518 -8.94964
203 1 9.43451 3.08625e-05 12.5794 -8.94963
204 1 11.0069 1.57242 14.1518 -8.94965
205 1 12.5794 3.07232e-05 12.5794 -8.94964
206 1 14.1518 1.57242 14.1518 -8.94963
37 1 12.5794 6.28969 22.0139 -8.94964
208 1 17.2966 1.57242 14.1518 -8.94963
342 1 15.7242 9.43455 18.869 -8.94973
210 1 20.4415 1.57242 14.1518 -8.94963
211 1 22.0139 3.14484 12.5794 -8.94963
212 1 1.57242 4.71727 14.1518 -8.94964
213 1 3.14485 3.14485 12.5794 -8.94965
214 1 4.71725 4.71724 14.1518 -8.94954
215 1 6.28966 3.14481 12.5794 -8.94958
216 1 7.86209 4.71723 14.1518 -8.94976
217 1 9.43451 3.14481 12.5794 -8.94962
218 1 11.0069 4.71722 14.1518 -8.94977
219 1 12.5794 3.14476 12.5794 -8.94963
220 1 14.1518 4.71719 14.1518 -8.94959
221 1 15.7242 3.14484 12.5794 -8.94964
222 1 17.2966 4.71726 14.1518 -8.94962
223 1 18.8691 3.14484 12.5794 -8.94964
224 1 20.4415 4.71726 14.1518 -8.94963
225 1 2.54189e-06 6.28969 12.5794 -8.94964
226 1 1.57241 7.8621 14.1518 -8.94963
227 1 3.14484 6.2897 12.5794 -8.94973
228 1 4.7172 7.86203 14.1518 -8.94956
229 1 6.28943 6.28944 12.5796 -8.94868
230 1 7.86182 7.8616 14.1523 -8.9502
231 1 9.43434 6.28932 12.5795 -8.94928
232 1 11.0068 7.86161 14.152 -8.95164
233 1 12.5798 6.28893 12.5798 -8.94919
234 1 14.1523 7.86141 14.1523 -8.9485
235 1 15.7243 6.28963 12.5794 -8.94939
236 1 17.2966 7.86212 14.1518 -8.94991
237 1 18.8691 6.28968 12.5794 -8.94962
238 1 20.4415 7.86211 14.1518 -8.94964
239 1 22.0139 9.43453 12.5794 -8.94964
240 1 3.14475 9.4345 12.5794 -8.94971
241 1 6.28887 9.43426 12.58 -8.94909
242 1 9.43174 9.43269 12.5819 -9.05257
243 1 12.5835 9.42988 12.5835 -9.02857
244 1 15.7243 9.43473 12.5792 -8.9514
245 1 18.869 9.43454 12.5794 -8.94963
341 1 12.5794 9.43447 18.8692 -8.94978
247 1 1.57242 1.57242 17.2966 -8.94963
248 1 3.14484 -9.67487e-08 15.7242 -8.94963
249 1 4.71726 1.57242 17.2966 -8.94963
340 1 9.43448 9.43447 18.8692 -8.94975
251 1 7.86211 1.57242 17.2966 -8.94964
252 1 9.43453 4.84287e-06 15.7242 -8.94966
253 1 11.007 1.57242 17.2966 -8.94963
254 1 12.5794 4.85766e-06 15.7242 -8.94966
255 1 14.1518 1.57242 17.2966 -8.94964
339 1 6.2897 9.43454 18.8691 -8.94976
257 1 17.2966 1.57242 17.2966 -8.94963
258 1 18.8691 -9.12104e-08 15.7242 -8.94963
259 1 20.4415 1.57242 17.2966 -8.94963
260 1 2.26807e-07 3.14484 15.7242 -8.94963
261 1 1.57242 4.71726 17.2966 -8.94963
262 1 3.14484 3.14484 15.7242 -8.94963
263 1 4.71726 4.71726 17.2966 -8.94963
264 1 6.28968 3.14484 15.7242 -8.94964
265 1 7.8621 4.71726 17.2966 -8.94965
266 1 9.43453 3.14484 15.7242 -8.94965
267 1 11.007 4.71726 17.2966 -8.94961
268 1 12.5794 3.14484 15.7242 -8.94967
269 1 14.1518 4.71726 17.2966 -8.94966
270 1 15.7242 3.14484 15.7242 -8.94962
271 1 17.2966 4.71726 17.2966 -8.94962
272 1 18.8691 3.14484 15.7242 -8.94963
273 1 20.4415 4.71726 17.2966 -8.94963
274 1 22.0139 6.28969 15.7242 -8.94963
275 1 1.57242 7.86211 17.2966 -8.94963
276 1 3.14484 6.28968 15.7242 -8.94962
277 1 4.71724 7.86209 17.2967 -8.94953
278 1 6.28965 6.28964 15.7243 -8.94958
279 1 7.862 7.86202 17.2968 -8.94936
280 1 9.43452 6.28958 15.7243 -8.94977
281 1 11.0069 7.86207 17.2967 -8.94944
282 1 12.5794 6.2896 15.7243 -8.94995
283 1 14.1519 7.86202 17.2968 -8.94934
284 1 15.7243 6.28964 15.7243 -8.94946
285 1 17.2967 7.8621 17.2966 -8.94956
286 1 18.8691 6.28969 15.7242 -8.94966
287 1 20.4415 7.86211 17.2966 -8.94962
288 1 4.09888e-08 9.43453 15.7242 -8.94963
289 1 3.14481 9.4345 15.7242 -8.9496
290 1 6.28938 9.43426 15.7245 -8.94879
291 1 9.43391 9.43359 15.7254 -8.94747
292 1 12.58 9.43358 15.7254 -8.948
293 1 15.7244 9.43432 15.7244 -8.94885
294 1 18.8691 9.4345 15.7242 -8.94957
295 1 1.44623e-09 4.63704e-09 18.8691 -8.94963
296 1 1.57242 1.57242 20.4415 -8.94963
338 1 3.14485 9.43453 18.8691 -8.94965
298 1 4.71726 1.57242 20.4415 -8.94963
299 1 6.28969 6.53507e-07 18.8691 -8.94963
300 1 7.86211 1.57242 20.4415 -8.94963
337 1 22.0139 9.43453 18.8691 -8.94963
302 1 11.007 1.57242 20.4415 -8.94963
336 1 20.4415 7.86211 20.4415 -8.94963
304 1 14.1518 1.57242 20.4415 -8.94963
305 1 15.7242 6.62076e-07 18.8691 -8.94963
306 1 17.2966 1.57242 20.4415 -8.94963
335 1 18.8691 6.28969 18.8691 -8.94963
308 1 20.4415 1.57242 20.4415 -8.94963
309 1 22.0139 3.14484 18.8691 -8.94963
310 1 1.57242 4.71726 20.4415 -8.94963
311 1 3.14484 3.14484 18.8691 -8.94963
312 1 4.71726 4.71726 20.4415 -8.94963
313 1 6.28969 3.14484 18.8691 -8.94963
314 1 7.86211 4.71727 20.4415 -8.94964
315 1 9.43453 3.14484 18.8691 -8.94963
316 1 11.007 4.71726 20.4415 -8.94964
317 1 12.5794 3.14484 18.8691 -8.94963
318 1 14.1518 4.71727 20.4415 -8.94964
319 1 15.7242 3.14484 18.8691 -8.94963
320 1 17.2966 4.71726 20.4415 -8.94963
321 1 18.8691 3.14484 18.8691 -8.94963
322 1 20.4415 4.71726 20.4415 -8.94963
323 1 2.44268e-08 6.28969 18.8691 -8.94963
324 1 1.57242 7.86211 20.4415 -8.94963
325 1 3.14484 6.28968 18.8691 -8.94962
326 1 4.71727 7.86211 20.4415 -8.94965
327 1 6.28968 6.28968 18.8691 -8.9496
328 1 7.8621 7.8621 20.4415 -8.94963
329 1 9.43453 6.28969 18.8691 -8.94966
330 1 11.007 7.8621 20.4415 -8.9496
331 1 12.5794 6.28969 18.8691 -8.94966
332 1 14.1518 7.8621 20.4415 -8.94963
333 1 15.7242 6.28968 18.8691 -8.94959
334 1 17.2966 7.86211 20.4415 -8.94965
545 1 17.2969 11.0067 14.152 -8.94898
543 1 11.0071 11.0025 14.1624 -8.99843
515 1 11.0321 10.9537 11.0336 -9.44391
541 1 4.71689 11.0067 14.1521 -8.94895
540 1 1.57239 11.0069 14.1518 -8.94964
31 1 3.14484 6.28969 22.0139 -8.94963
15 1 22.0139 3.14484 22.0139 -8.94963
19 1 6.28969 3.14484 22.0139 -8.94963
25 1 15.7242 3.14484 22.0139 -8.94963
3 1 3.14484 1.43138e-09 22.0139 -8.94963
176 1 1.57242 1.57242 11.007 -8.94963
688 2 10.2151 11.0098 9.42479 0.852782
511 1 18.8691 18.8691 9.43453 -8.94965
510 1 15.7242 18.8691 9.43454 -8.94978
509 1 12.5796 18.8694 9.43428 -8.94929
508 1 9.43428 18.8698 9.43428 -8.95069
507 1 6.28969 18.869 9.43455 -8.94969
506 1 3.14484 18.8691 9.43453 -8.94964
349 1 17.2966 11.007 1.57242 -8.94963
352 1 1.57242 14.1518 1.57242 -8.94964
154 1 18.8691 22.0139 9.43453 -8.94963
354 1 4.71726 14.1518 1.57241 -8.94964
152 1 12.5794 22.0139 9.43451 -8.94968
356 1 7.86208 14.1518 1.57237 -8.94963
151 1 9.43451 22.0139 9.43451 -8.94989
358 1 11.007 14.1518 1.57243 -8.94959
149 1 3.14484 22.0139 9.43453 -8.94963
360 1 14.1518 14.1518 1.57238 -8.9496
361 1 15.7242 12.5794 2.78812e-06 -8.94963
362 1 17.2966 14.1518 1.57243 -8.94965
537 1 14.1518 20.4415 11.007 -8.94963
364 1 20.4415 14.1518 1.57242 -8.94963
148 1 1.81814e-08 22.0139 9.43453 -8.94963
366 1 1.57242 17.2966 1.57242 -8.94963
109 1 15.7242 22.0139 6.28968 -8.94963
368 1 4.71726 17.2966 1.57242 -8.94963
103 1 6.28968 22.0139 6.28968 -8.94963
370 1 7.86211 17.2966 1.57243 -8.94965
371 1 9.43453 15.7242 9.52635e-06 -8.94966
372 1 11.007 17.2966 1.57242 -8.94963
373 1 12.5794 15.7242 9.96462e-06 -8.94966
374 1 14.1518 17.2966 1.57243 -8.94966
62 1 18.8691 22.0139 3.14484 -8.94963
376 1 17.2966 17.2966 1.57242 -8.94962
377 1 18.8691 15.7242 3.39065e-07 -8.94963
378 1 20.4415 17.2966 1.57242 -8.94963
379 1 22.0139 18.8691 -2.13626e-08 -8.94963
380 1 1.57242 20.4415 1.57242 -8.94963
58 1 12.5794 22.0139 3.14484 -8.94963
382 1 4.71726 20.4415 1.57242 -8.94963
383 1 6.28969 18.8691 1.3726e-06 -8.94963
384 1 7.86211 20.4415 1.57242 -8.94963
56 1 9.43453 22.0139 3.14484 -8.94963
386 1 11.007 20.4415 1.57242 -8.94963
52 1 3.14484 22.0139 3.14484 -8.94963
388 1 14.1518 20.4415 1.57242 -8.94963
389 1 15.7242 18.8691 1.33407e-06 -8.94963
390 1 17.2966 20.4415 1.57242 -8.94963
50 1 22.0139 22.0139 3.14484 -8.94963
392 1 20.4415 20.4415 1.57242 -8.94963
393 1 1.57242 11.007 4.71726 -8.94961
394 1 4.71722 11.0069 4.71723 -8.94948
505 1 -1.1919e-07 18.8691 9.43453 -8.94964
504 1 18.8691 15.7242 9.43451 -8.94959
503 1 15.7246 15.7244 9.43441 -8.94991
398 1 17.2966 11.007 4.71726 -8.94955
399 1 20.4415 11.007 4.71726 -8.94963
400 1 1.22014e-07 12.5794 3.14484 -8.94963
401 1 1.57241 14.1518 4.71726 -8.94962
402 1 3.14484 12.5794 3.14484 -8.94966
403 1 4.71719 14.1519 4.7172 -8.94941
404 1 6.28964 12.5794 3.14475 -8.94977
405 1 7.86196 14.1519 4.71683 -8.9502
406 1 9.43432 12.5796 3.14451 -8.94888
407 1 11.0068 14.1517 4.71729 -8.94987
408 1 12.5796 12.5796 3.14446 -8.94938
409 1 14.1521 14.1521 4.7169 -8.9487
410 1 15.7242 12.5793 3.14488 -8.94976
411 1 17.2966 14.1518 4.71728 -8.94976
412 1 18.8691 12.5794 3.14484 -8.94963
413 1 20.4415 14.1518 4.71727 -8.94963
414 1 22.0139 15.7242 3.14484 -8.94963
415 1 1.57242 17.2966 4.71727 -8.94964
416 1 3.14484 15.7242 3.14484 -8.94961
417 1 4.71724 17.2967 4.71724 -8.94949
418 1 6.28967 15.7242 3.14481 -8.94962
419 1 7.86214 17.2966 4.71727 -8.94989
420 1 9.43455 15.7242 3.14485 -8.94964
421 1 11.0069 17.2966 4.71726 -8.94952
422 1 12.5793 15.7242 3.14486 -8.94981
423 1 14.1518 17.2967 4.71725 -8.94973
424 1 15.7242 15.7242 3.14481 -8.94952
425 1 17.2966 17.2966 4.71725 -8.94958
426 1 18.8691 15.7242 3.14484 -8.94965
427 1 20.4415 17.2966 4.71726 -8.94963
428 1 2.16369e-07 18.8691 3.14484 -8.94963
429 1 1.57242 20.4415 4.71726 -8.94963
430 1 3.14484 18.8691 3.14484 -8.94962
431 1 4.71726 20.4415 4.71726 -8.94961
432 1 6.28969 18.8691 3.14484 -8.94966
433 1 7.86211 20.4415 4.71727 -8.94966
434 1 9.43453 18.8691 3.14484 -8.94962
435 1 11.0069 20.4415 4.71726 -8.94964
436 1 12.5794 18.8691 3.14484 -8.94964
437 1 14.1518 20.4415 4.71726 -8.94965
438 1 15.7242 18.8691 3.14484 -8.94964
439 1 17.2966 20.4415 4.71726 -8.94962
440 1 18.8691 18.8691 3.14484 -8.94963
441 1 20.4415 20.4415 4.71726 -8.94963
502 1 12.5826 15.7265 9.43211 -8.98334
501 1 9.43144 15.7313 9.43221 -8.99478
500 1 6.28957 15.7241 9.43442 -8.95052
445 1 11.0293 11.0084 7.81931 -9.27065
499 1 3.14481 15.7243 9.43451 -8.94951
498 1 22.0139 15.7242 9.43453 -8.94964
497 1 18.8691 12.5794 9.43454 -8.94995
449 1 22.0139 12.5794 6.28968 -8.94965
450 1 1.57242 14.1518 7.86211 -8.94967
451 1 3.14474 12.5794 6.28964 -8.94971
452 1 4.71712 14.1517 7.86216 -8.95066
453 1 6.28883 12.5797 6.28894 -8.94813
454 1 7.85902 14.154 7.85822 -8.98121
455 1 9.433 12.5801 6.2887 -9.00426
456 1 11.0085 14.1512 7.86171 -9.05433
457 1 12.5818 12.5824 6.28733 -8.98372
458 1 14.1533 14.1529 7.86092 -8.94693
459 1 15.7243 12.5793 6.28975 -8.95036
460 1 17.2968 14.1519 7.86203 -8.94987
461 1 18.8691 12.5794 6.28968 -8.94962
462 1 20.4415 14.1518 7.86211 -8.94968
463 1 2.41737e-06 15.7242 6.28969 -8.94964
464 1 1.57242 17.2966 7.86211 -8.94962
465 1 3.14484 15.7242 6.28969 -8.94974
466 1 4.71725 17.2966 7.86213 -8.94976
467 1 6.28937 15.7246 6.28934 -8.94832
468 1 7.86161 17.2972 7.86161 -8.94813
469 1 9.43473 15.7241 6.28972 -8.95109
470 1 11.0072 17.2966 7.86211 -8.94917
471 1 12.5794 15.7244 6.28951 -8.95096
472 1 14.1521 17.297 7.86184 -8.94872
473 1 15.7244 15.7244 6.28953 -8.94913
474 1 17.2967 17.2967 7.86209 -8.94965
475 1 18.8691 15.7242 6.28967 -8.94963
476 1 20.4415 17.2966 7.86211 -8.94962
477 1 22.0139 18.8691 6.28969 -8.94963
478 1 1.57242 20.4415 7.86211 -8.94963
479 1 3.14484 18.8691 6.28969 -8.94965
480 1 4.71727 20.4415 7.86211 -8.94965
481 1 6.28964 18.8691 6.28964 -8.94947
482 1 7.86206 20.4415 7.86206 -8.94961
483 1 9.43456 18.869 6.28971 -8.94975
484 1 11.007 20.4415 7.8621 -8.94952
485 1 12.5794 18.8691 6.28968 -8.94975
486 1 14.1518 20.4415 7.86208 -8.9496
487 1 15.7242 18.8691 6.28966 -8.94953
488 1 17.2966 20.4415 7.86211 -8.94965
489 1 18.8691 18.8691 6.28969 -8.94964
490 1 20.4415 20.4415 7.86211 -8.94963
491 1 3.46604e-06 12.5794 9.43453 -8.94963
492 1 3.14481 12.5794 9.43454 -8.9494
493 1 6.28951 12.5783 9.43446 -9.00227
494 1 9.4094 12.6236 9.43017 -9.25273
495 1 12.5891 12.5835 9.42945 -9.01746
496 1 15.7254 12.5795 9.43445 -8.95228
536 1 11.007 20.4419 11.007 -8.95118
5 1 6.28969 22.0139 -3.82653e-08 -8.94963
516 1 14.152 11.006 11.0043 -9.05333
519 1 1.5724 14.1518 11.0069 -8.94965
520 1 4.71691 14.1519 11.0066 -8.94952
521 1 7.85933 14.1543 11.0085 -9.03519
522 1 11.0084 14.1978 10.9857 -9.26887
523 1 14.1531 14.1533 11.0058 -9.00101
524 1 17.297 14.1521 11.0068 -8.94878
525 1 20.4415 14.1518 11.0069 -8.94966
527 1 4.71728 17.2966 11.0069 -8.94976
535 1 7.86209 20.4415 11.007 -8.94963
531 1 17.2966 17.2967 11.007 -8.94965
353 1 3.14484 12.5794 2.93597e-07 -8.94963
687 2 11.0055 12.5895 11.7952 0.846701
686 1 20.4415 20.4415 20.4415 -8.94963
514 1 7.85661 11.006 11.0098 -9.03432
685 1 18.8691 18.8691 18.8691 -8.94962
307 1 18.8691 22.0139 18.8691 -8.94963
684 1 17.2966 20.4415 20.4415 -8.94963
683 1 15.7242 18.8691 18.8691 -8.94961
303 1 12.5794 22.0139 18.8691 -8.94963
301 1 9.43453 22.0139 18.8691 -8.94963
297 1 3.14484 22.0139 18.8691 -8.94963
256 1 15.7242 22.0139 15.7242 -8.94962
250 1 6.28968 22.0139 15.7242 -8.94963
246 1 22.0139 22.0139 15.7242 -8.94963
209 1 18.8691 22.0139 12.5794 -8.94963
526 1 1.57242 17.2966 11.007 -8.94963
199 1 3.14484 22.0139 12.5794 -8.94963
528 1 7.86197 17.297 11.0073 -8.94977
529 1 11.0072 17.3023 11.0072 -8.96139
671 1 18.8691 15.7242 18.8691 -8.94966
670 1 17.2966 17.2966 20.4415 -8.94964
669 1 15.7242 15.7242 18.8691 -8.94973
533 1 1.57242 20.4415 11.007 -8.94963
534 1 4.71727 20.4415 11.0069 -8.94963
668 1 14.1518 17.2966 20.4415 -8.94963
667 1 12.5794 15.7243 18.8692 -8.94974
666 1 11.007 17.2966 20.4415 -8.94962
538 1 17.2966 20.4415 11.007 -8.94963
539 1 20.4415 20.4415 11.007 -8.94963
682 1 14.1518 20.4415 20.4415 -8.94964
681 1 12.5794 18.8691 18.8691 -8.94966
542 1 7.86038 11.0039 14.1546 -8.98305
680 1 11.007 20.4415 20.4415 -8.94964
544 1 14.1531 11.004 14.1537 -8.98241
679 1 9.43453 18.8691 18.8691 -8.94966
678 1 7.86211 20.4415 20.4415 -8.94964
547 1 22.0139 12.5794 12.5794 -8.94988
548 1 1.57238 14.1518 14.1518 -8.94965
549 1 3.14431 12.5794 12.5794 -8.95129
550 1 4.71685 14.1521 14.1521 -8.9489
551 1 6.28342 12.5797 12.5801 -8.9607
552 1 7.86029 14.1549 14.1545 -8.98293
553 1 9.38834 12.5795 12.6011 -9.27185
554 1 11.0069 14.1558 14.1569 -8.98322
555 1 12.6255 12.581 12.6009 -9.25197
556 1 14.1536 14.155 14.1543 -8.98178
557 1 15.7297 12.5793 12.5793 -8.96249
558 1 17.297 14.152 14.152 -8.94921
559 1 18.8695 12.5794 12.5794 -8.9512
560 1 20.4415 14.1518 14.1518 -8.94966
561 1 2.32123e-06 15.7242 12.5794 -8.94962
562 1 1.57242 17.2966 14.1518 -8.94965
563 1 3.14485 15.7242 12.5794 -8.9497
564 1 4.71726 17.2967 14.1518 -8.94969
565 1 6.28945 15.7244 12.5795 -8.94925
566 1 7.86201 17.297 14.1519 -8.95023
567 1 9.4338 15.7246 12.5808 -9.00318
568 1 11.0069 17.2971 14.1519 -8.95095
569 1 12.5803 15.7249 12.581 -9.00264
570 1 14.1519 17.297 14.1519 -8.95002
571 1 15.7243 15.7242 12.5794 -8.95
572 1 17.2966 17.2966 14.1518 -8.94976
573 1 18.8691 15.7242 12.5794 -8.9496
574 1 20.4415 17.2966 14.1518 -8.94964
575 1 22.0139 18.8691 12.5794 -8.94963
576 1 1.57242 20.4415 14.1518 -8.94963
577 1 3.14484 18.8691 12.5794 -8.94965
578 1 4.71726 20.4415 14.1518 -8.94963
579 1 6.28964 18.8691 12.5794 -8.94958
580 1 7.86208 20.4415 14.1518 -8.94961
581 1 9.43428 18.8693 12.5796 -8.94863
582 1 11.0069 20.4415 14.1518 -8.94975
583 1 12.5796 18.8694 12.5796 -8.94862
584 1 14.1518 20.4415 14.1518 -8.94959
585 1 15.7242 18.8691 12.5794 -8.94964
586 1 17.2966 20.4415 14.1518 -8.94964
587 1 18.8691 18.8691 12.5794 -8.94963
588 1 20.4415 20.4415 14.1518 -8.94963
677 1 6.28968 18.8691 18.8691 -8.94961
676 1 4.71726 20.4415 20.4415 -8.94963
591 1 7.86222 11.0071 17.2967 -8.95061
592 1 11.007 11.0069 17.2977 -8.95246
593 1 14.1517 11.0071 17.2966 -8.95037
675 1 3.14484 18.8691 18.8691 -8.94962
674 1 1.57242 20.4415 20.4415 -8.94963
596 1 -1.01502e-07 12.5794 15.7242 -8.94961
597 1 1.57243 14.1518 17.2966 -8.94964
598 1 3.14487 12.5794 15.7242 -8.94954
599 1 4.7173 14.1518 17.2966 -8.94978
600 1 6.28993 12.5794 15.7241 -8.95025
601 1 7.86219 14.1517 17.2967 -8.95049
602 1 9.43538 12.5796 15.7241 -8.99998
603 1 11.007 14.1519 17.2973 -8.95091
604 1 12.5785 12.5796 15.724 -8.99993
605 1 14.1517 14.1517 17.2967 -8.95045
606 1 15.7239 12.5793 15.7239 -8.95027
607 1 17.2966 14.1518 17.2966 -8.94979
608 1 18.869 12.5794 15.7242 -8.94951
609 1 20.4415 14.1518 17.2966 -8.94963
610 1 22.0139 15.7242 15.7242 -8.94963
611 1 1.57242 17.2966 17.2966 -8.94962
612 1 3.1448 15.7242 15.7242 -8.94955
613 1 4.71724 17.2967 17.2967 -8.94952
614 1 6.28941 15.7245 15.7245 -8.9486
615 1 7.86203 17.2967 17.2967 -8.94939
616 1 9.43417 15.7249 15.725 -8.94834
617 1 11.007 17.2967 17.2967 -8.94945
618 1 12.5797 15.7249 15.725 -8.94848
619 1 14.1519 17.2967 17.2967 -8.9494
620 1 15.7245 15.7245 15.7245 -8.94857
621 1 17.2967 17.2967 17.2967 -8.94952
622 1 18.8691 15.7242 15.7242 -8.94959
623 1 20.4415 17.2966 17.2966 -8.94962
624 1 2.20976e-07 18.8691 15.7242 -8.94964
625 1 1.57242 20.4415 17.2966 -8.94963
626 1 3.14484 18.8691 15.7242 -8.94964
627 1 4.71726 20.4415 17.2966 -8.94963
628 1 6.28967 18.8691 15.7242 -8.94964
629 1 7.8621 20.4415 17.2966 -8.94964
630 1 9.43451 18.8691 15.7243 -8.94978
631 1 11.007 20.4415 17.2966 -8.94961
632 1 12.5794 18.8691 15.7243 -8.9498
633 1 14.1518 20.4415 17.2966 -8.94964
634 1 15.7242 18.8691 15.7242 -8.94962
635 1 17.2966 20.4415 17.2966 -8.94963
636 1 18.8691 18.8691 15.7242 -8.94965
637 1 20.4415 20.4415 17.2966 -8.94963
11 1 15.7242 22.0139 22.0139 -8.94963
673 1 22.0139 18.8691 18.8691 -8.94963
640 1 7.86211 11.007 20.4415 -8.94965
641 1 11.007 11.007 20.4415 -8.95005
642 1 14.1518 11.007 20.4415 -8.94962
672 1 20.4415 17.2966 20.4415 -8.94963
391 1 18.8691 18.8691 22.0139 -8.94963
645 1 22.0139 12.5794 18.8691 -8.94964
646 1 1.57242 14.1518 20.4415 -8.94963
647 1 3.14484 12.5794 18.8691 -8.94963
648 1 4.71726 14.1518 20.4415 -8.94963
649 1 6.28968 12.5794 18.8691 -8.94955
650 1 7.86211 14.1518 20.4415 -8.94965
651 1 9.43449 12.5794 18.8691 -8.94925
652 1 11.007 14.1518 20.4415 -8.94981
653 1 12.5794 12.5794 18.8691 -8.94924
654 1 14.1518 14.1518 20.4415 -8.94964
655 1 15.7242 12.5794 18.869 -8.94953
656 1 17.2966 14.1518 20.4415 -8.94963
657 1 18.8691 12.5794 18.8691 -8.94963
658 1 20.4415 14.1518 20.4415 -8.94963
659 1 2.21554e-08 15.7242 18.8691 -8.94963
660 1 1.57242 17.2966 20.4415 -8.94963
661 1 3.14485 15.7242 18.8691 -8.94965
662 1 4.71727 17.2966 20.4415 -8.94964
663 1 6.2897 15.7242 18.8691 -8.94973
664 1 7.8621 17.2966 20.4415 -8.94963
665 1 9.4345 15.7243 18.8692 -8.94974
207 1 15.7242 22.0139 12.5794 -8.94964
355 1 6.28969 12.5794 22.0139 -8.94966
357 1 9.43451 12.5794 22.0139 -8.94963
359 1 12.5794 12.5794 22.0139 -8.94965
365 1 3.37727e-08 15.7242 22.0139 -8.94963
367 1 3.14484 15.7242 22.0139 -8.94963
369 1 6.28968 15.7242 22.0139 -8.94963
375 1 15.7242 15.7242 22.0139 -8.94963
381 1 3.14484 18.8691 22.0139 -8.94963
385 1 9.43453 18.8691 22.0139 -8.94963
387 1 12.5794 18.8691 22.0139 -8.94963
595 1 20.4415 11.007 17.2966 -8.94963
594 1 17.2966 11.007 17.2966 -8.94977
590 1 4.7173 11.007 17.2966 -8.94975
589 1 1.57243 11.007 17.2966 -8.94964
201 1 6.28968 22.0139 12.5794 -8.94964
351 1 22.0139 12.5794 22.0139 -8.94963
363 1 18.8691 12.5794 22.0139 -8.94963
1 1 9.55949e-10 22.0139 22.0139 -8.94963
530 1 14.1517 17.2967 11.0071 -8.95044
532 1 20.4415 17.2966 11.007 -8.94964
