ITEM: TIMESTEP
78
ITEM: NUMBER OF ATOMS
688
ITEM: BOX BOUNDS pp pp pp
0.0000000000000000e+00 2.2013900999999997e+01
0.0000000000000000e+00 2.2013900999999997e+01
0.0000000000000000e+00 2.2013900999999997e+01
ITEM: ATOMS id type x y z c_pot
175 1 18.8704 9.43386 9.43401 -8.94981
2 1 1.57222 1.57237 1.57224 -8.94947
517 1 17.2991 11.0058 11.0062 -8.94743
4 1 4.71698 1.57234 1.57216 -8.94963
174 1 15.7275 9.43258 9.4336 -8.95158
6 1 7.86195 1.57232 1.57215 -8.9496
448 1 20.4419 11.0068 7.86171 -8.94955
8 1 11.007 1.57231 1.57215 -8.9496
9 1 12.5795 3.67172e-05 -6.0084e-05 -8.94961
10 1 14.152 1.5723 1.57214 -8.94962
173 1 12.5902 9.42327 9.43158 -9.01489
12 1 17.297 1.57231 1.57218 -8.94958
13 1 18.8693 4.17671e-05 -3.15928e-05 -8.94955
14 1 20.4416 1.57236 1.57228 -8.94952
447 1 17.2978 11.0067 7.8615 -8.94933
16 1 1.57223 4.7171 1.57228 -8.9496
17 1 3.14457 3.14465 -1.65623e-05 -8.94957
18 1 4.71685 4.71694 1.57211 -8.94961
446 1 14.153 11.0063 7.86149 -9.00121
20 1 7.86189 4.71689 1.57213 -8.94965
21 1 9.43445 3.14459 -5.77893e-06 -8.94961
22 1 11.007 4.71686 1.5721 -8.94961
23 1 12.5795 3.14458 -1.86257e-05 -8.94962
24 1 14.1521 4.71683 1.57208 -8.94973
444 1 7.85939 11.0069 7.85914 -8.9811
26 1 17.2971 4.71687 1.5721 -8.94944
27 1 18.8693 3.14464 -1.2725e-05 -8.94951
28 1 20.4416 4.71708 1.57228 -8.9496
29 1 -2.19736e-05 6.28953 3.81191e-05 -8.94961
30 1 1.57225 7.86199 1.5723 -8.94962
443 1 4.71634 11.0068 7.86163 -8.95022
32 1 4.71688 7.86192 1.5722 -8.94969
33 1 6.28927 6.28929 -4.06068e-07 -8.94965
34 1 7.86166 7.8616 1.57186 -8.94968
442 1 1.57215 11.0068 7.86175 -8.94964
36 1 11.007 7.86166 1.57185 -8.94947
397 1 14.1527 11.0068 4.71582 -8.94941
38 1 14.1525 7.86143 1.57154 -8.94967
39 1 15.7247 6.2892 -0.000111665 -8.9496
40 1 17.2971 7.86188 1.57213 -8.94968
396 1 11.0077 11.0071 4.70798 -8.96414
42 1 20.4416 7.86198 1.57228 -8.94961
395 1 7.86225 11.007 4.71625 -8.95055
44 1 3.14455 9.43444 5.72359e-05 -8.9496
350 1 20.4416 11.0069 1.57227 -8.9496
518 1 20.4422 11.0066 11.0067 -8.94967
47 1 12.5797 9.4342 -0.000416699 -8.95004
348 1 14.1524 11.0069 1.57159 -8.94931
49 1 18.8693 9.43444 -7.68019e-06 -8.9496
172 1 9.41111 9.37796 9.43411 -9.24031
51 1 1.57214 1.57237 4.71697 -8.94962
171 1 6.28853 9.43354 9.43395 -9.0022
53 1 4.71656 1.57223 4.71656 -8.94942
54 1 6.28934 0.000125855 3.14432 -8.94961
55 1 7.86177 1.57225 4.71655 -8.94953
170 1 3.14397 9.4339 9.43406 -8.94913
57 1 11.0071 1.57221 4.71654 -8.94954
169 1 8.14541e-05 9.43416 9.43418 -8.94965
59 1 14.1523 1.57217 4.71655 -8.94956
60 1 15.7246 0.000102711 3.14435 -8.9496
61 1 17.2972 1.5723 4.71677 -8.94951
168 1 18.8699 6.289 9.43432 -8.94962
63 1 20.4416 1.57236 4.71701 -8.94961
64 1 -4.67574e-05 3.14469 3.1446 -8.94958
65 1 1.5721 4.71699 4.71689 -8.94964
66 1 3.14439 3.14459 3.1444 -8.94937
67 1 4.71633 4.71647 4.71632 -8.94887
68 1 6.28932 3.14454 3.14431 -8.94972
69 1 7.86177 4.7165 4.7164 -8.95
70 1 9.43443 3.14448 3.14432 -8.94958
71 1 11.0071 4.71639 4.71634 -8.94949
72 1 12.5796 3.14446 3.14428 -8.94961
73 1 14.1526 4.71621 4.71627 -8.94972
74 1 15.7247 3.14444 3.14431 -8.9496
75 1 17.2974 4.7167 4.71662 -8.94937
76 1 18.8694 3.14463 3.14452 -8.94952
77 1 20.4417 4.71699 4.71693 -8.9496
78 1 22.0139 6.28951 3.1446 -8.94964
79 1 1.57219 7.86192 4.71689 -8.94964
80 1 3.14444 6.28944 3.14447 -8.94962
81 1 4.7166 7.86168 4.71657 -8.94945
82 1 6.28909 6.28911 3.14399 -8.94979
83 1 7.86138 7.86101 4.71556 -8.95096
84 1 9.43443 6.28902 3.14419 -8.94954
85 1 11.007 7.86136 4.71598 -8.9498
86 1 12.5796 6.28902 3.14408 -8.94995
87 1 14.1539 7.86007 4.71491 -8.9479
88 1 15.7251 6.28885 3.14388 -8.9491
89 1 17.2976 7.86164 4.71657 -8.94994
90 1 18.8695 6.2894 3.14447 -8.94967
91 1 20.4418 7.8619 4.7169 -8.94969
92 1 5.85798e-06 9.43444 3.14459 -8.9496
93 1 3.14454 9.43442 3.14452 -8.9496
94 1 6.28926 9.4344 3.14426 -8.94994
95 1 9.43393 9.43367 3.14325 -8.94815
96 1 12.5806 9.43345 3.1424 -8.94956
97 1 15.725 9.43429 3.14412 -8.94971
98 1 18.8695 9.43441 3.14448 -8.9496
99 1 -6.0724e-05 9.42445e-05 6.28946 -8.94961
100 1 1.57213 1.57236 7.86193 -8.9496
101 1 3.1443 0.000155373 6.2893 -8.9496
102 1 4.71652 1.57223 7.86174 -8.94953
167 1 15.7259 6.28786 9.43419 -8.94933
104 1 7.86127 1.57172 7.86127 -8.95005
105 1 9.43433 0.000333136 6.28882 -8.94949
106 1 11.0072 1.57173 7.86129 -8.94968
107 1 12.5799 0.000307157 6.28881 -8.94958
108 1 14.1526 1.57207 7.86146 -8.94975
166 1 12.5814 6.28411 9.43328 -8.94964
110 1 17.2973 1.57224 7.8618 -8.94959
111 1 18.8695 0.000109998 6.28938 -8.94962
112 1 20.4417 1.57234 7.86194 -8.94961
113 1 22.0139 3.14466 6.28945 -8.94963
114 1 1.57211 4.71692 7.86187 -8.94964
115 1 3.14428 3.14455 6.2893 -8.94969
116 1 4.71634 4.71647 7.86168 -8.94985
117 1 6.28856 3.14372 6.28856 -8.94934
118 1 7.86015 4.71352 7.8602 -8.94881
119 1 9.43438 3.1438 6.2888 -8.94935
120 1 11.0079 4.71398 7.86062 -8.94757
121 1 12.5801 3.14372 6.28866 -8.94946
122 1 14.1533 4.71521 7.86109 -8.94964
123 1 15.7251 3.14416 6.28896 -8.94952
124 1 17.2976 4.7165 7.86167 -8.94965
125 1 18.8695 3.14455 6.28935 -8.94963
126 1 20.4418 4.71691 7.86187 -8.94963
127 1 1.18072e-05 6.28937 6.28933 -8.94968
128 1 1.57207 7.86171 7.86172 -8.94974
129 1 3.14409 6.28918 6.28913 -8.9499
130 1 4.7159 7.86119 7.8615 -8.95113
131 1 6.28753 6.28731 6.28746 -8.9469
132 1 7.85641 7.8549 7.856 -8.97991
133 1 9.43472 6.28776 6.28887 -8.95018
134 1 11.0099 7.85829 7.86029 -9.00049
135 1 12.5806 6.28726 6.28809 -8.95058
136 1 14.1555 7.85825 7.85983 -8.94632
137 1 15.7258 6.28827 6.28845 -8.94868
138 1 17.2983 7.86103 7.86134 -8.94977
139 1 18.8698 6.28915 6.28915 -8.94957
140 1 20.442 7.86167 7.86168 -8.94969
141 1 22.014 9.43437 6.28931 -8.94967
142 1 3.14432 9.43432 6.28917 -8.94979
143 1 6.28845 9.43392 6.28836 -8.94891
144 1 9.43322 9.43231 6.28853 -9.00409
145 1 12.5845 9.42885 6.28417 -8.98235
146 1 15.7258 9.43392 6.28874 -8.95108
147 1 18.8697 9.43429 6.28918 -8.94976
165 1 9.43285 6.27478 9.43347 -8.96318
164 1 6.2886 6.28762 9.43441 -8.94973
150 1 6.28881 0.000317664 9.43433 -8.94954
163 1 3.14418 6.28902 9.43435 -8.94948
162 1 22.0139 6.2893 9.43436 -8.94965
153 1 15.725 0.000220292 9.43432 -8.94959
161 1 18.8696 3.14449 9.4344 -8.94961
155 1 -3.01591e-05 3.14463 9.43443 -8.94961
156 1 3.14428 3.14448 9.43441 -8.94959
157 1 6.28871 3.14368 9.43434 -8.94927
158 1 9.43406 3.14127 9.4341 -8.95298
159 1 12.5802 3.14285 9.43408 -8.94994
160 1 15.7252 3.14397 9.4343 -8.94952
344 1 1.57226 11.0069 1.57229 -8.94961
345 1 4.7169 11.0069 1.57219 -8.94958
346 1 7.86186 11.0069 1.57196 -8.94953
347 1 11.007 11.007 1.57041 -8.95213
513 1 4.71434 11.0059 11.0065 -8.9491
181 1 17.2973 1.57219 11.007 -8.94958
188 1 17.2976 4.71637 11.007 -8.94956
190 1 1.572 7.86165 11.0069 -8.94973
191 1 4.71582 7.86097 11.0071 -8.95103
192 1 7.85714 7.85466 11.0126 -8.98046
193 1 11.0098 7.84357 11.0099 -9.01618
512 1 1.5716 11.0066 11.0067 -8.94986
177 1 4.7165 1.57218 11.0071 -8.94953
184 1 4.71627 4.71631 11.0071 -8.9497
189 1 20.4418 4.71687 11.0069 -8.94961
7 1 9.43447 4.03271e-05 -5.49226e-05 -8.94961
643 1 17.297 11.0069 20.4416 -8.94958
644 1 20.4416 11.0069 20.4417 -8.94959
178 1 7.86128 1.57157 11.0073 -8.94992
179 1 11.0072 1.57141 11.0073 -8.95088
180 1 14.1526 1.5719 11.0071 -8.94967
639 1 4.71685 11.0069 20.4418 -8.94961
182 1 20.4417 1.57233 11.007 -8.94961
183 1 1.57208 4.71688 11.0069 -8.94961
638 1 1.57221 11.0069 20.4417 -8.94959
185 1 7.86029 4.71328 11.0082 -8.94878
186 1 11.0079 4.71112 11.0081 -8.95203
187 1 14.1532 4.71483 11.0072 -8.9498
48 1 15.7247 9.43438 22.0138 -8.9496
35 1 9.43439 6.28926 22.0139 -8.9496
46 1 9.43428 9.43421 22.0137 -8.94979
45 1 6.28933 9.4344 22.014 -8.94971
43 1 22.0139 9.43445 22.0139 -8.9496
546 1 20.4422 11.0066 14.1523 -8.94989
194 1 14.155 7.85737 11.008 -8.94862
195 1 17.2983 7.86084 11.007 -8.94987
196 1 20.442 7.86163 11.0069 -8.94971
197 1 -6.98849e-05 9.17822e-05 12.5795 -8.9496
198 1 1.57211 1.57233 14.152 -8.94962
343 1 18.8694 9.43437 18.8695 -8.94965
200 1 4.71648 1.5721 14.1524 -8.94953
41 1 18.8694 6.28947 22.0139 -8.94964
202 1 7.86149 1.57193 14.1526 -8.94966
203 1 9.43413 0.000526264 12.5801 -8.94977
204 1 11.0071 1.5718 14.1526 -8.94959
205 1 12.5801 0.000471592 12.5801 -8.94987
206 1 14.1526 1.57184 14.1526 -8.94965
37 1 12.5796 6.28924 22.0139 -8.94961
208 1 17.2973 1.57217 14.1522 -8.9496
342 1 15.7248 9.43427 18.8697 -8.94989
210 1 20.4417 1.57232 14.152 -8.94962
211 1 22.0139 3.14462 12.5795 -8.94962
212 1 1.572 4.71685 14.1521 -8.94969
213 1 3.14421 3.14445 12.5796 -8.94965
214 1 4.71603 4.71609 14.1527 -8.94909
215 1 6.28849 3.14347 12.5802 -8.94942
216 1 7.86103 4.71511 14.1533 -8.94979
217 1 9.43407 3.14274 12.5803 -8.94968
218 1 11.0071 4.71484 14.1532 -8.94958
219 1 12.5804 3.14261 12.5804 -8.94984
220 1 14.1534 4.71489 14.1533 -8.94934
221 1 15.7252 3.1439 12.5798 -8.94959
222 1 17.2977 4.71639 14.1524 -8.94954
223 1 18.8696 3.14447 12.5795 -8.94961
224 1 20.4418 4.71687 14.152 -8.94965
225 1 -2.31295e-05 6.28929 12.5795 -8.94973
226 1 1.57185 7.86162 14.1522 -8.94966
227 1 3.14389 6.28898 12.5797 -8.94994
228 1 4.71564 7.86087 14.1528 -8.94971
229 1 6.28716 6.28677 12.5814 -8.94755
230 1 7.85937 7.858 14.1555 -8.95013
231 1 9.43324 6.28433 12.5816 -8.94853
232 1 11.007 7.85784 14.1545 -8.9512
233 1 12.582 6.28364 12.5822 -8.94868
234 1 14.1553 7.85751 14.1553 -8.94736
235 1 15.7261 6.28776 12.5802 -8.94907
236 1 17.2981 7.86111 14.1524 -8.95041
237 1 18.8699 6.289 12.5796 -8.94964
238 1 20.4419 7.86166 14.1521 -8.94972
239 1 22.0138 9.43416 12.5795 -8.94968
240 1 3.14345 9.43392 12.5797 -8.94971
241 1 6.28644 9.43285 12.5811 -8.94943
242 1 9.42885 9.42638 12.5864 -9.04949
243 1 12.5872 9.42282 12.5876 -9.02398
244 1 15.7267 9.43332 12.5795 -8.95215
245 1 18.8702 9.434 12.5795 -8.9496
341 1 12.5799 9.43388 18.8704 -8.95025
247 1 1.57215 1.57232 17.297 -8.94954
248 1 3.14432 0.000117645 15.7247 -8.94954
249 1 4.71677 1.57223 17.2972 -8.94959
340 1 9.43417 9.43386 18.8705 -8.9501
251 1 7.86182 1.57214 17.2973 -8.94962
252 1 9.43437 7.98201e-05 15.7249 -8.94962
253 1 11.007 1.5721 17.2973 -8.9496
254 1 12.5797 5.0257e-05 15.7249 -8.94962
255 1 14.1522 1.57211 17.2973 -8.94963
339 1 6.28907 9.43419 18.87 -8.94998
257 1 17.2971 1.57221 17.2971 -8.94952
258 1 18.8694 6.87182e-05 15.7245 -8.94961
259 1 20.4416 1.57232 17.2969 -8.94959
260 1 -5.80343e-05 3.14461 15.7245 -8.94962
261 1 1.5721 4.71691 17.297 -8.94963
262 1 3.14423 3.14442 15.7247 -8.94946
263 1 4.71648 4.71651 17.2975 -8.94946
264 1 6.28893 3.14404 15.7251 -8.94964
265 1 7.86161 4.71631 17.2977 -8.94962
266 1 9.43429 3.14386 15.7252 -8.9496
267 1 11.007 4.71625 17.2977 -8.94951
268 1 12.5798 3.14385 15.7252 -8.94965
269 1 14.1524 4.7163 17.2976 -8.94968
270 1 15.7251 3.14399 15.7251 -8.94946
271 1 17.2974 4.71654 17.2974 -8.94933
272 1 18.8695 3.14448 15.7246 -8.9496
273 1 20.4417 4.71692 17.297 -8.94964
274 1 22.0138 6.2893 15.7246 -8.94967
275 1 1.57195 7.86165 17.2973 -8.94954
276 1 3.14403 6.28901 15.7249 -8.94966
277 1 4.7161 7.8612 17.2979 -8.94909
278 1 6.28821 6.28791 15.726 -8.94939
279 1 7.86101 7.86068 17.2986 -8.94923
280 1 9.43406 6.28756 15.726 -8.94973
281 1 11.007 7.86068 17.2985 -8.94903
282 1 12.5801 6.28757 15.726 -8.95015
283 1 14.1531 7.86064 17.2985 -8.94918
284 1 15.7259 6.28791 15.7258 -8.94879
285 1 17.2977 7.86136 17.2976 -8.94925
286 1 18.8698 6.28909 15.7247 -8.94979
287 1 20.4418 7.86169 17.2972 -8.94954
288 1 -0.000105887 9.43414 15.7248 -8.94971
289 1 3.14353 9.43378 15.7253 -8.94946
290 1 6.28716 9.43244 15.7269 -8.94792
291 1 9.43286 9.43119 15.7287 -8.94742
292 1 12.5815 9.43103 15.7287 -8.94813
293 1 15.7264 9.4328 15.7261 -8.94822
294 1 18.8701 9.43387 15.7251 -8.94945
295 1 -4.85485e-05 6.69318e-05 18.8693 -8.94955
296 1 1.57225 1.57235 20.4416 -8.94954
338 1 3.14437 9.43433 18.8696 -8.94963
298 1 4.71701 1.57231 20.4417 -8.94961
299 1 6.28942 4.9095e-05 18.8695 -8.94962
300 1 7.86196 1.57228 20.4417 -8.94961
337 1 22.0138 9.43438 18.8694 -8.94958
302 1 11.007 1.57227 20.4417 -8.9496
336 1 20.4416 7.86195 20.4417 -8.94962
304 1 14.152 1.57227 20.4417 -8.94961
305 1 15.7245 2.14574e-05 18.8694 -8.94962
306 1 17.2969 1.57229 20.4417 -8.9496
335 1 18.8695 6.28929 18.8695 -8.9495
308 1 20.4416 1.57235 20.4416 -8.94951
309 1 22.0139 3.14466 18.8693 -8.94959
310 1 1.57222 4.71703 20.4417 -8.94954
311 1 3.14445 3.14455 18.8694 -8.94953
312 1 4.71685 4.71689 20.4418 -8.94957
313 1 6.28932 3.14444 18.8696 -8.94961
314 1 7.86186 4.71683 20.4418 -8.94962
315 1 9.43441 3.1444 18.8696 -8.94958
316 1 11.007 4.71682 20.4418 -8.94961
317 1 12.5795 3.1444 18.8696 -8.94959
318 1 14.1521 4.71682 20.4418 -8.94963
319 1 15.7246 3.14443 18.8696 -8.94962
320 1 17.2971 4.71686 20.4417 -8.94952
321 1 18.8694 3.14455 18.8694 -8.94949
322 1 20.4416 4.71704 20.4417 -8.94955
323 1 -4.86375e-05 6.28937 18.8694 -8.94954
324 1 1.57221 7.86193 20.4417 -8.94961
325 1 3.14432 6.28924 18.8696 -8.94945
326 1 4.71681 7.86183 20.4419 -8.9497
327 1 6.28902 6.28897 18.8699 -8.94952
328 1 7.86167 7.8616 20.442 -8.94973
329 1 9.43431 6.28892 18.87 -8.94958
330 1 11.007 7.8616 20.442 -8.9496
331 1 12.5797 6.28892 18.8699 -8.94959
332 1 14.1523 7.86158 20.4419 -8.9498
333 1 15.725 6.28896 18.8699 -8.94947
334 1 17.2971 7.86185 20.4417 -8.94967
545 1 17.2993 11.0057 14.1531 -8.94867
543 1 11.0074 10.9999 14.1666 -9.00232
515 1 11.031 10.9454 11.0375 -9.42606
541 1 4.71401 11.0057 14.1537 -8.94862
540 1 1.57143 11.0066 14.1524 -8.94988
31 1 3.14454 6.28947 22.014 -8.94963
15 1 22.0139 3.14472 22.0139 -8.94953
19 1 6.28945 3.14461 22.0139 -8.94963
25 1 15.7245 3.14457 22.0139 -8.94965
3 1 3.14462 5.41522e-05 22.0139 -8.94959
176 1 1.57212 1.57234 11.007 -8.9496
688 2 10.198 11.0158 9.40968 0.803551
511 1 18.8697 18.8696 9.43434 -8.94962
510 1 15.7254 18.8703 9.43421 -8.94982
509 1 12.5811 18.8732 9.43305 -8.9495
508 1 9.43314 18.875 9.4331 -8.95247
507 1 6.28832 18.8709 9.43424 -8.94958
506 1 3.14405 18.8697 9.43433 -8.94959
349 1 17.2971 11.0069 1.5721 -8.9496
352 1 1.57224 14.1519 1.57227 -8.94962
154 1 18.8695 22.014 9.43442 -8.9496
354 1 4.71685 14.1519 1.57213 -8.94966
152 1 12.5801 22.0146 9.43408 -8.95005
356 1 7.86163 14.1523 1.57164 -8.94969
151 1 9.43411 22.0147 9.43409 -8.95097
358 1 11.007 14.1522 1.57156 -8.94944
149 1 3.14429 22.0141 9.43442 -8.94958
360 1 14.1526 14.1524 1.57131 -8.94962
361 1 15.7247 12.5795 -0.000240405 -8.94953
362 1 17.2971 14.152 1.57207 -8.94966
537 1 14.1527 20.4427 11.0071 -8.9495
364 1 20.4416 14.1519 1.57226 -8.94961
148 1 -6.13831e-05 22.014 9.43445 -8.94961
366 1 1.57221 17.2968 1.57223 -8.94962
109 1 15.725 22.0142 6.289 -8.94954
368 1 4.71681 17.297 1.572 -8.94963
103 1 6.28879 22.0143 6.28878 -8.94962
370 1 7.86187 17.2971 1.57192 -8.94974
371 1 9.43442 15.7246 -0.00022297 -8.94969
372 1 11.007 17.2971 1.57189 -8.94964
373 1 12.5795 15.7246 -0.000293783 -8.94969
374 1 14.1521 17.2971 1.57188 -8.94983
62 1 18.8694 22.014 3.14453 -8.94951
376 1 17.2971 17.297 1.57201 -8.94944
377 1 18.8693 15.7244 -4.64023e-05 -8.94963
378 1 20.4416 17.2968 1.57225 -8.94962
379 1 22.0139 18.8692 2.31813e-06 -8.94959
380 1 1.5722 20.4416 1.57222 -8.9495
58 1 12.5796 22.014 3.14431 -8.94959
382 1 4.71694 20.4417 1.5721 -8.94963
383 1 6.28944 18.8693 -8.59435e-05 -8.94967
384 1 7.86194 20.4417 1.57208 -8.94961
56 1 9.43444 22.014 3.14432 -8.94958
386 1 11.007 20.4417 1.57208 -8.9496
52 1 3.1444 22.014 3.1444 -8.94943
388 1 14.152 20.4417 1.57208 -8.94962
389 1 15.7245 18.8693 -0.000113755 -8.94968
390 1 17.297 20.4417 1.57213 -8.94957
50 1 22.0138 22.014 3.14461 -8.94957
392 1 20.4416 20.4416 1.57227 -8.94957
393 1 1.57221 11.0069 4.71689 -8.94956
394 1 4.71678 11.0069 4.71664 -8.94912
505 1 -8.49481e-05 18.8694 9.43437 -8.94961
504 1 18.8703 15.725 9.43402 -8.9496
503 1 15.7271 15.7262 9.43343 -8.95014
398 1 17.2974 11.0069 4.71661 -8.94941
399 1 20.4417 11.0069 4.71689 -8.94961
400 1 -4.57939e-06 12.5794 3.14458 -8.9496
401 1 1.57213 14.1519 4.71686 -8.94962
402 1 3.14451 12.5794 3.14451 -8.9496
403 1 4.71647 14.1521 4.7165 -8.94946
404 1 6.2892 12.5794 3.1442 -8.94987
405 1 7.8611 14.153 4.71518 -8.95094
406 1 9.43388 12.5803 3.14306 -8.94814
407 1 11.0069 14.1527 4.71555 -8.94981
408 1 12.5806 12.5805 3.14214 -8.94968
409 1 14.1541 14.1538 4.7146 -8.94749
410 1 15.725 12.5795 3.14409 -8.94965
411 1 17.2976 14.1521 4.71658 -8.94998
412 1 18.8695 12.5794 3.14448 -8.94959
413 1 20.4417 14.1519 4.7169 -8.94968
414 1 22.0139 15.7244 3.14457 -8.94964
415 1 1.57201 17.2969 4.7168 -8.94968
416 1 3.14438 15.7244 3.1444 -8.94963
417 1 4.71613 17.2976 4.71609 -8.94887
418 1 6.28896 15.7248 3.14376 -8.94976
419 1 7.86152 17.2978 4.71589 -8.95024
420 1 9.43439 15.725 3.14385 -8.94971
421 1 11.0071 17.2979 4.71595 -8.9493
422 1 12.5797 15.7249 3.14373 -8.95015
423 1 14.1528 17.298 4.71579 -8.94998
424 1 15.7252 15.725 3.14372 -8.94897
425 1 17.2974 17.2972 4.71655 -8.94952
426 1 18.8695 15.7245 3.14444 -8.94969
427 1 20.4417 17.2969 4.71688 -8.94965
428 1 -7.62862e-05 18.8693 3.14456 -8.94961
429 1 1.57209 20.4417 4.71689 -8.94959
430 1 3.14432 18.8694 3.14431 -8.94939
431 1 4.71645 20.4421 4.71642 -8.94929
432 1 6.28921 18.8696 3.14409 -8.94975
433 1 7.86171 20.4421 4.71641 -8.94959
434 1 9.43441 18.8696 3.14412 -8.94957
435 1 11.0071 20.4421 4.71642 -8.94954
436 1 12.5796 18.8696 3.14409 -8.94959
437 1 14.1524 20.4421 4.71642 -8.94964
438 1 15.7248 18.8696 3.14411 -8.94962
439 1 17.2973 20.4419 4.71667 -8.94937
440 1 18.8694 18.8693 3.14448 -8.94959
441 1 20.4417 20.4417 4.71694 -8.94958
502 1 12.5863 15.7337 9.4282 -8.9807
501 1 9.42773 15.7433 9.42876 -8.99663
500 1 6.28675 15.7272 9.43362 -8.95008
445 1 11.0326 11.0085 7.81514 -9.27113
499 1 3.14342 15.7252 9.43403 -8.94943
498 1 22.0138 15.7247 9.4342 -8.94974
497 1 18.8702 12.5794 9.43422 -8.94973
449 1 22.0139 12.5794 6.28931 -8.94967
450 1 1.57193 14.152 7.86172 -8.94984
451 1 3.14421 12.5794 6.28916 -8.94971
452 1 4.7155 14.1525 7.86144 -8.95162
453 1 6.2882 12.5798 6.28838 -8.94856
454 1 7.85529 14.1594 7.8552 -8.98068
455 1 9.43276 12.5821 6.28815 -9.00376
456 1 11.0098 14.1556 7.85938 -9.05532
457 1 12.585 12.5853 6.28339 -8.98175
458 1 14.1553 14.1543 7.85977 -8.94749
459 1 15.7258 12.5795 6.28884 -8.95093
460 1 17.2981 14.1523 7.86142 -8.95014
461 1 18.8697 12.5794 6.28921 -8.94969
462 1 20.4419 14.152 7.86172 -8.94975
463 1 -6.94164e-05 15.7244 6.28929 -8.94974
464 1 1.57186 17.2972 7.86167 -8.94962
465 1 3.14388 15.7247 6.289 -8.94999
466 1 4.71563 17.2979 7.86126 -8.94977
467 1 6.28708 15.7269 6.28702 -8.94675
468 1 7.85855 17.3022 7.85868 -8.94664
469 1 9.43445 15.7267 6.28788 -8.9516
470 1 11.0079 17.301 7.86009 -8.9476
471 1 12.5809 15.7271 6.28708 -8.95223
472 1 14.1547 17.3001 7.85958 -8.94706
473 1 15.7258 15.7254 6.28838 -8.94901
474 1 17.298 17.2976 7.86133 -8.94969
475 1 18.8698 15.7246 6.28913 -8.94968
476 1 20.4419 17.2971 7.8617 -8.94964
477 1 22.0138 18.8694 6.28932 -8.94961
478 1 1.57206 20.4418 7.86187 -8.94961
479 1 3.14404 18.8696 6.28909 -8.94962
480 1 4.71637 20.4421 7.86165 -8.94961
481 1 6.28806 18.8709 6.28805 -8.94872
482 1 7.86092 20.4434 7.86092 -8.94989
483 1 9.43427 18.8707 6.28842 -8.94949
484 1 11.0072 20.4433 7.86108 -8.94943
485 1 12.5802 18.8707 6.28831 -8.94964
486 1 14.153 20.4429 7.86112 -8.94956
487 1 15.7255 18.8703 6.28852 -8.94884
488 1 17.2974 20.4419 7.86174 -8.94968
489 1 18.8697 18.8695 6.28919 -8.94959
490 1 20.4417 20.4417 7.8619 -8.94962
491 1 -7.26913e-06 12.5794 9.43423 -8.94957
492 1 3.14383 12.5794 9.43426 -8.94925
493 1 6.28806 12.5796 9.4348 -9.00385
494 1 9.40975 12.6354 9.43411 -9.24852
495 1 12.5884 12.5849 9.43141 -9.01875
496 1 15.7269 12.5796 9.43439 -8.95194
536 1 11.0072 20.4448 11.0072 -8.95292
5 1 6.2895 22.0139 -5.19349e-05 -8.94962
516 1 14.1534 11.0034 11.0034 -9.05057
519 1 1.57146 14.1522 11.0067 -8.94995
520 1 4.71385 14.1533 11.0065 -8.9498
521 1 7.85399 14.1611 11.0107 -9.03242
522 1 11.0093 14.2133 10.9849 -9.26153
523 1 14.156 14.1563 11.0051 -9.00057
524 1 17.2994 14.153 11.0062 -8.94839
525 1 20.4422 14.1522 11.0067 -8.94986
527 1 4.71573 17.298 11.0071 -8.94956
535 1 7.86115 20.4432 11.0073 -8.94981
531 1 17.2978 17.2976 11.0069 -8.9495
353 1 3.14455 12.5794 2.86845e-05 -8.94959
687 2 11.0002 12.608 11.788 0.792919
686 1 20.4416 20.4416 20.4416 -8.94948
514 1 7.85602 11.0039 11.0097 -9.03454
685 1 18.8694 18.8694 18.8694 -8.9494
307 1 18.8693 22.014 18.8694 -8.94954
684 1 17.2969 20.4417 20.4416 -8.94961
683 1 15.7246 18.8694 18.8695 -8.94961
303 1 12.5795 22.0139 18.8694 -8.94959
301 1 9.43445 22.0139 18.8695 -8.94959
297 1 3.14453 22.014 18.8694 -8.94957
256 1 15.7249 22.014 15.7249 -8.94954
250 1 6.28909 22.0141 15.7249 -8.9496
246 1 22.0138 22.014 15.7245 -8.94961
209 1 18.8695 22.014 12.5795 -8.9496
526 1 1.57183 17.2972 11.0069 -8.94958
199 1 3.14428 22.014 12.5796 -8.94957
528 1 7.85986 17.3016 11.0083 -8.94953
529 1 11.0078 17.3112 11.0073 -8.96508
671 1 18.8694 15.7244 18.8694 -8.94969
670 1 17.297 17.297 20.4417 -8.94963
669 1 15.7247 15.7246 18.8696 -8.94994
533 1 1.57206 20.4418 11.007 -8.94959
534 1 4.71638 20.4421 11.0071 -8.9495
668 1 14.152 17.297 20.4416 -8.94969
667 1 12.5796 15.7247 18.8696 -8.94987
666 1 11.007 17.297 20.4416 -8.9496
538 1 17.2973 20.4419 11.007 -8.94957
539 1 20.4417 20.4417 11.0069 -8.94961
682 1 14.152 20.4416 20.4416 -8.94963
681 1 12.5795 18.8694 18.8695 -8.94961
542 1 7.85669 11.0013 14.1581 -8.9808
680 1 11.007 20.4416 20.4416 -8.94962
544 1 14.156 11.0017 14.1556 -8.98031
679 1 9.43445 18.8694 18.8695 -8.9496
678 1 7.86197 20.4417 20.4417 -8.94963
547 1 22.0138 12.5794 12.5795 -8.95057
548 1 1.57136 14.1522 14.1524 -8.94996
549 1 3.14178 12.5794 12.5798 -8.9527
550 1 4.71372 14.1534 14.1537 -8.94898
551 1 6.27708 12.5799 12.5815 -8.96361
552 1 7.85537 14.1583 14.1583 -8.98244
553 1 9.38135 12.5802 12.6028 -9.26795
554 1 11.0068 14.1559 14.1554 -8.98233
555 1 12.6305 12.5813 12.6007 -9.24384
556 1 14.1577 14.1576 14.1566 -8.98057
557 1 15.7354 12.5791 12.5796 -8.96511
558 1 17.2995 14.1529 14.1531 -8.94941
559 1 18.8716 12.5793 12.5795 -8.95256
560 1 20.4421 14.1521 14.1523 -8.94998
561 1 -0.000152297 15.7246 12.5795 -8.94972
562 1 1.5718 17.2972 14.1522 -8.94965
563 1 3.14323 15.725 12.5797 -8.94983
564 1 4.71562 17.2981 14.1529 -8.94922
565 1 6.28582 15.7272 12.5814 -8.94759
566 1 7.86044 17.2993 14.1535 -8.95046
567 1 9.43147 15.7288 12.5825 -9.00103
568 1 11.0071 17.2988 14.1524 -8.95032
569 1 12.5832 15.729 12.5827 -9.00014
570 1 14.1537 17.2992 14.1533 -8.94986
571 1 15.7266 15.7255 12.5797 -8.94975
572 1 17.2977 17.2975 14.1523 -8.94985
573 1 18.8702 15.7248 12.5795 -8.94955
574 1 20.4418 17.2971 14.1521 -8.94963
575 1 22.0138 18.8694 12.5795 -8.94961
576 1 1.57205 20.4418 14.1521 -8.94962
577 1 3.144 18.8697 12.5796 -8.94962
578 1 4.71637 20.4421 14.1524 -8.94954
579 1 6.28812 18.8709 12.5803 -8.9494
580 1 7.86131 20.4426 14.1528 -8.94953
581 1 9.43337 18.8724 12.5808 -8.94787
582 1 11.0071 20.4424 14.1525 -8.94948
583 1 12.581 18.8723 12.5808 -8.94796
584 1 14.1528 20.4425 14.1527 -8.94949
585 1 15.7254 18.8701 12.5797 -8.94954
586 1 17.2973 20.4419 14.1522 -8.94962
587 1 18.8696 18.8695 12.5795 -8.94961
588 1 20.4417 20.4417 14.152 -8.94962
677 1 6.28933 18.8695 18.8696 -8.94961
676 1 4.717 20.4417 20.4417 -8.94962
591 1 7.86151 11.0067 17.2983 -8.95121
592 1 11.007 11.0064 17.2997 -8.95381
593 1 14.1524 11.0068 17.2976 -8.95071
675 1 3.14439 18.8695 18.8696 -8.9494
674 1 1.57223 20.4417 20.4417 -8.9495
596 1 -0.000143063 12.5794 15.7248 -8.94954
597 1 1.57199 14.152 17.2972 -8.94952
598 1 3.14365 12.5794 15.7251 -8.94925
599 1 4.71639 14.1521 17.2976 -8.94974
600 1 6.28797 12.5794 15.7255 -8.94956
601 1 7.86138 14.1523 17.2981 -8.95137
602 1 9.43432 12.58 15.7251 -9.00021
603 1 11.007 14.1521 17.2976 -8.95031
604 1 12.5795 12.58 15.7244 -8.99942
605 1 14.1525 14.1522 17.2976 -8.95113
606 1 15.7254 12.5792 15.7245 -8.94969
607 1 17.2972 14.1519 17.2972 -8.94984
608 1 18.8699 12.5794 15.7248 -8.94924
609 1 20.4417 14.152 17.2971 -8.94952
610 1 22.0138 15.7247 15.7248 -8.94973
611 1 1.57195 17.2971 17.2972 -8.94952
612 1 3.14347 15.7251 15.7253 -8.94945
613 1 4.71621 17.2976 17.2978 -8.94898
614 1 6.28709 15.7266 15.7269 -8.94745
615 1 7.86157 17.2975 17.2977 -8.94944
616 1 9.43393 15.7261 15.7261 -8.94892
617 1 11.007 17.2974 17.2974 -8.94908
618 1 12.5801 15.7259 15.7259 -8.94935
619 1 14.1524 17.2974 17.2975 -8.94949
620 1 15.7264 15.7261 15.7262 -8.94737
621 1 17.2975 17.2974 17.2975 -8.949
622 1 18.8701 15.7249 15.725 -8.94955
623 1 20.4417 17.2971 17.2972 -8.94954
624 1 -0.000114046 18.8694 15.7246 -8.94962
625 1 1.57212 20.4417 17.297 -8.94955
626 1 3.1441 18.8697 15.7249 -8.94949
627 1 4.71673 20.4419 17.2973 -8.94958
628 1 6.28875 18.8702 15.7253 -8.94967
629 1 7.86183 20.4418 17.2973 -8.94965
630 1 9.43433 18.87 15.7251 -8.94988
631 1 11.007 20.4418 17.2972 -8.94956
632 1 12.5797 18.87 15.7251 -8.94994
633 1 14.1521 20.4418 17.2972 -8.94966
634 1 15.7252 18.8701 15.7251 -8.94949
635 1 17.2971 20.4418 17.2972 -8.94952
636 1 18.8695 18.8695 15.7246 -8.94968
637 1 20.4416 20.4417 17.2969 -8.9496
11 1 15.7244 22.0139 22.0138 -8.94962
673 1 22.0138 18.8694 18.8694 -8.94951
640 1 7.86178 11.0069 20.4419 -8.94969
641 1 11.007 11.0069 20.4418 -8.9506
642 1 14.1522 11.007 20.4416 -8.94961
672 1 20.4416 17.2968 20.4417 -8.94963
391 1 18.8693 18.8693 22.0139 -8.94954
645 1 22.0138 12.5794 18.8694 -8.94957
646 1 1.57221 14.1519 20.4417 -8.94959
647 1 3.14437 12.5794 18.8696 -8.94957
648 1 4.71686 14.1519 20.4418 -8.94962
649 1 6.28908 12.5795 18.8697 -8.94946
650 1 7.86177 14.1521 20.4417 -8.94981
651 1 9.43424 12.5796 18.8697 -8.94907
652 1 11.007 14.152 20.4415 -8.94968
653 1 12.5798 12.5796 18.8694 -8.94901
654 1 14.1522 14.1521 20.4415 -8.9498
655 1 15.7248 12.5794 18.8694 -8.94936
656 1 17.297 14.1519 20.4416 -8.94958
657 1 18.8694 12.5794 18.8694 -8.94959
658 1 20.4416 14.1519 20.4417 -8.94959
659 1 -7.69256e-05 15.7244 18.8694 -8.94958
660 1 1.57222 17.2968 20.4417 -8.94962
661 1 3.14439 15.7245 18.8696 -8.94966
662 1 4.71686 17.297 20.4418 -8.94968
663 1 6.28912 15.7247 18.8699 -8.95001
664 1 7.8619 17.297 20.4417 -8.94968
665 1 9.43441 15.7247 18.8697 -8.94985
207 1 15.725 22.014 12.5797 -8.94959
355 1 6.28932 12.5795 22.0139 -8.94965
357 1 9.43428 12.5796 22.0135 -8.94959
359 1 12.5798 12.5797 22.0132 -8.94983
365 1 -3.36703e-05 15.7243 22.0139 -8.9496
367 1 3.14454 15.7244 22.0139 -8.94963
369 1 6.28929 15.7245 22.0138 -8.94973
375 1 15.7247 15.7246 22.0136 -8.94963
381 1 3.14455 18.8693 22.0139 -8.9496
385 1 9.43446 18.8693 22.0138 -8.94962
387 1 12.5795 18.8694 22.0138 -8.94962
595 1 20.4417 11.0068 17.2971 -8.94952
594 1 17.2973 11.0068 17.2973 -8.94972
590 1 4.7164 11.0068 17.2976 -8.94964
589 1 1.572 11.0068 17.2972 -8.94951
201 1 6.2888 22.0141 12.5799 -8.94968
351 1 22.0139 12.5794 22.0139 -8.9496
363 1 18.8693 12.5794 22.0139 -8.9496
1 1 -4.3469e-05 22.0139 22.0139 -8.94949
530 1 14.1533 17.2994 11.0072 -8.95019
532 1 20.4418 17.2971 11.0069 -8.9496
