ITEM: TIMESTEP
97
ITEM: NUMBER OF ATOMS
688
ITEM: BOX BOUNDS pp pp pp
0.0000000000000000e+00 2.2013900999999997e+01
0.0000000000000000e+00 2.2013900999999997e+01
0.0000000000000000e+00 2.2013900999999997e+01
ITEM: ATOMS id type x y z c_pot
175 1 18.8703 9.43381 9.43401 -8.94982
2 1 1.5722 1.57242 1.57222 -8.94946
517 1 17.2989 11.0057 11.0061 -8.94739
4 1 4.71692 1.57239 1.57215 -8.94963
174 1 15.7274 9.43251 9.43357 -8.95166
6 1 7.86193 1.57236 1.57211 -8.9496
448 1 20.4419 11.0068 7.86175 -8.94954
8 1 11.007 1.57232 1.57207 -8.9496
9 1 12.5796 -1.63138e-05 -0.000131518 -8.94961
10 1 14.1522 1.5723 1.57206 -8.94961
173 1 12.5903 9.42297 9.43149 -9.01497
12 1 17.2971 1.57232 1.57211 -8.94957
13 1 18.8693 -6.97363e-06 -5.92517e-05 -8.94954
14 1 20.4417 1.57239 1.57224 -8.94951
447 1 17.2977 11.0067 7.8615 -8.9493
16 1 1.57229 4.71721 1.57235 -8.9496
17 1 3.14455 3.14471 8.063e-05 -8.94956
18 1 4.7169 4.71703 1.57221 -8.94961
446 1 14.1528 11.0064 7.86156 -9.00113
20 1 7.86195 4.71693 1.57222 -8.94965
21 1 9.43448 3.14457 6.187e-05 -8.94961
22 1 11.0071 4.71688 1.57215 -8.94961
23 1 12.5796 3.14455 7.15724e-06 -8.94962
24 1 14.1522 4.71685 1.57208 -8.94973
444 1 7.85975 11.0071 7.85961 -8.98112
26 1 17.2972 4.71693 1.57209 -8.94944
27 1 18.8694 3.14467 1.11829e-05 -8.9495
28 1 20.4417 4.71718 1.5723 -8.9496
29 1 3.72664e-05 6.28963 0.000141315 -8.94961
30 1 1.57238 7.86209 1.57244 -8.94962
443 1 4.71655 11.0069 7.86186 -8.95013
32 1 4.71704 7.86202 1.57241 -8.94969
33 1 6.28934 6.28933 0.00017538 -8.94966
34 1 7.86181 7.86166 1.57205 -8.94969
442 1 1.57229 11.0068 7.86187 -8.94962
36 1 11.0071 7.8617 1.57197 -8.94948
397 1 14.1527 11.0069 4.71591 -8.94943
38 1 14.1526 7.86147 1.57158 -8.94968
39 1 15.7248 6.28923 -9.22755e-05 -8.9496
40 1 17.2972 7.86194 1.57215 -8.94968
396 1 11.0077 11.0072 4.70823 -8.96416
42 1 20.4417 7.86206 1.57235 -8.94961
395 1 7.86249 11.0071 4.71659 -8.9505
44 1 3.14467 9.43448 0.000234199 -8.9496
350 1 20.4417 11.0069 1.57232 -8.9496
518 1 20.4422 11.0065 11.0067 -8.94966
47 1 12.5798 9.4342 -0.00041363 -8.95004
348 1 14.1524 11.007 1.57158 -8.94931
49 1 18.8694 9.43446 -2.84352e-07 -8.9496
172 1 9.4111 9.37732 9.43416 -9.23998
51 1 1.57213 1.57244 4.71687 -8.94962
171 1 6.28852 9.43345 9.43414 -9.00234
53 1 4.71649 1.57232 4.71646 -8.94941
54 1 6.28927 0.000212117 3.14419 -8.9496
55 1 7.86175 1.57233 4.71643 -8.94953
170 1 3.14407 9.4339 9.43421 -8.94917
57 1 11.0071 1.57227 4.7164 -8.94953
169 1 0.000142101 9.43414 9.43425 -8.94965
59 1 14.1525 1.57221 4.7164 -8.94956
60 1 15.7248 0.00013058 3.14418 -8.94959
61 1 17.2974 1.57234 4.71663 -8.9495
168 1 18.87 6.28894 9.43433 -8.94963
63 1 20.4417 1.57241 4.71689 -8.9496
64 1 7.96049e-06 3.14478 3.14457 -8.94957
65 1 1.57218 4.71708 4.7169 -8.94964
66 1 3.14439 3.14468 3.14439 -8.94936
67 1 4.71638 4.71653 4.71635 -8.94885
68 1 6.28932 3.1446 3.1443 -8.94972
69 1 7.86184 4.7165 4.71644 -8.94999
70 1 9.43449 3.14451 3.14429 -8.94958
71 1 11.0072 4.71636 4.71636 -8.94949
72 1 12.5797 3.14448 3.14421 -8.9496
73 1 14.1527 4.71619 4.71624 -8.94971
74 1 15.7249 3.14447 3.14423 -8.94959
75 1 17.2975 4.71673 4.71657 -8.94937
76 1 18.8695 3.14469 3.14446 -8.94951
77 1 20.4418 4.71706 4.71689 -8.9496
78 1 22.014 6.28963 3.14466 -8.94964
79 1 1.57236 7.86201 4.71702 -8.94964
80 1 3.14458 6.28956 3.1446 -8.94963
81 1 4.71682 7.86178 4.71679 -8.94948
82 1 6.28922 6.28918 3.14414 -8.9498
83 1 7.86156 7.86104 4.71578 -8.951
84 1 9.43455 6.28904 3.14432 -8.94954
85 1 11.0071 7.86136 4.71614 -8.94982
86 1 12.5798 6.28903 3.14413 -8.94996
87 1 14.1539 7.86008 4.71499 -8.94792
88 1 15.7252 6.28889 3.14389 -8.94911
89 1 17.2976 7.86168 4.71661 -8.94995
90 1 18.8696 6.28948 3.14448 -8.94967
91 1 20.4419 7.86197 4.71695 -8.94969
92 1 0.000145987 9.4345 3.1447 -8.9496
93 1 3.14475 9.43451 3.14473 -8.9496
94 1 6.2895 9.43449 3.14454 -8.94994
95 1 9.43409 9.43374 3.14348 -8.94817
96 1 12.5807 9.43351 3.14252 -8.94958
97 1 15.725 9.43433 3.14417 -8.94971
98 1 18.8695 9.43445 3.14453 -8.94959
99 1 -5.39212e-05 0.000137046 6.28933 -8.94961
100 1 1.57208 1.57241 7.86186 -8.9496
101 1 3.14419 0.000253117 6.28918 -8.94959
102 1 4.71641 1.57229 7.86169 -8.94953
167 1 15.726 6.28769 9.43421 -8.94932
104 1 7.8612 1.57176 7.86121 -8.95006
105 1 9.43432 0.000515563 6.28865 -8.94949
106 1 11.0073 1.57175 7.86122 -8.94969
107 1 12.58 0.000451606 6.28862 -8.94958
108 1 14.1528 1.57207 7.86137 -8.94976
166 1 12.5814 6.28378 9.43334 -8.94965
110 1 17.2975 1.57224 7.8617 -8.94958
111 1 18.8696 0.0001423 6.28922 -8.94962
112 1 20.4418 1.57237 7.86185 -8.94961
113 1 22.0139 3.14472 6.28938 -8.94962
114 1 1.57216 4.71695 7.86188 -8.94964
115 1 3.14426 3.14461 6.28926 -8.94968
116 1 4.71634 4.71642 7.86174 -8.94985
117 1 6.28853 3.14373 6.28852 -8.94933
118 1 7.86015 4.71334 7.86026 -8.94881
119 1 9.43443 3.14376 6.28876 -8.94935
120 1 11.008 4.71376 7.86066 -8.94758
121 1 12.5802 3.14367 6.28859 -8.94946
122 1 14.1534 4.71505 7.86108 -8.94965
123 1 15.7253 3.14414 6.28887 -8.94952
124 1 17.2977 4.71644 7.86164 -8.94965
125 1 18.8697 3.14458 6.28926 -8.94962
126 1 20.4419 4.71692 7.86184 -8.94964
127 1 0.000125859 6.28943 6.28935 -8.94969
128 1 1.57219 7.86172 7.86182 -8.94976
129 1 3.14419 6.28922 6.28922 -8.9499
130 1 4.716 7.86115 7.86167 -8.95115
131 1 6.28761 6.28725 6.28756 -8.94682
132 1 7.85638 7.85465 7.85613 -8.97984
133 1 9.43482 6.28763 6.28899 -8.95015
134 1 11.0099 7.85802 7.86037 -9.00032
135 1 12.5807 6.28713 6.28813 -8.95055
136 1 14.1556 7.85808 7.85985 -8.94626
137 1 15.7259 6.28821 6.28845 -8.94866
138 1 17.2983 7.86098 7.86136 -8.9498
139 1 18.8699 6.28917 6.28915 -8.94958
140 1 20.4421 7.86166 7.86172 -8.9497
141 1 22.0141 9.4344 6.2894 -8.94966
142 1 3.14455 9.43439 6.28937 -8.94978
143 1 6.28871 9.43404 6.28868 -8.94899
144 1 9.43336 9.43233 6.28881 -9.00424
145 1 12.5845 9.42886 6.28433 -8.98236
146 1 15.7258 9.43393 6.28882 -8.9511
147 1 18.8698 9.4343 6.28922 -8.94976
165 1 9.43285 6.27437 9.43359 -8.96327
164 1 6.28858 6.28741 9.43457 -8.94971
150 1 6.28865 0.000465313 9.43431 -8.94955
163 1 3.14421 6.28896 9.43446 -8.94948
162 1 22.014 6.28928 9.4344 -8.94966
153 1 15.7252 0.000268219 9.43425 -8.94959
161 1 18.8697 3.14445 9.43438 -8.94961
155 1 2.807e-06 3.14464 9.43443 -8.94961
156 1 3.14421 3.14447 9.43444 -8.94959
157 1 6.28863 3.14359 9.43441 -8.94927
158 1 9.43406 3.1411 9.43416 -8.95301
159 1 12.5803 3.14268 9.4341 -8.94995
160 1 15.7253 3.14387 9.4343 -8.94952
344 1 1.5724 11.0069 1.57244 -8.94961
345 1 4.7171 11.007 1.57239 -8.94958
346 1 7.86204 11.007 1.57215 -8.94951
347 1 11.0071 11.007 1.5705 -8.95212
513 1 4.71442 11.0059 11.0067 -8.94907
181 1 17.2975 1.57213 11.007 -8.94958
188 1 17.2977 4.71625 11.007 -8.94956
190 1 1.57204 7.8616 11.007 -8.94974
191 1 4.71581 7.86084 11.0072 -8.95103
192 1 7.85704 7.85434 11.0128 -8.98039
193 1 11.0098 7.8431 11.0099 -9.01609
512 1 1.57163 11.0066 11.0068 -8.94984
177 1 4.71634 1.57218 11.0071 -8.94952
184 1 4.71621 4.71617 11.0072 -8.9497
189 1 20.4419 4.71682 11.007 -8.94961
7 1 9.43448 6.1357e-06 -9.41544e-05 -8.94961
643 1 17.297 11.0069 20.4415 -8.94958
644 1 20.4416 11.0069 20.4417 -8.94959
178 1 7.86118 1.57153 11.0074 -8.94992
179 1 11.0073 1.57135 11.0074 -8.95091
180 1 14.1528 1.57182 11.0071 -8.94967
639 1 4.71692 11.0069 20.4419 -8.94961
182 1 20.4417 1.57231 11.007 -8.94961
183 1 1.57207 4.71684 11.007 -8.94961
638 1 1.57225 11.0069 20.4418 -8.94959
185 1 7.86023 4.713 11.0084 -8.94877
186 1 11.008 4.71077 11.0082 -8.95206
187 1 14.1533 4.71458 11.0073 -8.9498
48 1 15.7247 9.43439 22.0137 -8.94959
35 1 9.43447 6.28926 22.0141 -8.9496
46 1 9.43438 9.43422 22.0138 -8.94979
45 1 6.28947 9.43443 22.0141 -8.94971
43 1 22.0139 9.43449 22.014 -8.9496
546 1 20.442 11.0065 14.1522 -8.94988
194 1 14.1549 7.85711 11.0079 -8.94858
195 1 17.2982 7.86072 11.007 -8.94988
196 1 20.442 7.86157 11.0069 -8.94971
197 1 -0.000113663 7.91745e-05 12.5795 -8.9496
198 1 1.57201 1.5723 14.1522 -8.94962
343 1 18.8694 9.43434 18.8694 -8.94965
200 1 4.71631 1.57205 14.1526 -8.94952
41 1 18.8694 6.28954 22.014 -8.94964
202 1 7.86138 1.57182 14.1528 -8.94966
203 1 9.43406 0.0005866 12.5802 -8.94977
204 1 11.0071 1.57166 14.1528 -8.9496
205 1 12.5802 0.000493618 12.5802 -8.94987
206 1 14.1528 1.5717 14.1528 -8.94964
37 1 12.5796 6.28924 22.0139 -8.94962
208 1 17.2974 1.57206 14.1523 -8.94959
342 1 15.7247 9.4342 18.8695 -8.94989
210 1 20.4417 1.57227 14.1521 -8.94961
211 1 22.0139 3.14458 12.5796 -8.94962
212 1 1.57195 4.71679 14.1523 -8.94969
213 1 3.1441 3.14439 12.5797 -8.94965
214 1 4.71594 4.71595 14.153 -8.94908
215 1 6.28837 3.14332 12.5804 -8.94942
216 1 7.86095 4.71486 14.1535 -8.94978
217 1 9.43403 3.14251 12.5805 -8.94967
218 1 11.0071 4.71453 14.1534 -8.94958
219 1 12.5805 3.14238 12.5806 -8.94983
220 1 14.1534 4.71465 14.1534 -8.94931
221 1 15.7254 3.14374 12.5799 -8.94959
222 1 17.2977 4.71626 14.1525 -8.94953
223 1 18.8697 3.14439 12.5796 -8.94961
224 1 20.4418 4.71682 14.1521 -8.94965
225 1 -1.77684e-05 6.28924 12.5796 -8.94973
226 1 1.57183 7.86156 14.1523 -8.94966
227 1 3.14386 6.28888 12.5798 -8.94994
228 1 4.71562 7.86076 14.153 -8.94973
229 1 6.28709 6.28654 12.5816 -8.94752
230 1 7.85932 7.85777 14.1556 -8.95014
231 1 9.43318 6.28397 12.5817 -8.94851
232 1 11.0069 7.85753 14.1545 -8.95125
233 1 12.582 6.28329 12.5822 -8.94864
234 1 14.1552 7.85733 14.1551 -8.9474
235 1 15.7261 6.28756 12.5802 -8.94907
236 1 17.298 7.861 14.1524 -8.95042
237 1 18.8699 6.2889 12.5796 -8.94965
238 1 20.4418 7.8616 14.1521 -8.94971
239 1 22.0138 9.4341 12.5795 -8.94967
240 1 3.14347 9.43387 12.5798 -8.94972
241 1 6.28646 9.43277 12.5812 -8.94948
242 1 9.42874 9.42615 12.5863 -9.0495
243 1 12.5869 9.42265 12.5873 -9.02385
244 1 15.7264 9.43321 12.5794 -8.95216
245 1 18.8701 9.4339 12.5794 -8.94959
341 1 12.5798 9.43377 18.8703 -8.95025
247 1 1.57207 1.57229 17.2972 -8.94953
248 1 3.14416 8.45752e-05 15.7249 -8.94953
249 1 4.71664 1.57217 17.2974 -8.94958
340 1 9.43417 9.43376 18.8705 -8.9501
251 1 7.86173 1.57202 17.2975 -8.94961
252 1 9.43431 1.11549e-05 15.7251 -8.94962
253 1 11.007 1.57194 17.2975 -8.9496
254 1 12.5798 -5.02341e-05 15.7251 -8.94962
255 1 14.1523 1.57197 17.2974 -8.94962
339 1 6.2891 9.43413 18.8701 -8.94998
257 1 17.2973 1.57211 17.2973 -8.94951
258 1 18.8695 -2.1716e-05 15.7247 -8.9496
259 1 20.4417 1.57227 17.2971 -8.94958
260 1 -7.99984e-05 3.14458 15.7247 -8.94962
261 1 1.57206 4.7169 17.2972 -8.94963
262 1 3.14412 3.14436 15.725 -8.94945
263 1 4.71641 4.71644 17.2977 -8.94946
264 1 6.28882 3.1439 15.7254 -8.94964
265 1 7.86156 4.71614 17.2979 -8.94962
266 1 9.43426 3.14365 15.7254 -8.9496
267 1 11.007 4.71604 17.2978 -8.94951
268 1 12.5799 3.14363 15.7254 -8.94966
269 1 14.1525 4.71614 17.2978 -8.94969
270 1 15.7252 3.14384 15.7252 -8.94945
271 1 17.2975 4.71647 17.2975 -8.94934
272 1 18.8696 3.14441 15.7247 -8.94959
273 1 20.4417 4.71691 17.2971 -8.94964
274 1 22.0138 6.28927 15.7247 -8.94967
275 1 1.57193 7.86163 17.2974 -8.94954
276 1 3.14398 6.28894 15.7251 -8.94967
277 1 4.71609 7.86114 17.298 -8.9491
278 1 6.28815 6.28774 15.7262 -8.94939
279 1 7.86098 7.86052 17.2988 -8.94922
280 1 9.43401 6.2873 15.7262 -8.94974
281 1 11.007 7.86049 17.2985 -8.94903
282 1 12.5801 6.28732 15.7261 -8.95016
283 1 14.153 7.8605 17.2985 -8.94918
284 1 15.7258 6.28778 15.7258 -8.94881
285 1 17.2976 7.8613 17.2975 -8.94927
286 1 18.8698 6.28903 15.7248 -8.9498
287 1 20.4418 7.86167 17.2972 -8.94954
288 1 -0.000158896 9.43409 15.7248 -8.9497
289 1 3.14351 9.43372 15.7254 -8.94947
290 1 6.28715 9.43234 15.727 -8.94796
291 1 9.43277 9.431 15.7286 -8.9474
292 1 12.5813 9.43084 15.7285 -8.9481
293 1 15.7262 9.43271 15.7258 -8.94829
294 1 18.87 9.43379 15.725 -8.94946
295 1 -8.24416e-05 6.83718e-06 18.8694 -8.94954
296 1 1.5722 1.57235 20.4417 -8.94953
338 1 3.14439 9.4343 18.8697 -8.94963
298 1 4.71692 1.57229 20.4418 -8.9496
299 1 6.28931 -2.29353e-05 18.8696 -8.94962
300 1 7.86191 1.57222 20.4418 -8.9496
337 1 22.0138 9.43437 18.8695 -8.94957
302 1 11.007 1.57218 20.4418 -8.9496
336 1 20.4416 7.86199 20.4417 -8.94962
304 1 14.1521 1.57218 20.4417 -8.9496
305 1 15.7246 -0.000100314 18.8695 -8.94962
306 1 17.297 1.57224 20.4417 -8.9496
335 1 18.8695 6.2893 18.8696 -8.9495
308 1 20.4416 1.57234 20.4417 -8.9495
309 1 22.0139 3.14467 18.8695 -8.94958
310 1 1.57222 4.71709 20.4418 -8.94953
311 1 3.14438 3.14454 18.8696 -8.94953
312 1 4.71684 4.71691 20.442 -8.94957
313 1 6.28925 3.14437 18.8698 -8.94961
314 1 7.86187 4.71679 20.442 -8.94963
315 1 9.43441 3.14427 18.8698 -8.94958
316 1 11.007 4.71675 20.4419 -8.94961
317 1 12.5796 3.14426 18.8697 -8.94959
318 1 14.1522 4.71677 20.4419 -8.94964
319 1 15.7247 3.14434 18.8697 -8.94961
320 1 17.2972 4.71687 20.4418 -8.94951
321 1 18.8695 3.14453 18.8695 -8.94948
322 1 20.4417 4.71709 20.4418 -8.94955
323 1 -4.76425e-05 6.28941 18.8696 -8.94954
324 1 1.57225 7.86198 20.4419 -8.94961
325 1 3.14431 6.28925 18.8698 -8.94945
326 1 4.71687 7.86185 20.4421 -8.9497
327 1 6.28901 6.28891 18.8701 -8.94952
328 1 7.86173 7.86157 20.4422 -8.94974
329 1 9.43432 6.28879 18.8701 -8.94958
330 1 11.007 7.86154 20.442 -8.9496
331 1 12.5797 6.2888 18.87 -8.9496
332 1 14.1523 7.86155 20.4419 -8.9498
333 1 15.725 6.28891 18.8699 -8.94947
334 1 17.2971 7.86187 20.4417 -8.94967
545 1 17.2991 11.0056 14.1529 -8.94866
543 1 11.0071 10.9997 14.1663 -9.00228
515 1 11.0306 10.9451 11.0369 -9.42574
541 1 4.71403 11.0057 14.1538 -8.94863
540 1 1.5714 11.0066 14.1524 -8.94987
31 1 3.1446 6.28956 22.0141 -8.94964
15 1 22.0139 3.14478 22.014 -8.94953
19 1 6.28943 3.14463 22.014 -8.94963
25 1 15.7246 3.14457 22.0139 -8.94964
3 1 3.14454 3.9958e-05 22.0139 -8.94958
176 1 1.57204 1.57235 11.007 -8.9496
688 2 10.1954 11.0158 9.4088 0.803
511 1 18.8697 18.8696 9.43425 -8.94962
510 1 15.7255 18.8705 9.43407 -8.94982
509 1 12.5812 18.8737 9.43287 -8.94951
508 1 9.43305 18.8756 9.43296 -8.95251
507 1 6.28812 18.8713 9.43418 -8.94958
506 1 3.14388 18.8699 9.43431 -8.94959
349 1 17.2971 11.0069 1.57208 -8.94959
352 1 1.57233 14.1518 1.57235 -8.94961
154 1 18.8696 22.014 9.43435 -8.9496
354 1 4.71697 14.1519 1.57223 -8.94966
152 1 12.5802 22.0148 9.43401 -8.95006
356 1 7.86174 14.1523 1.57168 -8.94969
151 1 9.43407 22.0149 9.43404 -8.951
358 1 11.007 14.1522 1.57149 -8.94945
149 1 3.14413 22.0141 9.43439 -8.94957
360 1 14.1526 14.1524 1.57118 -8.94962
361 1 15.7247 12.5794 -0.00037315 -8.94952
362 1 17.2971 14.1519 1.57198 -8.94966
537 1 14.1529 20.4428 11.007 -8.9495
364 1 20.4417 14.1518 1.57226 -8.94961
148 1 -7.93263e-05 22.014 9.4344 -8.9496
366 1 1.57222 17.2967 1.57222 -8.94962
109 1 15.7252 22.0143 6.28882 -8.94954
368 1 4.71681 17.297 1.57197 -8.94963
103 1 6.28867 22.0144 6.28863 -8.94962
370 1 7.86188 17.2971 1.57182 -8.94974
371 1 9.43446 15.7245 -0.000329824 -8.9497
372 1 11.0071 17.2971 1.57171 -8.94964
373 1 12.5796 15.7245 -0.000483185 -8.9497
374 1 14.1522 17.2971 1.57167 -8.94983
62 1 18.8695 22.014 3.1444 -8.9495
376 1 17.2972 17.2969 1.57186 -8.94944
377 1 18.8693 15.7242 -0.000135052 -8.94963
378 1 20.4417 17.2967 1.57218 -8.94962
379 1 22.0139 18.8691 -6.02095e-06 -8.94959
380 1 1.57216 20.4416 1.57217 -8.9495
58 1 12.5797 22.0141 3.14412 -8.94958
382 1 4.71687 20.4417 1.57203 -8.94963
383 1 6.28939 18.8693 -0.000126977 -8.94967
384 1 7.8619 20.4417 1.57196 -8.94961
56 1 9.43445 22.0141 3.14415 -8.94958
386 1 11.007 20.4417 1.57191 -8.94959
52 1 3.14433 22.0141 3.1443 -8.94941
388 1 14.1522 20.4417 1.5719 -8.94962
389 1 15.7246 18.8692 -0.000262305 -8.94968
390 1 17.2971 20.4417 1.57199 -8.94957
50 1 22.0139 22.014 3.14451 -8.94956
392 1 20.4416 20.4415 1.57219 -8.94956
393 1 1.57241 11.0069 4.71704 -8.94956
394 1 4.71704 11.007 4.7169 -8.94913
505 1 -0.000130371 18.8695 9.43433 -8.94962
504 1 18.8703 15.725 9.43394 -8.94961
503 1 15.7271 15.7264 9.43328 -8.95016
398 1 17.2974 11.0069 4.71664 -8.94941
399 1 20.4418 11.0069 4.71695 -8.9496
400 1 0.000110902 12.5794 3.14466 -8.9496
401 1 1.57224 14.1519 4.71694 -8.94961
402 1 3.14469 12.5794 3.14467 -8.9496
403 1 4.71662 14.1522 4.71663 -8.94948
404 1 6.28941 12.5795 3.14441 -8.94987
405 1 7.86123 14.1533 4.71528 -8.95097
406 1 9.43402 12.5804 3.14321 -8.94813
407 1 11.007 14.1529 4.71553 -8.94987
408 1 12.5807 12.5806 3.14217 -8.94967
409 1 14.1541 14.154 4.71454 -8.94752
410 1 15.725 12.5795 3.14407 -8.94965
411 1 17.2976 14.1521 4.71653 -8.94998
412 1 18.8695 12.5794 3.14448 -8.94959
413 1 20.4418 14.1518 4.71689 -8.94968
414 1 22.0139 15.7243 3.14456 -8.94963
415 1 1.57201 17.2969 4.71675 -8.94968
416 1 3.14445 15.7244 3.14443 -8.94963
417 1 4.7161 17.2977 4.71602 -8.94886
418 1 6.28903 15.7249 3.14376 -8.94977
419 1 7.8615 17.298 4.71575 -8.95023
420 1 9.43446 15.7251 3.14376 -8.94972
421 1 11.0072 17.2982 4.71575 -8.9493
422 1 12.5798 15.7251 3.14357 -8.95017
423 1 14.153 17.2981 4.71556 -8.94997
424 1 15.7253 15.725 3.14357 -8.94898
425 1 17.2975 17.2972 4.71638 -8.94952
426 1 18.8696 15.7244 3.14436 -8.94969
427 1 20.4418 17.2969 4.71678 -8.94965
428 1 -6.46935e-05 18.8692 3.14447 -8.9496
429 1 1.57204 20.4418 4.71677 -8.94958
430 1 3.14427 18.8694 3.14423 -8.94939
431 1 4.71633 20.4422 4.71627 -8.94928
432 1 6.28915 18.8697 3.14395 -8.94974
433 1 7.86165 20.4423 4.71621 -8.94958
434 1 9.43443 18.8698 3.14392 -8.94957
435 1 11.0071 20.4423 4.71619 -8.94953
436 1 12.5797 18.8697 3.14385 -8.94959
437 1 14.1526 20.4422 4.71618 -8.94963
438 1 15.725 18.8697 3.1439 -8.94961
439 1 17.2974 20.4419 4.71647 -8.94936
440 1 18.8695 18.8693 3.14433 -8.94959
441 1 20.4417 20.4417 4.7168 -8.94958
502 1 12.5863 15.7343 9.42794 -8.98067
501 1 9.42758 15.7442 9.42858 -8.99671
500 1 6.28663 15.7277 9.43363 -8.95009
445 1 11.0327 11.0087 7.81541 -9.27157
499 1 3.14334 15.7253 9.43408 -8.94943
498 1 22.0138 15.7247 9.43419 -8.94974
497 1 18.8701 12.5793 9.43417 -8.94973
449 1 22.014 12.5794 6.28938 -8.94966
450 1 1.57197 14.152 7.86178 -8.94985
451 1 3.14439 12.5795 6.28933 -8.9497
452 1 4.71552 14.1527 7.86153 -8.95162
453 1 6.28842 12.58 6.28865 -8.94863
454 1 7.85525 14.16 7.85524 -8.9807
455 1 9.43288 12.5824 6.28839 -9.00383
456 1 11.0098 14.1562 7.85919 -9.05526
457 1 12.585 12.5856 6.2835 -8.98171
458 1 14.1553 14.1546 7.85966 -8.94749
459 1 15.7258 12.5796 6.28884 -8.95094
460 1 17.2981 14.1523 7.86135 -8.95015
461 1 18.8698 12.5794 6.28922 -8.94969
462 1 20.4419 14.1519 7.86171 -8.94976
463 1 -3.31939e-05 15.7244 6.28927 -8.94975
464 1 1.5718 17.2972 7.86163 -8.94962
465 1 3.14389 15.7248 6.28902 -8.94999
466 1 4.71551 17.2982 7.86121 -8.94977
467 1 6.28706 15.7272 6.28701 -8.9467
468 1 7.85842 17.3027 7.85853 -8.9466
469 1 9.43445 15.7272 6.28776 -8.95157
470 1 11.0079 17.3016 7.85987 -8.94759
471 1 12.581 15.7275 6.28688 -8.9522
472 1 14.1549 17.3004 7.85935 -8.94702
473 1 15.7259 15.7255 6.28823 -8.94901
474 1 17.2981 17.2977 7.86119 -8.9497
475 1 18.8698 15.7246 6.28905 -8.94968
476 1 20.4419 17.2971 7.86161 -8.94965
477 1 22.0138 18.8694 6.28921 -8.94961
478 1 1.57197 20.4419 7.86178 -8.94961
479 1 3.14394 18.8698 6.28899 -8.94962
480 1 4.71619 20.4423 7.86155 -8.9496
481 1 6.28793 18.8713 6.28789 -8.94869
482 1 7.86079 20.4437 7.86077 -8.94989
483 1 9.43425 18.8712 6.28821 -8.94948
484 1 11.0073 20.4436 7.8609 -8.94944
485 1 12.5803 18.8711 6.28806 -8.94963
486 1 14.1531 20.4431 7.86093 -8.94956
487 1 15.7257 18.8705 6.2883 -8.94882
488 1 17.2975 20.442 7.86159 -8.94967
489 1 18.8698 18.8696 6.28904 -8.94959
490 1 20.4417 20.4418 7.86178 -8.94962
491 1 9.54781e-06 12.5793 9.43426 -8.94957
492 1 3.14389 12.5795 9.43438 -8.94928
493 1 6.28805 12.58 9.43493 -9.00394
494 1 9.4099 12.6363 9.43427 -9.24811
495 1 12.5882 12.5853 9.43137 -9.0189
496 1 15.7267 12.5797 9.43429 -8.95199
536 1 11.0073 20.4451 11.0072 -8.95296
5 1 6.28943 22.0139 -4.59878e-05 -8.94961
516 1 14.1529 11.0034 11.0031 -9.05045
519 1 1.57141 14.1522 11.0068 -8.94996
520 1 4.71379 14.1536 11.0065 -8.9498
521 1 7.85388 14.1616 11.0107 -9.03247
522 1 11.0091 14.2143 10.9847 -9.26095
523 1 14.1558 14.1565 11.0049 -9.00065
524 1 17.2993 14.153 11.0061 -8.94841
525 1 20.4421 14.1521 11.0067 -8.94986
527 1 4.71553 17.2983 11.0071 -8.94956
535 1 7.86099 20.4435 11.0073 -8.94981
531 1 17.2979 17.2977 11.0068 -8.9495
353 1 3.14465 12.5794 0.000155336 -8.94959
687 2 10.9994 12.6082 11.7856 0.792246
686 1 20.4416 20.4415 20.4417 -8.94948
514 1 7.85615 11.004 11.0096 -9.03479
685 1 18.8694 18.8692 18.8694 -8.94941
307 1 18.8694 22.0139 18.8694 -8.94953
684 1 17.297 20.4415 20.4416 -8.94961
683 1 15.7247 18.8693 18.8694 -8.94961
303 1 12.5796 22.0138 18.8695 -8.94959
301 1 9.43443 22.0138 18.8696 -8.94959
297 1 3.14441 22.0139 18.8696 -8.94957
256 1 15.725 22.0139 15.725 -8.94953
250 1 6.28892 22.014 15.7252 -8.94959
246 1 22.0138 22.0139 15.7246 -8.9496
209 1 18.8696 22.0139 12.5796 -8.94959
526 1 1.57171 17.2973 11.0069 -8.94958
199 1 3.14409 22.0141 12.5797 -8.94957
528 1 7.85967 17.3021 11.0083 -8.94951
529 1 11.0077 17.3119 11.0072 -8.96516
671 1 18.8693 15.7242 18.8693 -8.9497
670 1 17.297 17.2968 20.4415 -8.94963
669 1 15.7247 15.7244 18.8694 -8.94995
533 1 1.57192 20.4418 11.007 -8.94959
534 1 4.71616 20.4423 11.0071 -8.9495
668 1 14.1521 17.2968 20.4415 -8.94969
667 1 12.5795 15.7245 18.8693 -8.94989
666 1 11.007 17.2969 20.4415 -8.94961
538 1 17.2975 20.442 11.0069 -8.94957
539 1 20.4417 20.4417 11.0069 -8.9496
682 1 14.1521 20.4415 20.4416 -8.94963
681 1 12.5796 18.8693 18.8694 -8.94961
542 1 7.85671 11.0013 14.1579 -8.98083
680 1 11.007 20.4416 20.4416 -8.94961
544 1 14.1556 11.0017 14.1552 -8.98037
679 1 9.4344 18.8693 18.8695 -8.9496
678 1 7.86191 20.4416 20.4417 -8.94963
547 1 22.0137 12.5793 12.5795 -8.95055
548 1 1.57127 14.1522 14.1524 -8.94996
549 1 3.14177 12.5795 12.5798 -8.95268
550 1 4.71364 14.1534 14.1538 -8.949
551 1 6.27714 12.58 12.5815 -8.9636
552 1 7.8553 14.1584 14.1582 -8.98248
553 1 9.38147 12.5804 12.6026 -9.26833
554 1 11.0065 14.1562 14.1553 -8.98239
555 1 12.6297 12.5814 12.6002 -9.24391
556 1 14.1573 14.1575 14.1562 -8.98065
557 1 15.735 12.579 12.5793 -8.96504
558 1 17.2993 14.1528 14.1528 -8.9494
559 1 18.8714 12.5792 12.5794 -8.95253
560 1 20.442 14.152 14.1522 -8.94997
561 1 -0.000251213 15.7246 12.5795 -8.94973
562 1 1.57165 17.2972 14.1523 -8.94965
563 1 3.14308 15.7251 12.5798 -8.94983
564 1 4.71541 17.2982 14.153 -8.94921
565 1 6.28565 15.7275 12.5814 -8.94757
566 1 7.86025 17.2996 14.1536 -8.95042
567 1 9.43128 15.7293 12.5824 -9.00087
568 1 11.007 17.2991 14.1524 -8.95033
569 1 12.5831 15.7294 12.5825 -8.99991
570 1 14.1537 17.2992 14.1532 -8.9498
571 1 15.7265 15.7255 12.5795 -8.94976
572 1 17.2977 17.2974 14.1522 -8.94985
573 1 18.8701 15.7247 12.5794 -8.94955
574 1 20.4417 17.297 14.1521 -8.94964
575 1 22.0137 18.8694 12.5795 -8.94961
576 1 1.57191 20.4418 14.1522 -8.94962
577 1 3.1438 18.8698 12.5797 -8.94962
578 1 4.71615 20.4422 14.1526 -8.94953
579 1 6.28789 18.8711 12.5803 -8.94939
580 1 7.86114 20.4427 14.1529 -8.94952
581 1 9.43323 18.8727 12.5808 -8.94786
582 1 11.0071 20.4425 14.1526 -8.94949
583 1 12.5811 18.8726 12.5808 -8.94795
584 1 14.1529 20.4425 14.1528 -8.94947
585 1 15.7255 18.8702 12.5797 -8.94954
586 1 17.2974 20.4418 14.1522 -8.94962
587 1 18.8697 18.8695 12.5795 -8.94961
588 1 20.4417 20.4417 14.1521 -8.94961
677 1 6.28922 18.8694 18.8697 -8.94961
676 1 4.7169 20.4416 20.4417 -8.94961
591 1 7.86149 11.0067 17.2982 -8.9512
592 1 11.0069 11.0063 17.2995 -8.95382
593 1 14.1522 11.0067 17.2973 -8.95071
675 1 3.14428 18.8694 18.8697 -8.9494
674 1 1.57217 20.4416 20.4417 -8.94949
596 1 -0.00023968 12.5793 15.7248 -8.94954
597 1 1.57191 14.1519 17.2973 -8.94951
598 1 3.1436 12.5794 15.7251 -8.94924
599 1 4.71633 14.152 17.2976 -8.94974
600 1 6.28794 12.5794 15.7255 -8.94957
601 1 7.86132 14.1522 17.298 -8.95138
602 1 9.43424 12.5799 15.7248 -9.00012
603 1 11.0069 14.1521 17.2973 -8.95037
604 1 12.5791 12.5799 15.7239 -8.99925
605 1 14.1523 14.152 17.2972 -8.95113
606 1 15.7251 12.5791 15.7242 -8.94972
607 1 17.2971 14.1518 17.2969 -8.94985
608 1 18.8697 12.5792 15.7247 -8.94923
609 1 20.4416 14.1518 17.297 -8.94952
610 1 22.0136 15.7245 15.7248 -8.94973
611 1 1.57184 17.297 17.2973 -8.94952
612 1 3.14334 15.725 15.7254 -8.94945
613 1 4.71607 17.2975 17.2979 -8.94898
614 1 6.28696 15.7266 15.7269 -8.94748
615 1 7.86145 17.2975 17.2977 -8.94943
616 1 9.43378 15.7262 15.726 -8.9489
617 1 11.007 17.2974 17.2973 -8.94908
618 1 12.58 15.726 15.7257 -8.94934
619 1 14.1524 17.2973 17.2974 -8.94948
620 1 15.7263 15.726 15.7259 -8.94744
621 1 17.2975 17.2972 17.2974 -8.94902
622 1 18.87 15.7248 15.7249 -8.94955
623 1 20.4417 17.2969 17.2972 -8.94954
624 1 -0.000204587 18.8693 15.7247 -8.94961
625 1 1.57201 20.4417 17.2972 -8.94954
626 1 3.14392 18.8697 15.725 -8.94948
627 1 4.71657 20.4419 17.2974 -8.94957
628 1 6.28857 18.8703 15.7254 -8.94966
629 1 7.86172 20.4418 17.2974 -8.94965
630 1 9.43423 18.8701 15.7252 -8.94988
631 1 11.007 20.4417 17.2973 -8.94955
632 1 12.5798 18.87 15.7251 -8.94994
633 1 14.1522 20.4417 17.2973 -8.94966
634 1 15.7252 18.87 15.7251 -8.94947
635 1 17.2972 20.4417 17.2972 -8.94951
636 1 18.8696 18.8694 15.7247 -8.94968
637 1 20.4416 20.4416 17.297 -8.9496
11 1 15.7246 22.0139 22.0138 -8.94961
673 1 22.0138 18.8692 18.8695 -8.94951
640 1 7.86185 11.0069 20.4419 -8.94968
641 1 11.007 11.0069 20.4417 -8.9506
642 1 14.1522 11.0069 20.4414 -8.94959
672 1 20.4416 17.2967 20.4416 -8.94963
391 1 18.8694 18.8692 22.0138 -8.94954
645 1 22.0138 12.5793 18.8694 -8.94957
646 1 1.57222 14.1518 20.4418 -8.94959
647 1 3.14437 12.5793 18.8696 -8.94957
648 1 4.71688 14.1519 20.4418 -8.94962
649 1 6.28909 12.5794 18.8698 -8.94946
650 1 7.8618 14.152 20.4417 -8.94981
651 1 9.43422 12.5795 18.8696 -8.94903
652 1 11.007 14.1519 20.4413 -8.94969
653 1 12.5797 12.5795 18.8692 -8.94896
654 1 14.1522 14.152 20.4412 -8.94979
655 1 15.7246 12.5793 18.8691 -8.94936
656 1 17.297 14.1518 20.4414 -8.94958
657 1 18.8693 12.5793 18.8693 -8.94959
658 1 20.4416 14.1518 20.4416 -8.94959
659 1 -0.000138813 15.7243 18.8694 -8.94957
660 1 1.57217 17.2967 20.4417 -8.94962
661 1 3.14433 15.7244 18.8696 -8.94966
662 1 4.71681 17.2969 20.4418 -8.94969
663 1 6.28907 15.7246 18.8699 -8.95001
664 1 7.86187 17.2969 20.4417 -8.94969
665 1 9.43436 15.7246 18.8695 -8.94987
207 1 15.7252 22.014 12.5797 -8.94959
355 1 6.28944 12.5794 22.014 -8.94964
357 1 9.43436 12.5796 22.0135 -8.94958
359 1 12.5798 12.5796 22.0131 -8.94982
365 1 -2.06595e-05 15.7242 22.0139 -8.9496
367 1 3.14457 15.7243 22.014 -8.94963
369 1 6.28933 15.7245 22.0137 -8.94973
375 1 15.7247 15.7245 22.0134 -8.94963
381 1 3.1445 18.8692 22.0139 -8.9496
385 1 9.43447 18.8693 22.0137 -8.94962
387 1 12.5796 18.8693 22.0136 -8.94963
595 1 20.4416 11.0068 17.2971 -8.94952
594 1 17.2971 11.0067 17.2971 -8.94973
590 1 4.7164 11.0067 17.2977 -8.94964
589 1 1.57196 11.0068 17.2973 -8.94951
201 1 6.28861 22.0142 12.58 -8.94968
351 1 22.0139 12.5793 22.014 -8.9496
363 1 18.8693 12.5793 22.0138 -8.94959
1 1 -4.81656e-05 22.0139 22.0139 -8.94948
530 1 14.1533 17.2997 11.007 -8.95018
532 1 20.4418 17.2971 11.0069 -8.94961
