ITEM: TIMESTEP
33
ITEM: NUMBER OF ATOMS
688
ITEM: BOX BOUNDS pp pp pp
0.0000000000000000e+00 2.2013900999999997e+01
0.0000000000000000e+00 2.2013900999999997e+01
0.0000000000000000e+00 2.2013900999999997e+01
ITEM: ATOMS id type x y z c_pot
175 1 18.8691 9.43453 9.43453 -8.94966
2 1 1.57242 1.57242 1.57242 -8.94963
517 1 17.2966 11.0069 11.0069 -8.94923
4 1 4.71726 1.57242 1.57242 -8.94963
174 1 15.7243 9.43454 9.43453 -8.95056
6 1 7.86211 1.57242 1.57242 -8.94963
448 1 20.4415 11.007 7.86211 -8.94963
8 1 11.007 1.57242 1.57242 -8.94963
9 1 12.5794 2.38275e-10 5.51155e-10 -8.94963
10 1 14.1518 1.57242 1.57242 -8.94963
173 1 12.5825 9.43301 9.43473 -9.02542
12 1 17.2966 1.57242 1.57242 -8.94963
13 1 18.8691 1.43199e-11 6.83253e-11 -8.94963
14 1 20.4415 1.57242 1.57242 -8.94963
447 1 17.2966 11.0069 7.8621 -8.94942
16 1 1.57242 4.71726 1.57242 -8.94963
17 1 3.14484 3.14484 6.17825e-10 -8.94963
18 1 4.71726 4.71726 1.57242 -8.94963
446 1 14.1512 11.0069 7.86255 -8.99697
20 1 7.86211 4.71726 1.57242 -8.94963
21 1 9.43453 3.14484 2.20215e-10 -8.94963
22 1 11.007 4.71726 1.57242 -8.94963
23 1 12.5794 3.14484 2.00689e-09 -8.94963
24 1 14.1518 4.71726 1.57242 -8.94963
444 1 7.85904 11.0069 7.86 -8.98432
26 1 17.2966 4.71726 1.57242 -8.94963
27 1 18.8691 3.14484 1.58825e-10 -8.94963
28 1 20.4415 4.71726 1.57242 -8.94963
29 1 2.51597e-10 6.28969 1.22752e-10 -8.94963
30 1 1.57242 7.86211 1.57242 -8.94963
443 1 4.71718 11.0069 7.86211 -8.95053
32 1 4.71726 7.86211 1.57242 -8.94963
33 1 6.28969 6.28969 1.54537e-08 -8.94963
34 1 7.86211 7.86211 1.57242 -8.94963
442 1 1.57242 11.007 7.86211 -8.94966
36 1 11.007 7.86211 1.57242 -8.94964
397 1 14.1518 11.0069 4.71731 -8.95018
38 1 14.1518 7.86211 1.57242 -8.94963
39 1 15.7242 6.28969 1.75498e-08 -8.94963
40 1 17.2966 7.86211 1.57242 -8.94963
396 1 11.0069 11.0069 4.71659 -8.95477
42 1 20.4415 7.86211 1.57242 -8.94963
395 1 7.86209 11.0069 4.7172 -8.95031
44 1 3.14484 9.43453 8.93351e-09 -8.94963
350 1 20.4415 11.007 1.57242 -8.94963
518 1 20.4415 11.007 11.007 -8.94963
47 1 12.5794 9.43453 1.10689e-07 -8.94963
348 1 14.1518 11.007 1.57242 -8.94963
49 1 18.8691 9.43453 3.20593e-09 -8.94963
172 1 9.42455 9.41527 9.43488 -9.28172
51 1 1.57242 1.57242 4.71726 -8.94963
171 1 6.2904 9.43505 9.43453 -8.99773
53 1 4.71726 1.57242 4.71726 -8.94963
54 1 6.28969 5.47701e-10 3.14484 -8.94963
55 1 7.86211 1.57242 4.71726 -8.94963
170 1 3.14486 9.43453 9.43453 -8.94941
57 1 11.007 1.57242 4.71726 -8.94963
169 1 3.89606e-07 9.43453 9.43453 -8.94963
59 1 14.1518 1.57242 4.71726 -8.94963
60 1 15.7242 5.58156e-10 3.14484 -8.94963
61 1 17.2966 1.57242 4.71726 -8.94963
168 1 18.8691 6.28969 9.43453 -8.94963
63 1 20.4415 1.57242 4.71726 -8.94963
64 1 9.93825e-10 3.14484 3.14484 -8.94963
65 1 1.57242 4.71726 4.71726 -8.94963
66 1 3.14484 3.14484 3.14484 -8.94963
67 1 4.71726 4.71726 4.71726 -8.94964
68 1 6.28969 3.14484 3.14484 -8.94963
69 1 7.86211 4.71726 4.71726 -8.94964
70 1 9.43453 3.14484 3.14484 -8.94963
71 1 11.007 4.71726 4.71726 -8.94963
72 1 12.5794 3.14484 3.14484 -8.94963
73 1 14.1518 4.71726 4.71726 -8.94963
74 1 15.7242 3.14484 3.14484 -8.94963
75 1 17.2966 4.71726 4.71726 -8.94963
76 1 18.8691 3.14484 3.14484 -8.94963
77 1 20.4415 4.71726 4.71726 -8.94963
78 1 22.0139 6.28969 3.14484 -8.94963
79 1 1.57242 7.86211 4.71726 -8.94963
80 1 3.14484 6.28969 3.14484 -8.94963
81 1 4.71726 7.8621 4.71726 -8.94959
82 1 6.28969 6.28969 3.14484 -8.94963
83 1 7.86211 7.86211 4.71727 -8.94968
84 1 9.43453 6.28969 3.14484 -8.94963
85 1 11.0069 7.86212 4.71728 -8.94998
86 1 12.5794 6.28969 3.14484 -8.94964
87 1 14.1518 7.86212 4.71727 -8.94972
88 1 15.7242 6.28969 3.14484 -8.94964
89 1 17.2966 7.86211 4.71727 -8.94964
90 1 18.8691 6.28969 3.14484 -8.94963
91 1 20.4415 7.86211 4.71726 -8.94963
92 1 8.65035e-09 9.43453 3.14484 -8.94963
93 1 3.14484 9.43453 3.14484 -8.94964
94 1 6.28968 9.43453 3.14484 -8.94965
95 1 9.43452 9.43452 3.14484 -8.94947
96 1 12.5794 9.43452 3.14485 -8.94939
97 1 15.7242 9.43453 3.14484 -8.94964
98 1 18.8691 9.43453 3.14484 -8.94963
99 1 1.20159e-10 8.61218e-11 6.28969 -8.94963
100 1 1.57242 1.57242 7.86211 -8.94963
101 1 3.14484 1.0925e-09 6.28969 -8.94963
102 1 4.71726 1.57242 7.86211 -8.94963
167 1 15.7242 6.28969 9.43453 -8.94968
104 1 7.86211 1.57242 7.86211 -8.94963
105 1 9.43453 -2.06098e-08 6.28969 -8.94963
106 1 11.007 1.57242 7.86211 -8.94963
107 1 12.5794 -1.97724e-08 6.28969 -8.94963
108 1 14.1518 1.57242 7.86211 -8.94963
166 1 12.5794 6.28963 9.43452 -8.95006
110 1 17.2966 1.57242 7.86211 -8.94963
111 1 18.8691 1.10417e-09 6.28969 -8.94963
112 1 20.4415 1.57242 7.86211 -8.94963
113 1 22.0139 3.14484 6.28969 -8.94963
114 1 1.57242 4.71726 7.86211 -8.94963
115 1 3.14484 3.14484 6.28969 -8.94963
116 1 4.71726 4.71726 7.86211 -8.94964
117 1 6.28969 3.14484 6.28969 -8.94963
118 1 7.8621 4.71727 7.8621 -8.94939
119 1 9.43453 3.14484 6.28969 -8.94964
120 1 11.007 4.71726 7.8621 -8.94946
121 1 12.5794 3.14484 6.28969 -8.94963
122 1 14.1518 4.71726 7.86211 -8.94964
123 1 15.7242 3.14484 6.28969 -8.94963
124 1 17.2966 4.71726 7.86211 -8.94964
125 1 18.8691 3.14484 6.28969 -8.94963
126 1 20.4415 4.71726 7.86211 -8.94963
127 1 4.1507e-08 6.28969 6.28969 -8.94963
128 1 1.57242 7.86211 7.86211 -8.94963
129 1 3.14484 6.28969 6.28969 -8.94964
130 1 4.71729 7.86213 7.86213 -8.94981
131 1 6.2897 6.28969 6.2897 -8.94972
132 1 7.86227 7.86256 7.86197 -8.99041
133 1 9.43453 6.2897 6.2897 -8.95001
134 1 11.0072 7.86228 7.86219 -9.00557
135 1 12.5794 6.28969 6.28969 -8.94968
136 1 14.1519 7.86204 7.86205 -8.94908
137 1 15.7242 6.28968 6.28968 -8.9496
138 1 17.2966 7.86211 7.86211 -8.94964
139 1 18.8691 6.28969 6.28969 -8.94963
140 1 20.4415 7.86211 7.86211 -8.94963
141 1 22.0139 9.43453 6.28969 -8.94963
142 1 3.14484 9.43453 6.28968 -8.94964
143 1 6.2896 9.43446 6.2896 -8.94893
144 1 9.43433 9.43459 6.28983 -9.00528
145 1 12.5792 9.4344 6.29016 -8.99043
146 1 15.7242 9.43454 6.28971 -8.94977
147 1 18.8691 9.43453 6.28969 -8.94963
165 1 9.43456 6.28899 9.43452 -8.95472
164 1 6.28973 6.28974 9.43453 -8.95018
150 1 6.28969 7.20158e-10 9.43453 -8.94963
163 1 3.14484 6.28968 9.43453 -8.94961
162 1 22.0139 6.28969 9.43453 -8.94963
153 1 15.7242 8.40323e-10 9.43453 -8.94963
161 1 18.8691 3.14484 9.43453 -8.94963
155 1 1.06684e-09 3.14484 9.43453 -8.94963
156 1 3.14484 3.14484 9.43453 -8.94963
157 1 6.28969 3.14484 9.43453 -8.94963
158 1 9.43453 3.14483 9.43453 -8.94982
159 1 12.5794 3.14484 9.43453 -8.94965
160 1 15.7242 3.14484 9.43453 -8.94963
344 1 1.57242 11.007 1.57242 -8.94963
345 1 4.71726 11.007 1.57242 -8.94963
346 1 7.86211 11.007 1.57242 -8.94966
347 1 11.007 11.007 1.57241 -8.94982
513 1 4.71718 11.0069 11.0069 -8.95033
181 1 17.2966 1.57242 11.007 -8.94963
188 1 17.2966 4.71726 11.007 -8.94964
190 1 1.57242 7.86211 11.007 -8.94963
191 1 4.71729 7.86213 11.0069 -8.94981
192 1 7.86228 7.86258 11.0071 -8.99051
193 1 11.0072 7.86151 11.007 -9.01077
512 1 1.57242 11.007 11.0069 -8.94966
177 1 4.71726 1.57242 11.007 -8.94963
184 1 4.71726 4.71726 11.0069 -8.94964
189 1 20.4415 4.71726 11.007 -8.94963
7 1 9.43453 2.43542e-10 6.09204e-10 -8.94963
643 1 17.2966 11.007 20.4415 -8.94963
644 1 20.4415 11.007 20.4415 -8.94963
178 1 7.86211 1.57242 11.007 -8.94963
179 1 11.007 1.57242 11.007 -8.94964
180 1 14.1518 1.57242 11.007 -8.94963
639 1 4.71726 11.007 20.4415 -8.94963
182 1 20.4415 1.57242 11.007 -8.94963
183 1 1.57242 4.71726 11.007 -8.94963
638 1 1.57242 11.007 20.4415 -8.94963
185 1 7.8621 4.71727 11.007 -8.9494
186 1 11.007 4.71724 11.007 -8.94967
187 1 14.1518 4.71726 11.007 -8.94965
48 1 15.7242 9.43453 22.0139 -8.94963
35 1 9.43453 6.28969 22.0139 -8.94963
46 1 9.43453 9.43453 22.0139 -8.94963
45 1 6.28969 9.43453 22.0139 -8.94963
43 1 22.0139 9.43453 22.0139 -8.94963
546 1 20.4415 11.007 14.1518 -8.94963
194 1 14.1519 7.86205 11.007 -8.94944
195 1 17.2966 7.8621 11.007 -8.94964
196 1 20.4415 7.86211 11.007 -8.94963
197 1 1.23137e-10 -1.42733e-10 12.5794 -8.94963
198 1 1.57242 1.57242 14.1518 -8.94963
343 1 18.8691 9.43453 18.8691 -8.94963
200 1 4.71726 1.57242 14.1518 -8.94963
41 1 18.8691 6.28969 22.0139 -8.94963
202 1 7.86211 1.57242 14.1518 -8.94963
203 1 9.43453 2.79924e-07 12.5794 -8.94963
204 1 11.007 1.57242 14.1518 -8.94963
205 1 12.5794 2.80179e-07 12.5794 -8.94963
206 1 14.1518 1.57242 14.1518 -8.94963
37 1 12.5794 6.28969 22.0139 -8.94963
208 1 17.2966 1.57242 14.1518 -8.94963
342 1 15.7242 9.43453 18.8691 -8.94964
210 1 20.4415 1.57242 14.1518 -8.94963
211 1 22.0139 3.14484 12.5794 -8.94963
212 1 1.57242 4.71726 14.1518 -8.94963
213 1 3.14484 3.14484 12.5794 -8.94963
214 1 4.71726 4.71726 14.1518 -8.94964
215 1 6.28969 3.14484 12.5794 -8.94963
216 1 7.86211 4.71726 14.1518 -8.94963
217 1 9.43453 3.14484 12.5794 -8.94964
218 1 11.007 4.71726 14.1518 -8.94966
219 1 12.5794 3.14484 12.5794 -8.94963
220 1 14.1518 4.71726 14.1518 -8.94963
221 1 15.7242 3.14484 12.5794 -8.94963
222 1 17.2966 4.71726 14.1518 -8.94963
223 1 18.8691 3.14484 12.5794 -8.94963
224 1 20.4415 4.71726 14.1518 -8.94963
225 1 4.16324e-08 6.28969 12.5794 -8.94963
226 1 1.57242 7.86211 14.1518 -8.94963
227 1 3.14484 6.28969 12.5794 -8.94964
228 1 4.71726 7.8621 14.1518 -8.9496
229 1 6.2897 6.28969 12.5794 -8.94972
230 1 7.86211 7.86211 14.1518 -8.94972
231 1 9.43452 6.2897 12.5794 -8.94984
232 1 11.0069 7.86206 14.1518 -8.95077
233 1 12.5794 6.28968 12.5794 -8.94951
234 1 14.1518 7.86212 14.1518 -8.94974
235 1 15.7242 6.28968 12.5794 -8.94959
236 1 17.2966 7.86211 14.1518 -8.94965
237 1 18.8691 6.28969 12.5794 -8.94963
238 1 20.4415 7.86211 14.1518 -8.94963
239 1 22.0139 9.43453 12.5794 -8.94963
240 1 3.14484 9.43453 12.5794 -8.94964
241 1 6.28962 9.43448 12.5795 -8.94937
242 1 9.43435 9.43469 12.5795 -9.05966
243 1 12.5792 9.43446 12.5792 -9.04392
244 1 15.7242 9.43456 12.5793 -8.95021
245 1 18.8691 9.43453 12.5794 -8.94963
341 1 12.5794 9.43453 18.8691 -8.94963
247 1 1.57242 1.57242 17.2966 -8.94963
248 1 3.14484 1.67283e-09 15.7242 -8.94963
249 1 4.71726 1.57242 17.2966 -8.94963
340 1 9.43453 9.43453 18.8691 -8.94964
251 1 7.86211 1.57242 17.2966 -8.94963
252 1 9.43453 4.93478e-08 15.7242 -8.94963
253 1 11.007 1.57242 17.2966 -8.94963
254 1 12.5794 4.92032e-08 15.7242 -8.94963
255 1 14.1518 1.57242 17.2966 -8.94963
339 1 6.28969 9.43453 18.8691 -8.94964
257 1 17.2966 1.57242 17.2966 -8.94963
258 1 18.8691 1.67496e-09 15.7242 -8.94963
259 1 20.4415 1.57242 17.2966 -8.94963
260 1 9.96206e-10 3.14484 15.7242 -8.94963
261 1 1.57242 4.71726 17.2966 -8.94963
262 1 3.14484 3.14484 15.7242 -8.94963
263 1 4.71726 4.71726 17.2966 -8.94963
264 1 6.28969 3.14484 15.7242 -8.94963
265 1 7.86211 4.71726 17.2966 -8.94963
266 1 9.43453 3.14484 15.7242 -8.94963
267 1 11.007 4.71726 17.2966 -8.94963
268 1 12.5794 3.14484 15.7242 -8.94963
269 1 14.1518 4.71726 17.2966 -8.94963
270 1 15.7242 3.14484 15.7242 -8.94963
271 1 17.2966 4.71726 17.2966 -8.94963
272 1 18.8691 3.14484 15.7242 -8.94963
273 1 20.4415 4.71726 17.2966 -8.94963
274 1 22.0139 6.28969 15.7242 -8.94963
275 1 1.57242 7.86211 17.2966 -8.94963
276 1 3.14484 6.28969 15.7242 -8.94963
277 1 4.71726 7.86211 17.2966 -8.94964
278 1 6.28969 6.28969 15.7242 -8.94963
279 1 7.8621 7.8621 17.2966 -8.94959
280 1 9.43453 6.28968 15.7242 -8.94965
281 1 11.007 7.86211 17.2966 -8.94968
282 1 12.5794 6.28968 15.7242 -8.94965
283 1 14.1518 7.8621 17.2966 -8.94959
284 1 15.7242 6.28969 15.7242 -8.94964
285 1 17.2966 7.86211 17.2966 -8.94964
286 1 18.8691 6.28969 15.7242 -8.94963
287 1 20.4415 7.86211 17.2966 -8.94963
288 1 8.69282e-09 9.43453 15.7242 -8.94963
289 1 3.14484 9.43453 15.7242 -8.94963
290 1 6.28969 9.43454 15.7242 -8.94973
291 1 9.43445 9.43444 15.7243 -8.94881
292 1 12.5794 9.43444 15.7243 -8.94874
293 1 15.7242 9.43454 15.7242 -8.94972
294 1 18.8691 9.43453 15.7242 -8.94963
295 1 4.4274e-12 4.50065e-11 18.8691 -8.94963
296 1 1.57242 1.57242 20.4415 -8.94963
338 1 3.14484 9.43453 18.8691 -8.94963
298 1 4.71726 1.57242 20.4415 -8.94963
299 1 6.28969 3.61701e-09 18.8691 -8.94963
300 1 7.86211 1.57242 20.4415 -8.94963
337 1 22.0139 9.43453 18.8691 -8.94963
302 1 11.007 1.57242 20.4415 -8.94963
336 1 20.4415 7.86211 20.4415 -8.94963
304 1 14.1518 1.57242 20.4415 -8.94963
305 1 15.7242 3.61566e-09 18.8691 -8.94963
306 1 17.2966 1.57242 20.4415 -8.94963
335 1 18.8691 6.28969 18.8691 -8.94963
308 1 20.4415 1.57242 20.4415 -8.94963
309 1 22.0139 3.14484 18.8691 -8.94963
310 1 1.57242 4.71726 20.4415 -8.94963
311 1 3.14484 3.14484 18.8691 -8.94963
312 1 4.71726 4.71726 20.4415 -8.94963
313 1 6.28969 3.14484 18.8691 -8.94963
314 1 7.86211 4.71726 20.4415 -8.94963
315 1 9.43453 3.14484 18.8691 -8.94963
316 1 11.007 4.71726 20.4415 -8.94963
317 1 12.5794 3.14484 18.8691 -8.94963
318 1 14.1518 4.71726 20.4415 -8.94963
319 1 15.7242 3.14484 18.8691 -8.94963
320 1 17.2966 4.71726 20.4415 -8.94963
321 1 18.8691 3.14484 18.8691 -8.94963
322 1 20.4415 4.71726 20.4415 -8.94963
323 1 2.51323e-10 6.28969 18.8691 -8.94963
324 1 1.57242 7.86211 20.4415 -8.94963
325 1 3.14484 6.28969 18.8691 -8.94963
326 1 4.71726 7.86211 20.4415 -8.94963
327 1 6.28969 6.28969 18.8691 -8.94963
328 1 7.86211 7.86211 20.4415 -8.94963
329 1 9.43453 6.28969 18.8691 -8.94964
330 1 11.007 7.86211 20.4415 -8.94963
331 1 12.5794 6.28969 18.8691 -8.94964
332 1 14.1518 7.86211 20.4415 -8.94963
333 1 15.7242 6.28969 18.8691 -8.94963
334 1 17.2966 7.86211 20.4415 -8.94963
545 1 17.2966 11.0069 14.1518 -8.94937
543 1 11.0069 11.0049 14.1554 -8.99122
515 1 11.0182 10.9845 11.0181 -9.47295
541 1 4.71727 11.0069 14.1518 -8.94944
540 1 1.57242 11.007 14.1518 -8.94963
31 1 3.14484 6.28969 22.0139 -8.94963
15 1 22.0139 3.14484 22.0139 -8.94963
19 1 6.28969 3.14484 22.0139 -8.94963
25 1 15.7242 3.14484 22.0139 -8.94963
3 1 3.14484 1.437e-11 22.0139 -8.94963
176 1 1.57242 1.57242 11.007 -8.94963
688 2 10.2194 11.0072 9.43203 1.05725
511 1 18.8691 18.8691 9.43453 -8.94963
510 1 15.7242 18.8691 9.43453 -8.94963
509 1 12.5794 18.8691 9.43452 -8.94942
508 1 9.43452 18.8691 9.43452 -8.94959
507 1 6.28969 18.8691 9.43453 -8.94963
506 1 3.14484 18.8691 9.43453 -8.94963
349 1 17.2966 11.007 1.57242 -8.94963
352 1 1.57242 14.1518 1.57242 -8.94963
154 1 18.8691 22.0139 9.43453 -8.94963
354 1 4.71726 14.1518 1.57242 -8.94963
152 1 12.5794 22.0139 9.43453 -8.94963
356 1 7.86211 14.1518 1.57242 -8.94963
151 1 9.43453 22.0139 9.43453 -8.94964
358 1 11.007 14.1518 1.57242 -8.94963
149 1 3.14484 22.0139 9.43453 -8.94963
360 1 14.1518 14.1518 1.57242 -8.94963
361 1 15.7242 12.5794 3.21274e-08 -8.94963
362 1 17.2966 14.1518 1.57242 -8.94963
537 1 14.1518 20.4415 11.007 -8.94964
364 1 20.4415 14.1518 1.57242 -8.94963
148 1 3.81824e-10 22.0139 9.43453 -8.94963
366 1 1.57242 17.2966 1.57242 -8.94963
109 1 15.7242 22.0139 6.28969 -8.94963
368 1 4.71726 17.2966 1.57242 -8.94963
103 1 6.28969 22.0139 6.28969 -8.94963
370 1 7.86211 17.2966 1.57242 -8.94963
371 1 9.43453 15.7242 1.22784e-07 -8.94963
372 1 11.007 17.2966 1.57242 -8.94963
373 1 12.5794 15.7242 1.01412e-07 -8.94963
374 1 14.1518 17.2966 1.57242 -8.94963
62 1 18.8691 22.0139 3.14484 -8.94963
376 1 17.2966 17.2966 1.57242 -8.94963
377 1 18.8691 15.7242 2.63437e-09 -8.94963
378 1 20.4415 17.2966 1.57242 -8.94963
379 1 22.0139 18.8691 2.73595e-11 -8.94963
380 1 1.57242 20.4415 1.57242 -8.94963
58 1 12.5794 22.0139 3.14484 -8.94963
382 1 4.71726 20.4415 1.57242 -8.94963
383 1 6.28969 18.8691 4.80713e-09 -8.94963
384 1 7.86211 20.4415 1.57242 -8.94963
56 1 9.43453 22.0139 3.14484 -8.94963
386 1 11.007 20.4415 1.57242 -8.94963
52 1 3.14484 22.0139 3.14484 -8.94963
388 1 14.1518 20.4415 1.57242 -8.94963
389 1 15.7242 18.8691 5.39854e-09 -8.94963
390 1 17.2966 20.4415 1.57242 -8.94963
50 1 22.0139 22.0139 3.14484 -8.94963
392 1 20.4415 20.4415 1.57242 -8.94963
393 1 1.57242 11.007 4.71726 -8.94963
394 1 4.71727 11.007 4.71727 -8.94968
505 1 1.08169e-09 18.8691 9.43453 -8.94963
504 1 18.8691 15.7242 9.43453 -8.94963
503 1 15.7242 15.7242 9.43453 -8.94972
398 1 17.2966 11.007 4.71726 -8.94962
399 1 20.4415 11.007 4.71726 -8.94963
400 1 8.64069e-09 12.5794 3.14484 -8.94963
401 1 1.57242 14.1518 4.71726 -8.94963
402 1 3.14484 12.5794 3.14484 -8.94964
403 1 4.71726 14.1518 4.71726 -8.9496
404 1 6.28968 12.5794 3.14484 -8.94964
405 1 7.86211 14.1518 4.71726 -8.94968
406 1 9.43452 12.5794 3.14483 -8.9495
407 1 11.0069 14.1518 4.7173 -8.94978
408 1 12.5794 12.5794 3.14485 -8.94942
409 1 14.1518 14.1518 4.71727 -8.94972
410 1 15.7242 12.5794 3.14484 -8.94963
411 1 17.2966 14.1518 4.71727 -8.94965
412 1 18.8691 12.5794 3.14484 -8.94963
413 1 20.4415 14.1518 4.71726 -8.94963
414 1 22.0139 15.7242 3.14484 -8.94963
415 1 1.57242 17.2966 4.71726 -8.94963
416 1 3.14484 15.7242 3.14484 -8.94963
417 1 4.71726 17.2966 4.71726 -8.94963
418 1 6.28969 15.7242 3.14484 -8.94963
419 1 7.86211 17.2966 4.71726 -8.94964
420 1 9.43453 15.7242 3.14484 -8.94963
421 1 11.007 17.2966 4.71726 -8.94961
422 1 12.5794 15.7242 3.14484 -8.94963
423 1 14.1518 17.2966 4.71727 -8.94964
424 1 15.7242 15.7242 3.14484 -8.94964
425 1 17.2966 17.2966 4.71726 -8.94963
426 1 18.8691 15.7242 3.14484 -8.94963
427 1 20.4415 17.2966 4.71726 -8.94963
428 1 9.92087e-10 18.8691 3.14484 -8.94963
429 1 1.57242 20.4415 4.71726 -8.94963
430 1 3.14484 18.8691 3.14484 -8.94963
431 1 4.71726 20.4415 4.71726 -8.94963
432 1 6.28969 18.8691 3.14484 -8.94963
433 1 7.86211 20.4415 4.71726 -8.94963
434 1 9.43453 18.8691 3.14484 -8.94963
435 1 11.007 20.4415 4.71726 -8.94963
436 1 12.5794 18.8691 3.14484 -8.94963
437 1 14.1518 20.4415 4.71726 -8.94963
438 1 15.7242 18.8691 3.14484 -8.94963
439 1 17.2966 20.4415 4.71726 -8.94963
440 1 18.8691 18.8691 3.14484 -8.94963
441 1 20.4415 20.4415 4.71726 -8.94963
502 1 12.5795 15.7238 9.43468 -8.99086
501 1 9.43441 15.7245 9.43468 -8.99553
500 1 6.28973 15.7242 9.43453 -8.95022
445 1 11.017 11.0075 7.84317 -9.28892
499 1 3.14484 15.7242 9.43453 -8.94961
498 1 22.0139 15.7242 9.43453 -8.94963
497 1 18.8691 12.5794 9.43453 -8.94968
449 1 22.0139 12.5794 6.28969 -8.94963
450 1 1.57242 14.1518 7.86211 -8.94963
451 1 3.14484 12.5794 6.28968 -8.94964
452 1 4.71729 14.1518 7.86212 -8.94983
453 1 6.2896 12.5794 6.28961 -8.94902
454 1 7.86217 14.1514 7.86186 -8.98945
455 1 9.43431 12.5793 6.28972 -9.00602
456 1 11.0072 14.1512 7.86286 -9.05308
457 1 12.5792 12.5795 6.29005 -8.99109
458 1 14.152 14.1519 7.86196 -8.94832
459 1 15.7242 12.5794 6.28971 -8.94986
460 1 17.2966 14.1518 7.86211 -8.94965
461 1 18.8691 12.5794 6.28969 -8.94963
462 1 20.4415 14.1518 7.86211 -8.94963
463 1 4.14573e-08 15.7242 6.28969 -8.94963
464 1 1.57242 17.2966 7.86211 -8.94963
465 1 3.14484 15.7242 6.28969 -8.94964
466 1 4.71726 17.2966 7.86211 -8.94964
467 1 6.28969 15.7242 6.28969 -8.94967
468 1 7.86211 17.2966 7.86211 -8.94948
469 1 9.43455 15.7242 6.28973 -8.95019
470 1 11.007 17.2966 7.86214 -8.95002
471 1 12.5794 15.7242 6.28971 -8.94985
472 1 14.1518 17.2966 7.86212 -8.94973
473 1 15.7242 15.7242 6.28968 -8.94955
474 1 17.2966 17.2966 7.86211 -8.94964
475 1 18.8691 15.7242 6.28969 -8.94963
476 1 20.4415 17.2966 7.86211 -8.94963
477 1 22.0139 18.8691 6.28969 -8.94963
478 1 1.57242 20.4415 7.86211 -8.94963
479 1 3.14484 18.8691 6.28969 -8.94963
480 1 4.71726 20.4415 7.86211 -8.94963
481 1 6.28969 18.8691 6.28969 -8.94963
482 1 7.86211 20.4415 7.86211 -8.94962
483 1 9.43453 18.8691 6.28969 -8.94964
484 1 11.007 20.4415 7.86211 -8.94963
485 1 12.5794 18.8691 6.28969 -8.94963
486 1 14.1518 20.4415 7.86211 -8.94963
487 1 15.7242 18.8691 6.28969 -8.94964
488 1 17.2966 20.4415 7.86211 -8.94963
489 1 18.8691 18.8691 6.28969 -8.94963
490 1 20.4415 20.4415 7.86211 -8.94963
491 1 3.88428e-07 12.5794 9.43453 -8.94963
492 1 3.14486 12.5794 9.43453 -8.94944
493 1 6.29034 12.5789 9.43452 -8.99837
494 1 9.42257 12.5991 9.43154 -9.27719
495 1 12.5843 12.5813 9.4316 -9.02106
496 1 15.7244 12.5794 9.43452 -8.95119
536 1 11.007 20.4415 11.007 -8.94982
5 1 6.28969 22.0139 -9.25075e-11 -8.94963
516 1 14.1509 11.007 11.0062 -9.0531
519 1 1.57242 14.1518 11.007 -8.94963
520 1 4.71728 14.1518 11.0069 -8.94965
521 1 7.86237 14.1513 11.0069 -9.04557
522 1 11.0072 14.1715 10.9969 -9.29577
523 1 14.1518 14.1518 11.0068 -9.00435
524 1 17.2966 14.1518 11.0069 -8.94947
525 1 20.4415 14.1518 11.007 -8.94963
527 1 4.71726 17.2966 11.0069 -8.94964
535 1 7.86211 20.4415 11.007 -8.94963
531 1 17.2966 17.2966 11.007 -8.94964
353 1 3.14484 12.5794 4.70657e-09 -8.94963
687 2 11.0068 12.5819 11.7942 1.05671
686 1 20.4415 20.4415 20.4415 -8.94963
514 1 7.85933 11.007 11.0088 -9.03996
685 1 18.8691 18.8691 18.8691 -8.94963
307 1 18.8691 22.0139 18.8691 -8.94963
684 1 17.2966 20.4415 20.4415 -8.94963
683 1 15.7242 18.8691 18.8691 -8.94963
303 1 12.5794 22.0139 18.8691 -8.94963
301 1 9.43453 22.0139 18.8691 -8.94963
297 1 3.14484 22.0139 18.8691 -8.94963
256 1 15.7242 22.0139 15.7242 -8.94963
250 1 6.28969 22.0139 15.7242 -8.94963
246 1 22.0139 22.0139 15.7242 -8.94963
209 1 18.8691 22.0139 12.5794 -8.94963
526 1 1.57242 17.2966 11.007 -8.94963
199 1 3.14484 22.0139 12.5794 -8.94963
528 1 7.86212 17.2966 11.007 -8.94977
529 1 11.007 17.2973 11.007 -8.95484
671 1 18.8691 15.7242 18.8691 -8.94963
670 1 17.2966 17.2966 20.4415 -8.94963
669 1 15.7242 15.7242 18.8691 -8.94964
533 1 1.57242 20.4415 11.007 -8.94963
534 1 4.71726 20.4415 11.007 -8.94963
668 1 14.1518 17.2966 20.4415 -8.94963
667 1 12.5794 15.7242 18.8691 -8.94964
666 1 11.007 17.2966 20.4415 -8.94963
538 1 17.2966 20.4415 11.007 -8.94963
539 1 20.4415 20.4415 11.007 -8.94963
682 1 14.1518 20.4415 20.4415 -8.94963
681 1 12.5794 18.8691 18.8691 -8.94964
542 1 7.86255 11.0068 14.1517 -8.99079
680 1 11.007 20.4415 20.4415 -8.94963
544 1 14.1513 11.0068 14.1516 -8.99072
679 1 9.43453 18.8691 18.8691 -8.94964
678 1 7.86211 20.4415 20.4415 -8.94963
547 1 22.0139 12.5794 12.5794 -8.94964
548 1 1.57242 14.1518 14.1518 -8.94963
549 1 3.14482 12.5794 12.5794 -8.94983
550 1 4.71727 14.1518 14.1518 -8.94935
551 1 6.2889 12.5794 12.5794 -8.95432
552 1 7.86255 14.1519 14.1516 -8.99031
553 1 9.41451 12.5792 12.5891 -9.29661
554 1 11.0069 14.1538 14.1548 -8.9853
555 1 12.599 12.5794 12.5887 -9.28173
556 1 14.1513 14.1519 14.1516 -8.99041
557 1 15.7249 12.5794 12.5793 -8.95515
558 1 17.2966 14.1518 14.1518 -8.9494
559 1 18.8691 12.5794 12.5794 -8.94982
560 1 20.4415 14.1518 14.1518 -8.94963
561 1 4.14056e-08 15.7242 12.5794 -8.94963
562 1 1.57242 17.2966 14.1518 -8.94963
563 1 3.14485 15.7242 12.5794 -8.94965
564 1 4.71726 17.2966 14.1518 -8.94964
565 1 6.28971 15.7242 12.5794 -8.95009
566 1 7.86211 17.2966 14.1518 -8.94968
567 1 9.43456 15.7241 12.5796 -9.00546
568 1 11.007 17.2967 14.1518 -8.95031
569 1 12.5793 15.7241 12.5796 -9.0051
570 1 14.1518 17.2966 14.1518 -8.94967
571 1 15.7242 15.7242 12.5794 -8.94997
572 1 17.2966 17.2966 14.1518 -8.94963
573 1 18.8691 15.7242 12.5794 -8.94964
574 1 20.4415 17.2966 14.1518 -8.94963
575 1 22.0139 18.8691 12.5794 -8.94963
576 1 1.57242 20.4415 14.1518 -8.94963
577 1 3.14484 18.8691 12.5794 -8.94963
578 1 4.71726 20.4415 14.1518 -8.94963
579 1 6.28969 18.8691 12.5794 -8.94963
580 1 7.86211 20.4415 14.1518 -8.94963
581 1 9.43452 18.8691 12.5794 -8.94947
582 1 11.007 20.4415 14.1518 -8.94966
583 1 12.5794 18.8691 12.5794 -8.94947
584 1 14.1518 20.4415 14.1518 -8.94963
585 1 15.7242 18.8691 12.5794 -8.94963
586 1 17.2966 20.4415 14.1518 -8.94963
587 1 18.8691 18.8691 12.5794 -8.94963
588 1 20.4415 20.4415 14.1518 -8.94963
677 1 6.28969 18.8691 18.8691 -8.94963
676 1 4.71726 20.4415 20.4415 -8.94963
591 1 7.86213 11.007 17.2966 -8.94984
592 1 11.007 11.007 17.2967 -8.9507
593 1 14.1518 11.007 17.2966 -8.94981
675 1 3.14484 18.8691 18.8691 -8.94963
674 1 1.57242 20.4415 20.4415 -8.94963
596 1 8.37665e-09 12.5794 15.7242 -8.94963
597 1 1.57242 14.1518 17.2966 -8.94963
598 1 3.14484 12.5794 15.7242 -8.94963
599 1 4.71726 14.1518 17.2966 -8.94964
600 1 6.28974 12.5794 15.7242 -8.95019
601 1 7.86213 14.1518 17.2966 -8.94981
602 1 9.43504 12.5794 15.7235 -8.99753
603 1 11.007 14.1518 17.2967 -8.95053
604 1 12.5789 12.5794 15.7235 -8.99743
605 1 14.1518 14.1518 17.2966 -8.94981
606 1 15.7242 12.5794 15.7242 -8.95018
607 1 17.2966 14.1518 17.2966 -8.94964
608 1 18.8691 12.5794 15.7242 -8.94963
609 1 20.4415 14.1518 17.2966 -8.94963
610 1 22.0139 15.7242 15.7242 -8.94963
611 1 1.57242 17.2966 17.2966 -8.94963
612 1 3.14484 15.7242 15.7242 -8.94963
613 1 4.71726 17.2966 17.2966 -8.94964
614 1 6.28969 15.7242 15.7242 -8.94971
615 1 7.8621 17.2966 17.2966 -8.94959
616 1 9.43446 15.7243 15.7243 -8.94897
617 1 11.007 17.2966 17.2966 -8.94968
618 1 12.5794 15.7243 15.7243 -8.94897
619 1 14.1518 17.2966 17.2966 -8.94959
620 1 15.7242 15.7242 15.7242 -8.94972
621 1 17.2966 17.2966 17.2966 -8.94964
622 1 18.8691 15.7242 15.7242 -8.94963
623 1 20.4415 17.2966 17.2966 -8.94963
624 1 9.94875e-10 18.8691 15.7242 -8.94963
625 1 1.57242 20.4415 17.2966 -8.94963
626 1 3.14484 18.8691 15.7242 -8.94963
627 1 4.71726 20.4415 17.2966 -8.94963
628 1 6.28969 18.8691 15.7242 -8.94963
629 1 7.86211 20.4415 17.2966 -8.94963
630 1 9.43453 18.8691 15.7242 -8.94965
631 1 11.007 20.4415 17.2966 -8.94963
632 1 12.5794 18.8691 15.7242 -8.94965
633 1 14.1518 20.4415 17.2966 -8.94963
634 1 15.7242 18.8691 15.7242 -8.94963
635 1 17.2966 20.4415 17.2966 -8.94963
636 1 18.8691 18.8691 15.7242 -8.94963
637 1 20.4415 20.4415 17.2966 -8.94963
11 1 15.7242 22.0139 22.0139 -8.94963
673 1 22.0139 18.8691 18.8691 -8.94963
640 1 7.86211 11.007 20.4415 -8.94963
641 1 11.007 11.007 20.4415 -8.94967
642 1 14.1518 11.007 20.4415 -8.94963
672 1 20.4415 17.2966 20.4415 -8.94963
391 1 18.8691 18.8691 22.0139 -8.94963
645 1 22.0139 12.5794 18.8691 -8.94963
646 1 1.57242 14.1518 20.4415 -8.94963
647 1 3.14484 12.5794 18.8691 -8.94963
648 1 4.71726 14.1518 20.4415 -8.94963
649 1 6.28968 12.5794 18.8691 -8.94961
650 1 7.86211 14.1518 20.4415 -8.94963
651 1 9.43453 12.5794 18.869 -8.94941
652 1 11.007 14.1518 20.4415 -8.94966
653 1 12.5794 12.5794 18.869 -8.94941
654 1 14.1518 14.1518 20.4415 -8.94963
655 1 15.7242 12.5794 18.8691 -8.94961
656 1 17.2966 14.1518 20.4415 -8.94963
657 1 18.8691 12.5794 18.8691 -8.94963
658 1 20.4415 14.1518 20.4415 -8.94963
659 1 2.43149e-10 15.7242 18.8691 -8.94963
660 1 1.57242 17.2966 20.4415 -8.94963
661 1 3.14484 15.7242 18.8691 -8.94963
662 1 4.71726 17.2966 20.4415 -8.94963
663 1 6.28969 15.7242 18.8691 -8.94964
664 1 7.86211 17.2966 20.4415 -8.94963
665 1 9.43453 15.7242 18.8691 -8.94964
207 1 15.7242 22.0139 12.5794 -8.94963
355 1 6.28969 12.5794 22.0139 -8.94963
357 1 9.43453 12.5794 22.0139 -8.94963
359 1 12.5794 12.5794 22.0139 -8.94962
365 1 2.52177e-10 15.7242 22.0139 -8.94963
367 1 3.14484 15.7242 22.0139 -8.94963
369 1 6.28969 15.7242 22.0139 -8.94963
375 1 15.7242 15.7242 22.0139 -8.94963
381 1 3.14484 18.8691 22.0139 -8.94963
385 1 9.43453 18.8691 22.0139 -8.94963
387 1 12.5794 18.8691 22.0139 -8.94963
595 1 20.4415 11.007 17.2966 -8.94963
594 1 17.2966 11.007 17.2966 -8.94963
590 1 4.71726 11.007 17.2966 -8.94963
589 1 1.57242 11.007 17.2966 -8.94963
201 1 6.28969 22.0139 12.5794 -8.94963
351 1 22.0139 12.5794 22.0139 -8.94963
363 1 18.8691 12.5794 22.0139 -8.94963
1 1 4.39891e-12 22.0139 22.0139 -8.94963
530 1 14.1518 17.2966 11.007 -8.95002
532 1 20.4415 17.2966 11.007 -8.94963
